/*--------------------------------*- C++ -*----------------------------------*\
| =========                 |                                                 |
| \\      /  F ield         | OpenFOAM: The Open Source CFD Toolbox           |
|  \\    /   O peration     | Version:  2306                                  |
|   \\  /    A nd           | Website:  www.openfoam.com                      |
|    \\/     M anipulation  |                                                 |
\*---------------------------------------------------------------------------*/
FoamFile
{
    version     2.0;
    format      ascii;
    arch        "LSB;label=32;scalar=64";
    class       volScalarField;
    location    "4.5";
    object      Keff;
}
// * * * * * * * * * * * * * * * * * * * * * * * * * * * * * * * * * * * * * //

dimensions      [1 1 -3 -1 0 0 0];

internalField   nonuniform List<scalar> 
32768
(
67.2037
67.2017
67.1976
67.1914
67.1831
67.1727
67.1602
67.1456
67.1289
67.11
67.089
67.0658
67.0404
67.0128
66.983
66.951
66.9167
66.88
66.8411
66.7999
66.7563
66.7103
66.662
66.6112
66.558
66.5025
66.4444
66.384
66.3211
66.2558
66.188
66.1179
66.0453
65.9704
65.8931
65.8135
65.7316
65.6476
65.5613
65.473
65.3826
65.2902
65.196
65.0999
65.0022
64.9029
64.802
64.6998
64.5964
64.4918
64.3861
64.2796
64.1724
64.0645
63.9562
63.8475
63.7387
63.6298
63.521
63.4124
63.3041
63.1964
63.0893
62.983
62.8775
62.7731
62.6698
62.5677
62.467
62.3678
62.2702
62.1742
62.08
61.9877
61.8974
61.809
61.7229
61.6389
61.5572
61.4779
61.4011
61.3268
61.255
61.186
61.1197
61.0562
60.9956
60.9379
60.8833
60.8317
60.7834
60.7382
60.6964
60.6579
60.6229
60.5914
60.5634
60.539
60.5184
60.5014
60.4883
60.479
60.4735
60.4719
60.4743
60.4807
60.4911
60.5054
60.5238
60.5462
60.5726
60.6029
60.6373
60.6756
60.7178
60.7638
60.8136
60.8672
60.9245
60.9853
61.0497
61.1174
61.1885
61.2627
61.3401
61.4204
61.5036
61.5894
61.6778
61.7687
61.8618
61.9571
62.0543
62.1533
62.254
62.3562
62.4597
62.5644
62.67
62.7765
62.8837
62.9914
63.0994
63.2077
63.3159
63.4241
63.532
63.6395
63.7465
63.8528
63.9583
64.0628
64.1663
64.2686
64.3695
64.4691
64.5671
64.6635
64.758
64.8506
64.9412
65.0296
65.1158
65.1995
65.2807
65.3593
65.4351
65.5082
65.5784
65.6458
65.7102
65.7718
65.8306
65.8866
65.94
65.9907
66.0391
66.0851
66.129
66.1708
66.2107
66.2489
66.2855
66.3205
66.3541
66.3865
66.4176
66.4476
66.4765
66.5044
66.5313
66.5573
66.5825
66.6068
66.6302
66.6529
66.6748
66.696
66.7164
66.7362
66.7552
66.7736
66.7913
66.8084
66.8248
66.8407
66.856
66.8707
66.8848
66.8985
66.9116
66.9242
66.9363
66.9479
66.9591
66.9699
66.9802
66.9902
66.9997
67.0089
67.0176
67.0261
67.0342
67.042
67.0494
67.0566
67.0635
67.0701
67.0764
67.0825
67.0883
67.0939
67.0993
67.1044
67.1094
67.1142
67.1187
67.1231
67.1274
67.1315
67.1354
67.1392
67.1428
67.1463
67.1497
67.153
67.1562
67.1592
67.1622
67.1651
67.1679
67.1706
67.1732
67.176
67.178
67.1819
67.2037
67.2017
67.1976
67.1914
67.1831
67.1727
67.1602
67.1456
67.1289
67.11
67.089
67.0658
67.0405
67.0129
66.9831
66.9511
66.9167
66.8801
66.8412
66.8
66.7564
66.7104
66.662
66.6113
66.5581
66.5025
66.4444
66.384
66.321
66.2557
66.1879
66.1177
66.045
65.9701
65.8927
65.813
65.7311
65.6469
65.5606
65.4721
65.3816
65.2892
65.1948
65.0986
65.0008
64.9013
64.8003
64.698
64.5944
64.4896
64.3838
64.2772
64.1698
64.0618
63.9533
63.8445
63.7354
63.6264
63.5174
63.4087
63.3003
63.1924
63.0852
62.9787
62.8732
62.7686
62.6652
62.5631
62.4623
62.3629
62.2652
62.1692
62.0749
61.9825
61.8921
61.8037
61.7174
61.6334
61.5516
61.4723
61.3954
61.321
61.2492
61.1801
61.1137
61.0502
60.9895
60.9318
60.8771
60.8255
60.7771
60.7319
60.69
60.6515
60.6164
60.5848
60.5568
60.5324
60.5117
60.4947
60.4815
60.4721
60.4667
60.4651
60.4675
60.4738
60.4842
60.4985
60.5169
60.5393
60.5657
60.5961
60.6305
60.6688
60.711
60.7571
60.807
60.8607
60.918
60.9789
61.0433
61.1112
61.1823
61.2567
61.3342
61.4146
61.4979
61.5839
61.6725
61.7635
61.8568
61.9522
62.0495
62.1487
62.2496
62.3519
62.4556
62.5605
62.6663
62.773
62.8803
62.9882
63.0964
63.2048
63.3133
63.4216
63.5297
63.6373
63.7445
63.8509
63.9565
64.0612
64.1648
64.2673
64.3684
64.4681
64.5662
64.6626
64.7573
64.85
64.9407
65.0293
65.1155
65.1993
65.2806
65.3592
65.4352
65.5083
65.5786
65.6461
65.7106
65.7722
65.8311
65.8871
65.9405
65.9914
66.0397
66.0858
66.1297
66.1715
66.2115
66.2497
66.2862
66.3213
66.3549
66.3873
66.4184
66.4484
66.4773
66.5052
66.5321
66.5581
66.5832
66.6075
66.631
66.6536
66.6755
66.6967
66.7171
66.7368
66.7559
66.7742
66.7919
66.809
66.8254
66.8413
66.8565
66.8712
66.8854
66.899
66.9121
66.9247
66.9368
66.9484
66.9596
66.9703
66.9806
66.9906
67.0001
67.0092
67.018
67.0264
67.0345
67.0423
67.0497
67.0569
67.0637
67.0703
67.0766
67.0827
67.0885
67.0941
67.0995
67.1046
67.1096
67.1143
67.1189
67.1233
67.1275
67.1316
67.1355
67.1393
67.1429
67.1464
67.1498
67.1531
67.1563
67.1593
67.1623
67.1652
67.1679
67.1707
67.1732
67.1761
67.178
67.182
67.2037
67.2017
67.1976
67.1914
67.1831
67.1727
67.1603
67.1457
67.129
67.1101
67.0891
67.066
67.0406
67.013
66.9833
66.9512
66.9169
66.8803
66.8414
66.8001
66.7565
66.7105
66.6622
66.6114
66.5582
66.5025
66.4444
66.3839
66.3209
66.2555
66.1876
66.1173
66.0445
65.9694
65.8919
65.8121
65.73
65.6457
65.5591
65.4705
65.3797
65.287
65.1924
65.096
64.9979
64.8981
64.7969
64.6942
64.5903
64.4853
64.3792
64.2722
64.1645
64.0562
63.9474
63.8383
63.729
63.6196
63.5103
63.4013
63.2927
63.1845
63.077
62.9703
62.8645
62.7597
62.6561
62.5537
62.4527
62.3532
62.2553
62.159
62.0646
61.972
61.8814
61.7929
61.7065
61.6224
61.5405
61.461
61.384
61.3095
61.2375
61.1683
61.1018
61.0382
60.9774
60.9195
60.8647
60.813
60.7645
60.7192
60.6772
60.6386
60.6034
60.5717
60.5436
60.5191
60.4983
60.4812
60.468
60.4585
60.453
60.4514
60.4537
60.46
60.4703
60.4847
60.5031
60.5255
60.5519
60.5824
60.6168
60.6552
60.6975
60.7437
60.7937
60.8475
60.905
60.9661
61.0307
61.0987
61.1701
61.2447
61.3224
61.4031
61.4866
61.5729
61.6618
61.753
61.8466
61.9423
62.0401
62.1396
62.2408
62.3435
62.4475
62.5527
62.6589
62.7659
62.8736
62.9818
63.0904
63.1991
63.3079
63.4166
63.525
63.633
63.7404
63.8472
63.9531
64.0581
64.162
64.2647
64.3661
64.466
64.5644
64.661
64.7559
64.8489
64.9398
65.0285
65.1149
65.1989
65.2804
65.3592
65.4353
65.5086
65.5791
65.6466
65.7113
65.7731
65.832
65.8882
65.9417
65.9926
66.0411
66.0872
66.1311
66.173
66.213
66.2512
66.2878
66.3229
66.3565
66.3889
66.42
66.4499
66.4788
66.5067
66.5336
66.5596
66.5847
66.609
66.6324
66.6551
66.677
66.6981
66.7185
66.7382
66.7572
66.7755
66.7932
66.8102
66.8266
66.8424
66.8576
66.8723
66.8864
66.9
66.9131
66.9256
66.9377
66.9493
66.9604
66.9712
66.9815
66.9913
67.0008
67.0099
67.0187
67.0271
67.0352
67.0429
67.0503
67.0574
67.0643
67.0708
67.0771
67.0832
67.089
67.0946
67.0999
67.105
67.11
67.1147
67.1193
67.1236
67.1279
67.1319
67.1358
67.1396
67.1432
67.1467
67.1501
67.1533
67.1565
67.1595
67.1625
67.1653
67.1681
67.1708
67.1734
67.1762
67.1781
67.1821
67.2037
67.2017
67.1976
67.1914
67.1832
67.1728
67.1603
67.1457
67.1291
67.1102
67.0893
67.0661
67.0408
67.0132
66.9835
66.9515
66.9172
66.8806
66.8417
66.8004
66.7568
66.7108
66.6624
66.6116
66.5583
66.5026
66.4445
66.3838
66.3207
66.2552
66.1872
66.1167
66.0438
65.9685
65.8908
65.8108
65.7284
65.6438
65.557
65.468
65.3769
65.2839
65.1889
65.0921
64.9936
64.8934
64.7918
64.6887
64.5843
64.4788
64.3723
64.2648
64.1566
64.0478
63.9386
63.829
63.7192
63.6094
63.4997
63.3902
63.2812
63.1726
63.0647
62.9576
62.8514
62.7463
62.6423
62.5396
62.4383
62.3385
62.2403
62.1438
62.0492
61.9563
61.8655
61.7768
61.6902
61.6058
61.5237
61.4441
61.3668
61.2921
61.2201
61.1507
61.084
61.0202
60.9592
60.9012
60.8462
60.7944
60.7457
60.7002
60.658
60.6192
60.5839
60.5521
60.5238
60.4992
60.4782
60.461
60.4476
60.4381
60.4325
60.4308
60.433
60.4393
60.4496
60.4639
60.4823
60.5048
60.5312
60.5618
60.5963
60.6348
60.6773
60.7236
60.7738
60.8278
60.8855
60.9468
61.0117
61.08
61.1517
61.2266
61.3047
61.3858
61.4697
61.5564
61.6457
61.7374
61.8314
61.9276
62.0258
62.1258
62.2275
62.3307
62.4353
62.541
62.6477
62.7552
62.8635
62.9722
63.0813
63.1906
63.2999
63.4091
63.518
63.6264
63.7344
63.8416
63.948
64.0534
64.1577
64.2608
64.3626
64.4629
64.5616
64.6587
64.7539
64.8471
64.9383
65.0274
65.1141
65.1984
65.2801
65.3592
65.4355
65.5091
65.5798
65.6475
65.7124
65.7744
65.8335
65.8898
65.9435
65.9945
66.0431
66.0893
66.1333
66.1753
66.2153
66.2536
66.2902
66.3252
66.3589
66.3912
66.4224
66.4523
66.4812
66.5091
66.536
66.5619
66.587
66.6112
66.6346
66.6573
66.6791
66.7002
66.7205
66.7402
66.7591
66.7774
66.795
66.812
66.8284
66.8441
66.8593
66.8739
66.888
66.9015
66.9145
66.927
66.9391
66.9506
66.9617
66.9724
66.9827
66.9925
67.002
67.011
67.0197
67.0281
67.0361
67.0438
67.0512
67.0583
67.0651
67.0716
67.0779
67.0839
67.0897
67.0952
67.1005
67.1056
67.1106
67.1153
67.1198
67.1241
67.1283
67.1324
67.1362
67.14
67.1436
67.1471
67.1504
67.1536
67.1568
67.1598
67.1627
67.1656
67.1683
67.1711
67.1736
67.1764
67.1783
67.1822
67.2037
67.2017
67.1976
67.1915
67.1832
67.1728
67.1604
67.1459
67.1292
67.1104
67.0895
67.0663
67.041
67.0135
66.9838
66.9518
66.9175
66.8809
66.842
66.8008
66.7572
66.7111
66.6627
66.6118
66.5585
66.5028
66.4445
66.3838
66.3205
66.2548
66.1866
66.116
66.0429
65.9673
65.8893
65.809
65.7263
65.6413
65.5541
65.4647
65.3732
65.2797
65.1843
65.087
64.9879
64.8872
64.7849
64.6813
64.5763
64.4702
64.363
64.2549
64.1461
64.0367
63.9268
63.8166
63.7062
63.5958
63.4855
63.3755
63.2658
63.1567
63.0483
62.9407
62.834
62.7284
62.624
62.5209
62.4192
62.319
62.2204
62.1236
62.0286
61.9354
61.8443
61.7553
61.6684
61.5837
61.5014
61.4215
61.344
61.2691
61.1968
61.1271
61.0602
60.9962
60.935
60.8767
60.8216
60.7695
60.7205
60.6748
60.6325
60.5935
60.5579
60.5259
60.4974
60.4726
60.4514
60.4341
60.4205
60.4109
60.4051
60.4033
60.4055
60.4117
60.4219
60.4363
60.4547
60.4771
60.5037
60.5343
60.5689
60.6076
60.6502
60.6968
60.7472
60.8015
60.8595
60.9211
60.9864
61.0551
61.1272
61.2025
61.2811
61.3626
61.4471
61.5343
61.6242
61.7165
61.8111
61.908
62.0068
62.1075
62.2098
62.3137
62.419
62.5254
62.6328
62.7411
62.85
62.9594
63.0692
63.1792
63.2892
63.3991
63.5086
63.6178
63.7263
63.8342
63.9411
64.0471
64.152
64.2557
64.358
64.4588
64.558
64.6555
64.7512
64.8449
64.9365
65.0259
65.113
65.1976
65.2797
65.3592
65.4359
65.5097
65.5807
65.6488
65.7139
65.7761
65.8355
65.892
65.9458
65.997
66.0457
66.0921
66.1362
66.1783
66.2184
66.2567
66.2933
66.3284
66.3621
66.3944
66.4256
66.4555
66.4844
66.5122
66.5391
66.565
66.59
66.6142
66.6376
66.6601
66.6819
66.703
66.7232
66.7428
66.7617
66.7799
66.7975
66.8144
66.8307
66.8464
66.8615
66.8761
66.8901
66.9036
66.9165
66.929
66.9409
66.9524
66.9635
66.9741
66.9843
66.9941
67.0035
67.0125
67.0211
67.0294
67.0374
67.0451
67.0524
67.0594
67.0662
67.0727
67.0789
67.0849
67.0906
67.0961
67.1014
67.1065
67.1113
67.116
67.1205
67.1248
67.129
67.133
67.1368
67.1405
67.1441
67.1475
67.1509
67.1541
67.1572
67.1602
67.1631
67.1659
67.1686
67.1713
67.1738
67.1766
67.1785
67.1824
67.2037
67.2017
67.1977
67.1915
67.1832
67.1729
67.1605
67.146
67.1294
67.1106
67.0897
67.0666
67.0414
67.0139
66.9842
66.9522
66.918
66.8814
66.8425
66.8013
66.7576
66.7116
66.6631
66.6122
66.5588
66.503
66.4446
66.3837
66.3204
66.2545
66.186
66.1151
66.0417
65.9659
65.8876
65.8068
65.7237
65.6383
65.5506
65.4607
65.3687
65.2746
65.1785
65.0805
64.9808
64.8794
64.7764
64.672
64.5663
64.4594
64.3515
64.2426
64.133
64.0228
63.9121
63.8011
63.69
63.5788
63.4678
63.357
63.2467
63.1369
63.0278
62.9195
62.8123
62.7061
62.6011
62.4974
62.3952
62.2945
62.1955
62.0982
62.0028
61.9093
61.8178
61.7284
61.6411
61.5562
61.4735
61.3933
61.3155
61.2403
61.1677
61.0977
61.0306
60.9662
60.9047
60.8462
60.7907
60.7384
60.6891
60.6432
60.6005
60.5612
60.5254
60.4931
60.4644
60.4393
60.418
60.4004
60.3867
60.3768
60.3709
60.369
60.371
60.3772
60.3874
60.4016
60.42
60.4426
60.4692
60.4999
60.5347
60.5735
60.6164
60.6632
60.7139
60.7685
60.8269
60.8889
60.9546
61.0238
61.0965
61.1724
61.2515
61.3337
61.4188
61.5067
61.5973
61.6903
61.7858
61.8834
61.983
62.0845
62.1877
62.2925
62.3986
62.5059
62.6142
62.7233
62.8331
62.9435
63.0541
63.165
63.2758
63.3866
63.497
63.6069
63.7163
63.8249
63.9327
64.0394
64.145
64.2493
64.3523
64.4537
64.5535
64.6516
64.7478
64.8421
64.9342
65.0241
65.1117
65.1968
65.2793
65.3592
65.4363
65.5106
65.5819
65.6503
65.7158
65.7783
65.838
65.8948
65.9488
66.0002
66.0491
66.0956
66.1399
66.182
66.2222
66.2606
66.2973
66.3324
66.3661
66.3985
66.4296
66.4595
66.4883
66.5161
66.543
66.5688
66.5938
66.618
66.6413
66.6638
66.6855
66.7064
66.7267
66.7462
66.765
66.7831
66.8006
66.8175
66.8337
66.8493
66.8643
66.8788
66.8927
66.9061
66.919
66.9314
66.9432
66.9547
66.9656
66.9762
66.9863
66.996
67.0053
67.0143
67.0229
67.0311
67.039
67.0466
67.0539
67.0609
67.0676
67.074
67.0802
67.0861
67.0918
67.0972
67.1024
67.1075
67.1123
67.1169
67.1214
67.1256
67.1298
67.1337
67.1375
67.1412
67.1447
67.1481
67.1514
67.1546
67.1577
67.1607
67.1635
67.1663
67.169
67.1717
67.1742
67.1769
67.1788
67.1826
67.2037
67.2017
67.1977
67.1915
67.1833
67.173
67.1606
67.1462
67.1296
67.1109
67.09
67.067
67.0418
67.0144
66.9847
66.9528
66.9186
66.882
66.8432
66.8019
66.7583
66.7122
66.6637
66.6127
66.5593
66.5033
66.4448
66.3838
66.3202
66.2541
66.1854
66.1142
66.0405
65.9642
65.8855
65.8043
65.7207
65.6348
65.5465
65.456
65.3633
65.2685
65.1717
65.0729
64.9724
64.8701
64.7663
64.661
64.5544
64.4465
64.3376
64.2279
64.1173
64.0061
63.8945
63.7826
63.6705
63.5584
63.4464
63.3348
63.2236
63.113
63.0031
62.8941
62.7861
62.6792
62.5736
62.4693
62.3664
62.2652
62.1656
62.0678
61.9719
61.8779
61.7859
61.6961
61.6085
61.5231
61.4401
61.3595
61.2813
61.2057
61.1328
61.0625
60.995
60.9303
60.8685
60.8096
60.7538
60.7011
60.6515
60.6052
60.5622
60.5226
60.4865
60.4539
60.4248
60.3995
60.3778
60.36
60.346
60.336
60.3298
60.3277
60.3297
60.3357
60.3458
60.3601
60.3785
60.401
60.4277
60.4586
60.4935
60.5326
60.5757
60.6228
60.6739
60.7289
60.7877
60.8503
60.9165
60.9863
61.0595
61.1361
61.216
61.2989
61.3848
61.4735
61.565
61.6589
61.7553
61.8538
61.9544
62.0569
62.1612
62.2669
62.3741
62.4824
62.5918
62.702
62.8129
62.9243
63.0361
63.148
63.2599
63.3716
63.483
63.594
63.7043
63.8139
63.9225
64.0301
64.1366
64.2418
64.3455
64.4477
64.5483
64.647
64.7439
64.8388
64.9316
65.0221
65.1102
65.1959
65.2789
65.3593
65.4369
65.5116
65.5834
65.6523
65.7181
65.781
65.841
65.8981
65.9524
66.0041
66.0532
66.0999
66.1443
66.1865
66.2268
66.2653
66.302
66.3372
66.3709
66.4033
66.4344
66.4643
66.4931
66.5209
66.5476
66.5735
66.5984
66.6225
66.6457
66.6681
66.6897
66.7106
66.7308
66.7502
66.7689
66.7869
66.8043
66.8211
66.8372
66.8527
66.8677
66.8821
66.8959
66.9092
66.9219
66.9342
66.946
66.9574
66.9682
66.9787
66.9887
66.9983
67.0076
67.0165
67.025
67.0331
67.041
67.0485
67.0557
67.0626
67.0692
67.0756
67.0817
67.0875
67.0931
67.0985
67.1037
67.1087
67.1134
67.118
67.1224
67.1266
67.1307
67.1346
67.1384
67.142
67.1455
67.1489
67.1521
67.1553
67.1583
67.1612
67.1641
67.1668
67.1695
67.1721
67.1746
67.1772
67.1791
67.1829
67.2037
67.2017
67.1977
67.1916
67.1834
67.1731
67.1608
67.1464
67.1298
67.1112
67.0904
67.0674
67.0423
67.0149
66.9853
66.9535
66.9193
66.8828
66.8439
66.8027
66.7591
66.713
66.6644
66.6134
66.5599
66.5038
66.4451
66.3839
66.3201
66.2537
66.1848
66.1132
66.0391
65.9624
65.8832
65.8015
65.7174
65.6308
65.5418
65.4506
65.3571
65.2615
65.1638
65.0641
64.9626
64.8594
64.7545
64.6482
64.5405
64.4316
64.3216
64.2107
64.099
63.9867
63.8739
63.7609
63.6477
63.5345
63.4216
63.3089
63.1967
63.0851
62.9743
62.8644
62.7556
62.6478
62.5414
62.4364
62.3328
62.2309
62.1307
62.0323
61.9358
61.8413
61.7488
61.6585
61.5704
61.4845
61.4011
61.32
61.2415
61.1655
61.0921
61.0214
60.9535
60.8884
60.8262
60.767
60.7107
60.6576
60.6077
60.561
60.5176
60.4776
60.4411
60.4081
60.3787
60.353
60.331
60.3129
60.2986
60.2883
60.2819
60.2796
60.2814
60.2873
60.2973
60.3115
60.3299
60.3525
60.3793
60.4103
60.4454
60.4848
60.5282
60.5757
60.6272
60.6826
60.7419
60.8051
60.8719
60.9424
61.0164
61.0938
61.1744
61.2582
61.3451
61.4348
61.5272
61.6222
61.7196
61.8193
61.921
62.0247
62.1301
62.2371
62.3455
62.4551
62.5657
62.6772
62.7893
62.902
63.015
63.1281
63.2412
63.3542
63.4668
63.5789
63.6904
63.801
63.9108
64.0194
64.1269
64.233
64.3377
64.4408
64.5422
64.6418
64.7395
64.8351
64.9286
65.0198
65.1086
65.1949
65.2786
65.3595
65.4377
65.513
65.5853
65.6546
65.7209
65.7842
65.8446
65.9021
65.9567
66.0086
66.058
66.1049
66.1494
66.1919
66.2323
66.2708
66.3076
66.3428
66.3766
66.4089
66.44
66.4699
66.4987
66.5264
66.5531
66.5789
66.6037
66.6277
66.6509
66.6732
66.6947
66.7155
66.7355
66.7549
66.7735
66.7914
66.8087
66.8253
66.8413
66.8568
66.8716
66.8858
66.8996
66.9127
66.9254
66.9376
66.9493
66.9605
66.9713
66.9816
66.9915
67.0011
67.0102
67.019
67.0274
67.0355
67.0432
67.0506
67.0577
67.0646
67.0711
67.0774
67.0834
67.0892
67.0947
67.1001
67.1052
67.1101
67.1148
67.1193
67.1236
67.1278
67.1318
67.1357
67.1394
67.1429
67.1464
67.1497
67.1529
67.156
67.159
67.1619
67.1647
67.1674
67.17
67.1726
67.175
67.1777
67.1795
67.1832
67.2037
67.2017
67.1977
67.1916
67.1835
67.1733
67.161
67.1466
67.1302
67.1116
67.0909
67.068
67.0429
67.0156
66.9861
66.9543
66.9202
66.8837
66.8449
66.8037
66.7601
66.714
66.6654
66.6143
66.5606
66.5044
66.4456
66.3842
66.3202
66.2535
66.1842
66.1123
66.0377
65.9606
65.8808
65.7985
65.7137
65.6264
65.5366
65.4446
65.3502
65.2536
65.1549
65.0542
64.9516
64.8473
64.7412
64.6337
64.5247
64.4145
64.3033
64.191
64.0781
63.9645
63.8504
63.7361
63.6217
63.5073
63.3931
63.2792
63.1659
63.0532
62.9414
62.8304
62.7206
62.6119
62.5046
62.3987
62.2944
62.1917
62.0908
61.9917
61.8946
61.7994
61.7064
61.6155
61.5268
61.4405
61.3565
61.275
61.196
61.1195
61.0457
60.9746
60.9062
60.8407
60.778
60.7183
60.6616
60.6081
60.5577
60.5105
60.4667
60.4262
60.3892
60.3558
60.326
60.2999
60.2775
60.259
60.2444
60.2338
60.2271
60.2246
60.2262
60.2319
60.2418
60.256
60.2744
60.297
60.3239
60.355
60.3904
60.43
60.4738
60.5216
60.5736
60.6296
60.6895
60.7533
60.8209
60.8921
60.967
61.0452
61.1268
61.2117
61.2995
61.3904
61.4839
61.5801
61.6788
61.7797
61.8828
61.9878
62.0946
62.203
62.3128
62.4238
62.5359
62.6488
62.7624
62.8765
62.9909
63.1055
63.22
63.3344
63.4483
63.5618
63.6746
63.7865
63.8975
64.0073
64.1159
64.2232
64.3289
64.433
64.5354
64.636
64.7345
64.831
64.9253
65.0173
65.1069
65.1939
65.2783
65.3599
65.4387
65.5146
65.5875
65.6574
65.7242
65.788
65.8488
65.9066
65.9616
66.0139
66.0635
66.1106
66.1554
66.198
66.2385
66.2772
66.314
66.3493
66.3831
66.4154
66.4465
66.4764
66.5051
66.5327
66.5594
66.5851
66.6099
66.6337
66.6568
66.679
66.7004
66.7211
66.741
66.7602
66.7787
66.7965
66.8137
66.8302
66.8461
66.8614
66.8761
66.8902
66.9038
66.9168
66.9294
66.9414
66.953
66.9641
66.9747
66.9849
66.9947
67.0042
67.0132
67.0219
67.0302
67.0381
67.0458
67.0531
67.0601
67.0668
67.0733
67.0795
67.0854
67.0911
67.0966
67.1018
67.1068
67.1117
67.1163
67.1207
67.125
67.1291
67.1331
67.1369
67.1405
67.144
67.1474
67.1507
67.1538
67.1569
67.1598
67.1626
67.1654
67.168
67.1706
67.1732
67.1755
67.1781
67.1799
67.1836
67.2037
67.2017
67.1978
67.1917
67.1836
67.1734
67.1612
67.1469
67.1305
67.112
67.0914
67.0686
67.0436
67.0164
66.987
66.9552
66.9212
66.8848
66.8461
66.8049
66.7613
66.7152
66.6665
66.6154
66.5616
66.5053
66.4463
66.3847
66.3204
66.2534
66.1837
66.1114
66.0364
65.9587
65.8783
65.7953
65.7097
65.6216
65.531
65.438
65.3426
65.245
65.1452
65.0433
64.9394
64.8338
64.7264
64.6174
64.5071
64.3955
64.2827
64.169
64.0546
63.9395
63.824
63.7083
63.5924
63.4766
63.361
63.2458
63.1312
63.0173
62.9042
62.7921
62.6812
62.5715
62.4632
62.3563
62.2511
62.1476
62.0459
61.946
61.8482
61.7523
61.6586
61.5671
61.4779
61.391
61.3065
61.2245
61.1449
61.068
60.9936
60.922
60.8531
60.7871
60.7239
60.6637
60.6065
60.5524
60.5015
60.4538
60.4095
60.3685
60.331
60.2971
60.2668
60.2402
60.2174
60.1985
60.1835
60.1725
60.1655
60.1627
60.164
60.1695
60.1793
60.1934
60.2118
60.2345
60.2615
60.2928
60.3284
60.3683
60.4124
60.4608
60.5133
60.5698
60.6304
60.695
60.7633
60.8355
60.9112
60.9905
61.0732
61.1591
61.2482
61.3403
61.4352
61.5327
61.6328
61.7352
61.8397
61.9463
62.0546
62.1646
62.276
62.3886
62.5023
62.6169
62.7321
62.8478
62.9639
63.0801
63.1962
63.3121
63.4277
63.5426
63.6569
63.7703
63.8826
63.9938
64.1038
64.2123
64.3192
64.4245
64.528
64.6296
64.7292
64.8266
64.9218
65.0147
65.1051
65.193
65.2781
65.3605
65.44
65.5166
65.5901
65.6606
65.728
65.7923
65.8536
65.9119
65.9673
66.0199
66.0698
66.1172
66.1622
66.2049
66.2456
66.2844
66.3213
66.3566
66.3904
66.4228
66.4538
66.4836
66.5123
66.5399
66.5665
66.5921
66.6168
66.6405
66.6635
66.6856
66.7069
66.7274
66.7472
66.7663
66.7846
66.8023
66.8193
66.8357
66.8514
66.8665
66.8811
66.8951
66.9085
66.9214
66.9338
66.9457
66.9571
66.9681
66.9786
66.9887
66.9984
67.0076
67.0165
67.0251
67.0333
67.0411
67.0486
67.0558
67.0628
67.0694
67.0757
67.0818
67.0877
67.0933
67.0986
67.1038
67.1087
67.1135
67.118
67.1224
67.1266
67.1306
67.1345
67.1382
67.1418
67.1452
67.1485
67.1517
67.1548
67.1578
67.1607
67.1635
67.1662
67.1688
67.1713
67.1738
67.1761
67.1787
67.1804
67.184
67.2037
67.2018
67.1978
67.1918
67.1837
67.1736
67.1615
67.1473
67.131
67.1126
67.092
67.0693
67.0445
67.0174
66.988
66.9564
66.9225
66.8862
66.8475
66.8063
66.7627
66.7166
66.668
66.6168
66.5629
66.5064
66.4473
66.3854
66.3208
66.2535
66.1835
66.1107
66.0351
65.9568
65.8758
65.792
65.7056
65.6166
65.5251
65.431
65.3345
65.2356
65.1345
65.0313
64.9261
64.8189
64.7101
64.5996
64.4876
64.3744
64.26
64.1447
64.0286
63.9118
63.7947
63.6773
63.5598
63.4424
63.3253
63.2086
63.0926
62.9773
62.8628
62.7495
62.6373
62.5265
62.417
62.3092
62.203
62.0985
61.9959
61.8952
61.7966
61.7
61.6056
61.5135
61.4236
61.3361
61.251
61.1684
61.0883
61.0107
60.9359
60.8637
60.7942
60.7276
60.6639
60.6031
60.5454
60.4907
60.4392
60.391
60.346
60.3045
60.2664
60.2319
60.2011
60.174
60.1506
60.1312
60.1158
60.1043
60.097
60.0938
60.0949
60.1002
60.1098
60.1238
60.1421
60.1649
60.192
60.2235
60.2594
60.2996
60.3441
60.393
60.4461
60.5033
60.5646
60.63
60.6992
60.7723
60.8492
60.9296
61.0134
61.1007
61.1911
61.2845
61.3809
61.4799
61.5816
61.6856
61.7918
61.9
62.0101
62.1218
62.235
62.3495
62.465
62.5814
62.6985
62.816
62.9339
63.0519
63.1698
63.2875
63.4048
63.5215
63.6374
63.7524
63.8663
63.9791
64.0904
64.2003
64.3086
64.4152
64.52
64.6227
64.7234
64.822
64.9182
65.0121
65.1034
65.1922
65.2782
65.3614
65.4417
65.519
65.5933
65.6644
65.7324
65.7973
65.8591
65.9179
65.9737
66.0267
66.0769
66.1246
66.1698
66.2127
66.2536
66.2924
66.3295
66.3648
66.3986
66.431
66.462
66.4918
66.5204
66.5479
66.5744
66.5999
66.6245
66.6481
66.6709
66.6929
66.7141
66.7344
66.7541
66.773
66.7912
66.8087
66.8255
66.8417
66.8573
66.8723
66.8867
66.9005
66.9137
66.9265
66.9387
66.9505
66.9617
66.9725
66.9829
66.9928
67.0024
67.0115
67.0203
67.0287
67.0367
67.0444
67.0518
67.0589
67.0657
67.0722
67.0784
67.0844
67.0901
67.0956
67.1009
67.106
67.1108
67.1154
67.1199
67.1242
67.1283
67.1322
67.136
67.1397
67.1432
67.1466
67.1498
67.1529
67.1559
67.1589
67.1617
67.1644
67.167
67.1696
67.1721
67.1745
67.1768
67.1792
67.181
67.1845
67.2037
67.2018
67.1978
67.1919
67.1839
67.1738
67.1618
67.1477
67.1315
67.1132
67.0928
67.0702
67.0455
67.0185
66.9893
66.9578
66.9239
66.8877
66.8491
66.8081
66.7645
66.7184
66.6698
66.6185
66.5646
66.5079
66.4486
66.3865
66.3216
66.254
66.1835
66.1102
66.034
65.9551
65.8733
65.7888
65.7015
65.6115
65.5188
65.4236
65.3258
65.2256
65.1231
65.0184
64.9116
64.8029
64.6923
64.5801
64.4664
64.3513
64.2351
64.1179
64
63.8814
63.7624
63.6432
63.5239
63.4048
63.286
63.1677
63.05
62.9331
62.8172
62.7025
62.589
62.4768
62.3662
62.2572
62.1499
62.0444
61.9409
61.8393
61.7398
61.6425
61.5473
61.4545
61.3639
61.2758
61.19
61.1068
61.0261
60.948
60.8725
60.7997
60.7297
60.6625
60.5981
60.5367
60.4784
60.4231
60.3709
60.322
60.2764
60.2342
60.1955
60.1604
60.1289
60.1012
60.0773
60.0573
60.0413
60.0294
60.0217
60.0181
60.0188
60.0239
60.0333
60.0472
60.0655
60.0882
60.1154
60.1471
60.1833
60.2239
60.2689
60.3182
60.3719
60.4299
60.492
60.5583
60.6285
60.7027
60.7807
60.8623
60.9475
61.0361
61.128
61.223
61.321
61.4217
61.5251
61.6309
61.7389
61.849
61.9611
62.0747
62.1899
62.3064
62.4239
62.5424
62.6615
62.7811
62.901
63.021
63.1409
63.2606
63.3798
63.4983
63.6161
63.7329
63.8486
63.963
64.076
64.1875
64.2973
64.4053
64.5114
64.6155
64.7174
64.8172
64.9145
65.0095
65.1019
65.1916
65.2786
65.3627
65.4438
65.5219
65.5969
65.6688
65.7375
65.803
65.8654
65.9246
65.9809
66.0343
66.0849
66.1328
66.1783
66.2214
66.2624
66.3014
66.3385
66.3739
66.4077
66.44
66.471
66.5008
66.5293
66.5567
66.5831
66.6085
66.633
66.6565
66.6791
66.701
66.722
66.7422
66.7617
66.7804
66.7984
66.8157
66.8324
66.8484
66.8638
66.8786
66.8928
66.9064
66.9195
66.9321
66.9441
66.9557
66.9668
66.9774
66.9876
66.9974
67.0068
67.0157
67.0244
67.0326
67.0405
67.0481
67.0553
67.0623
67.0689
67.0753
67.0814
67.0873
67.0929
67.0982
67.1034
67.1083
67.1131
67.1176
67.122
67.1262
67.1302
67.134
67.1377
67.1413
67.1447
67.148
67.1512
67.1542
67.1572
67.16
67.1628
67.1654
67.168
67.1705
67.1729
67.1753
67.1775
67.1799
67.1816
67.185
67.2037
67.2018
67.1979
67.192
67.184
67.1741
67.1621
67.1481
67.132
67.1139
67.0936
67.0712
67.0466
67.0198
66.9907
66.9594
66.9257
66.8896
66.8511
66.8101
66.7666
66.7206
66.6719
66.6206
66.5666
66.5098
66.4503
66.388
66.3228
66.2548
66.1838
66.11
66.0333
65.9536
65.871
65.7856
65.6973
65.6063
65.5124
65.4159
65.3168
65.2151
65.1111
65.0047
64.8962
64.7857
64.6732
64.5591
64.4434
64.3264
64.2081
64.0889
63.9689
63.8483
63.7272
63.606
63.4848
63.3637
63.243
63.1229
63.0034
62.8849
62.7674
62.6511
62.5361
62.4226
62.3107
62.2004
62.092
61.9854
61.8809
61.7783
61.678
61.5798
61.4838
61.3902
61.2989
61.2101
61.1237
61.0398
60.9584
60.8797
60.8036
60.7301
60.6595
60.5916
60.5266
60.4646
60.4055
60.3495
60.2966
60.247
60.2007
60.1578
60.1183
60.0825
60.0503
60.0219
59.9974
59.9768
59.9602
59.9477
59.9395
59.9355
59.9359
59.9406
59.9498
59.9635
59.9817
60.0045
60.0318
60.0637
60.1001
60.1411
60.1866
60.2365
60.2909
60.3496
60.4127
60.4799
60.5512
60.6265
60.7058
60.7888
60.8754
60.9655
61.059
61.1557
61.2554
61.358
61.4633
61.5711
61.6811
61.7933
61.9075
62.0233
62.1407
62.2593
62.3791
62.4998
62.6212
62.743
62.8652
62.9874
63.1095
63.2313
63.3527
63.4733
63.5931
63.7119
63.8295
63.9458
64.0606
64.1738
64.2852
64.3948
64.5024
64.6079
64.7112
64.8123
64.9109
65.007
65.1005
65.1913
65.2793
65.3643
65.4464
65.5254
65.6012
65.6738
65.7432
65.8094
65.8724
65.9322
65.9889
66.0427
66.0937
66.1419
66.1876
66.231
66.2721
66.3112
66.3484
66.3839
66.4177
66.45
66.481
66.5106
66.5391
66.5664
66.5927
66.618
66.6423
66.6656
66.6881
66.7098
66.7306
66.7507
66.7699
66.7885
66.8063
66.8234
66.8399
66.8557
66.8709
66.8855
66.8995
66.9129
66.9258
66.9382
66.95
66.9614
66.9723
66.9828
66.9928
67.0024
67.0116
67.0204
67.0288
67.0369
67.0446
67.052
67.0591
67.0659
67.0724
67.0787
67.0846
67.0903
67.0958
67.1011
67.1061
67.1109
67.1155
67.12
67.1242
67.1283
67.1322
67.136
67.1396
67.143
67.1464
67.1496
67.1527
67.1556
67.1585
67.1613
67.1639
67.1665
67.169
67.1714
67.1738
67.1761
67.1782
67.1806
67.1822
67.1855
67.2037
67.2018
67.198
67.1921
67.1842
67.1744
67.1625
67.1486
67.1327
67.1147
67.0946
67.0723
67.0479
67.0213
66.9924
66.9612
66.9277
66.8917
66.8534
66.8125
66.7691
66.7231
66.6745
66.6232
66.5691
66.5122
66.4525
66.39
66.3245
66.2561
66.1847
66.1103
66.0329
65.9525
65.8691
65.7827
65.6933
65.6011
65.506
65.4081
65.3075
65.2042
65.0984
64.9903
64.8799
64.7674
64.6529
64.5366
64.4188
64.2995
64.179
64.0576
63.9353
63.8124
63.6891
63.5657
63.4423
63.3191
63.1964
63.0742
62.9529
62.8325
62.7132
62.5953
62.4787
62.3637
62.2504
62.1388
62.0291
61.9214
61.8158
61.7122
61.6109
61.5118
61.4151
61.3206
61.2286
61.139
61.052
60.9674
60.8854
60.8059
60.7292
60.6551
60.5837
60.5152
60.4495
60.3867
60.3269
60.2701
60.2165
60.1661
60.119
60.0752
60.035
59.9984
59.9654
59.9362
59.9109
59.8896
59.8724
59.8593
59.8505
59.846
59.8459
59.8503
59.8592
59.8727
59.8908
59.9136
59.941
59.9731
60.0098
60.0512
60.0972
60.1478
60.2029
60.2624
60.3264
60.3947
60.4672
60.5438
60.6244
60.7088
60.7971
60.8889
60.9841
61.0826
61.1843
61.2889
61.3962
61.5061
61.6184
61.7329
61.8493
61.9675
62.0872
62.2083
62.3306
62.4537
62.5775
62.7019
62.8265
62.9511
63.0757
63.1998
63.3235
63.4464
63.5685
63.6894
63.8091
63.9274
64.0442
64.1593
64.2725
64.3838
64.4931
64.6002
64.705
64.8074
64.9073
65.0047
65.0994
65.1913
65.2804
65.3665
65.4495
65.5294
65.6061
65.6796
65.7497
65.8166
65.8802
65.9406
65.9978
66.052
66.1034
66.152
66.1979
66.2415
66.2828
66.322
66.3593
66.3948
66.4286
66.4609
66.4918
66.5214
66.5498
66.577
66.6031
66.6283
66.6524
66.6756
66.6979
66.7194
66.74
66.7599
66.7789
66.7973
66.8149
66.8318
66.848
66.8636
66.8786
66.893
66.9068
66.92
66.9326
66.9448
66.9564
66.9676
66.9783
66.9885
66.9983
67.0077
67.0167
67.0253
67.0336
67.0415
67.049
67.0563
67.0632
67.0698
67.0762
67.0823
67.0881
67.0937
67.099
67.1041
67.109
67.1137
67.1182
67.1225
67.1266
67.1306
67.1344
67.1381
67.1416
67.1449
67.1482
67.1513
67.1543
67.1572
67.1599
67.1626
67.1652
67.1677
67.1701
67.1725
67.1747
67.177
67.179
67.1813
67.1829
67.1861
67.2037
67.2018
67.198
67.1922
67.1844
67.1747
67.163
67.1492
67.1335
67.1156
67.0957
67.0737
67.0494
67.023
66.9943
66.9633
66.93
66.8942
66.8561
66.8153
66.7721
66.7262
66.6776
66.6263
66.5722
66.5152
66.4553
66.3925
66.3268
66.2579
66.186
66.1111
66.033
65.9518
65.8675
65.7801
65.6896
65.5961
65.4996
65.4002
65.298
65.193
65.0854
64.9752
64.8628
64.7481
64.6314
64.5128
64.3926
64.2709
64.1479
64.024
63.8992
63.7739
63.6481
63.5223
63.3965
63.271
63.146
63.0217
62.8983
62.7759
62.6548
62.535
62.4167
62.3001
62.1853
62.0723
61.9614
61.8524
61.7456
61.6411
61.5388
61.4388
61.3411
61.2459
61.1531
61.0628
60.975
60.8897
60.807
60.7269
60.6494
60.5746
60.5026
60.4333
60.3668
60.3032
60.2426
60.185
60.1306
60.0793
60.0313
59.9867
59.9456
59.908
59.8742
59.8442
59.8181
59.796
59.778
59.7642
59.7547
59.7497
59.7491
59.7531
59.7617
59.7749