/*--------------------------------*- C++ -*----------------------------------*\
| =========                 |                                                 |
| \\      /  F ield         | OpenFOAM: The Open Source CFD Toolbox           |
|  \\    /   O peration     | Version:  2306                                  |
|   \\  /    A nd           | Website:  www.openfoam.com                      |
|    \\/     M anipulation  |                                                 |
\*---------------------------------------------------------------------------*/
FoamFile
{
    version     2.0;
    format      ascii;
    arch        "LSB;label=32;scalar=64";
    class       volScalarField;
    location    "4.5";
    object      p;
}
// * * * * * * * * * * * * * * * * * * * * * * * * * * * * * * * * * * * * * //

dimensions      [0 2 -2 0 0 0 0];

internalField   nonuniform List<scalar> 
32768
(
0.264206
0.264072
0.263782
0.263323
0.262698
0.261908
0.260954
0.259834
0.258545
0.257087
0.255456
0.25365
0.251668
0.249507
0.247164
0.244636
0.24192
0.239013
0.235912
0.232613
0.229113
0.225408
0.221496
0.217373
0.213035
0.208479
0.203701
0.1987
0.193471
0.188013
0.182323
0.176398
0.170238
0.16384
0.157205
0.15033
0.143217
0.135866
0.128279
0.120456
0.112401
0.104116
0.0956058
0.0868745
0.0779275
0.0687708
0.059411
0.0498557
0.0401131
0.030192
0.0201021
0.00985355
-0.000542835
-0.0110757
-0.021733
-0.0325025
-0.0433714
-0.0543264
-0.0653543
-0.0764412
-0.0875734
-0.0987368
-0.109917
-0.121101
-0.132274
-0.143422
-0.154531
-0.165588
-0.176579
-0.18749
-0.19831
-0.209024
-0.219621
-0.230088
-0.240414
-0.250585
-0.260592
-0.270422
-0.280065
-0.289509
-0.298744
-0.30776
-0.316546
-0.325092
-0.333387
-0.341423
-0.349188
-0.356674
-0.363871
-0.370769
-0.377359
-0.383633
-0.38958
-0.395193
-0.400464
-0.405383
-0.409944
-0.414139
-0.417962
-0.421405
-0.424465
-0.427135
-0.429411
-0.43129
-0.432768
-0.433845
-0.434518
-0.434789
-0.434657
-0.434125
-0.433195
-0.431871
-0.430159
-0.428063
-0.425592
-0.422753
-0.419555
-0.416009
-0.412124
-0.407912
-0.403386
-0.39856
-0.393447
-0.388062
-0.38242
-0.376537
-0.370429
-0.364113
-0.357605
-0.350922
-0.344082
-0.337102
-0.329998
-0.322789
-0.315491
-0.30812
-0.300694
-0.293228
-0.285738
-0.278238
-0.270744
-0.26327
-0.25583
-0.248435
-0.241098
-0.233831
-0.226644
-0.219547
-0.212551
-0.205662
-0.198889
-0.192239
-0.185719
-0.179333
-0.173087
-0.166985
-0.161031
-0.155226
-0.149574
-0.144075
-0.138731
-0.133541
-0.128506
-0.123624
-0.118893
-0.114313
-0.109881
-0.105593
-0.101447
-0.0974409
-0.0935699
-0.089831
-0.0862208
-0.0827357
-0.0793723
-0.0761272
-0.072997
-0.0699784
-0.0670684
-0.0642637
-0.0615614
-0.0589587
-0.0564525
-0.0540403
-0.0517193
-0.0494867
-0.04734
-0.0452767
-0.0432941
-0.0413899
-0.0395614
-0.0378063
-0.0361222
-0.0345067
-0.0329575
-0.0314723
-0.0300488
-0.0286849
-0.0273783
-0.026127
-0.0249289
-0.0237819
-0.022684
-0.0216335
-0.0206283
-0.0196666
-0.0187468
-0.017867
-0.0170257
-0.0162212
-0.0154519
-0.0147163
-0.014013
-0.0133406
-0.0126978
-0.0120831
-0.0114954
-0.0109334
-0.0103959
-0.0098819
-0.0093902
-0.00891979
-0.00846964
-0.0080388
-0.00762632
-0.0072313
-0.00685288
-0.00649021
-0.00614251
-0.00580899
-0.0054889
-0.00518154
-0.0048862
-0.00460223
-0.00432897
-0.00406581
-0.00381214
-0.00356739
-0.00333099
-0.00310241
-0.00288111
-0.00266658
-0.00245833
-0.00225587
-0.00205874
-0.00186648
-0.00167863
-0.00149479
-0.00131445
-0.00113735
-0.000962713
-0.000791024
-0.000619695
-0.000453574
-0.000278872
-0.000123671
0.264368
0.264234
0.263944
0.263485
0.262861
0.262072
0.261119
0.259999
0.258712
0.257254
0.255624
0.25382
0.251839
0.249679
0.247337
0.24481
0.242095
0.239189
0.236089
0.232791
0.229292
0.225589
0.221677
0.217554
0.213216
0.20866
0.203882
0.19888
0.19365
0.188191
0.182498
0.176572
0.170408
0.164007
0.157368
0.150489
0.143371
0.136014
0.12842
0.12059
0.112528
0.104235
0.0957158
0.0869752
0.0780182
0.068851
0.0594803
0.0499135
0.040159
0.0302257
0.0201231
0.00986166
-0.000547855
-0.011094
-0.0217647
-0.0325477
-0.0434299
-0.0543984
-0.0654395
-0.0765394
-0.0876844
-0.0988604
-0.110053
-0.121249
-0.132433
-0.143592
-0.154712
-0.165779
-0.176779
-0.1877
-0.198529
-0.209252
-0.219857
-0.230332
-0.240664
-0.250843
-0.260856
-0.270693
-0.280342
-0.289792
-0.299033
-0.308055
-0.316846
-0.325397
-0.333698
-0.341739
-0.34951
-0.357001
-0.364204
-0.371107
-0.377703
-0.383981
-0.389934
-0.395552
-0.400828
-0.405752
-0.410318
-0.414517
-0.418344
-0.421792
-0.424855
-0.427529
-0.429808
-0.431689
-0.43317
-0.434248
-0.434923
-0.435194
-0.435062
-0.434529
-0.433597
-0.432272
-0.430557
-0.428458
-0.425983
-0.42314
-0.419936
-0.416384
-0.412492
-0.408273
-0.40374
-0.398905
-0.393783
-0.388389
-0.382737
-0.376843
-0.370725
-0.364397
-0.357877
-0.351183
-0.34433
-0.337338
-0.330222
-0.323
-0.315689
-0.308305
-0.300866
-0.293387
-0.285884
-0.278372
-0.270866
-0.263379
-0.255926
-0.24852
-0.241171
-0.233893
-0.226695
-0.219588
-0.212581
-0.205683
-0.198901
-0.192242
-0.185713
-0.17932
-0.173066
-0.166957
-0.160996
-0.155185
-0.149527
-0.144023
-0.138674
-0.13348
-0.12844
-0.123555
-0.118821
-0.114238
-0.109803
-0.105514
-0.101366
-0.0973583
-0.0934862
-0.0897466
-0.0861358
-0.0826505
-0.0792872
-0.0760423
-0.0729126
-0.0698947
-0.0669854
-0.0641818
-0.0614806
-0.0588791
-0.0563744
-0.0539636
-0.0516441
-0.0494132
-0.0472682
-0.0452066
-0.0432258
-0.0413233
-0.0394967
-0.0377434
-0.0360611
-0.0344475
-0.0329001
-0.0314167
-0.029995
-0.0286329
-0.0273281
-0.0260785
-0.024882
-0.0237367
-0.0226405
-0.0215916
-0.0205879
-0.0196278
-0.0187095
-0.0178312
-0.0169913
-0.0161881
-0.0154202
-0.0146859
-0.0139839
-0.0133127
-0.012671
-0.0120575
-0.0114709
-0.01091
-0.0103736
-0.00986056
-0.00936984
-0.00890036
-0.00845113
-0.00802116
-0.00760952
-0.00721532
-0.00683768
-0.00647578
-0.0061288
-0.00579599
-0.00547659
-0.00516989
-0.00487519
-0.00459183
-0.00431917
-0.00405659
-0.00380348
-0.00355927
-0.0033234
-0.00309532
-0.00287452
-0.00266048
-0.0024527
-0.0022507
-0.00205402
-0.00186219
-0.00167477
-0.00149135
-0.00131142
-0.00113473
-0.000960486
-0.000789212
-0.000618206
-0.000452574
-0.000277909
-0.000123908
0.264692
0.264559
0.264268
0.263811
0.263187
0.2624
0.261448
0.26033
0.259044
0.257588
0.25596
0.254159
0.25218
0.250023
0.247683
0.245159
0.242447
0.239543
0.236445
0.23315
0.229652
0.22595
0.22204
0.217918
0.21358
0.209024
0.204245
0.199241
0.19401
0.188547
0.182851
0.176919
0.17075
0.164342
0.157695
0.150807
0.143678
0.13631
0.128704
0.12086
0.112782
0.104473
0.0959366
0.0871772
0.0782004
0.0690121
0.0596193
0.0500296
0.0402512
0.0302932
0.0201653
0.0098779
-0.000557964
-0.0111308
-0.0218284
-0.0326383
-0.0435476
-0.0545428
-0.0656104
-0.0767366
-0.0879073
-0.0991083
-0.110326
-0.121545
-0.132752
-0.143933
-0.155075
-0.166162
-0.177182
-0.188122
-0.198968
-0.209708
-0.220329
-0.23082
-0.241167
-0.25136
-0.261387
-0.271236
-0.280897
-0.29036
-0.299612
-0.308645
-0.317448
-0.32601
-0.334322
-0.342374
-0.350155
-0.357657
-0.36487
-0.371784
-0.378391
-0.38468
-0.390643
-0.396272
-0.401557
-0.406491
-0.411067
-0.415276
-0.419111
-0.422567
-0.425638
-0.428318
-0.430604
-0.43249
-0.433975
-0.435057
-0.435734
-0.436006
-0.435874
-0.435339
-0.434405
-0.433076
-0.431356
-0.429251
-0.426768
-0.423915
-0.420701
-0.417136
-0.413231
-0.408998
-0.404449
-0.399597
-0.394457
-0.389044
-0.383372
-0.377458
-0.371317
-0.364967
-0.358424
-0.351705
-0.344828
-0.337811
-0.33067
-0.323422
-0.316085
-0.308676
-0.301211
-0.293706
-0.286177
-0.27864
-0.271109
-0.263598
-0.25612
-0.24869
-0.241319
-0.234018
-0.226798
-0.21967
-0.212643
-0.205725
-0.198924
-0.192248
-0.185702
-0.179293
-0.173024
-0.166901
-0.160926
-0.155103
-0.149434
-0.143919
-0.13856
-0.133357
-0.12831
-0.123417
-0.118677
-0.114088
-0.109648
-0.105354
-0.101204
-0.0971928
-0.0933185
-0.0895773
-0.0859656
-0.0824799
-0.0791166
-0.0758722
-0.0727434
-0.0697268
-0.0668193
-0.0640176
-0.0613188
-0.0587198
-0.0562178
-0.05381
-0.0514936
-0.0492659
-0.0471243
-0.0450662
-0.0430889
-0.04119
-0.039367
-0.0376174
-0.0359388
-0.0343288
-0.0327851
-0.0313053
-0.0298873
-0.0285287
-0.0272274
-0.0259813
-0.0247883
-0.0236463
-0.0225534
-0.0215077
-0.0205072
-0.0195502
-0.0186348
-0.0177594
-0.0169224
-0.016122
-0.0153567
-0.0146251
-0.0139256
-0.0132569
-0.0126176
-0.0120063
-0.011422
-0.0108632
-0.0103289
-0.00981785
-0.00932907
-0.00886148
-0.00841405
-0.00798583
-0.00757589
-0.00718332
-0.00680725
-0.00644687
-0.00610137
-0.00576997
-0.00545194
-0.00514656
-0.00485314
-0.00457101
-0.00429955
-0.00403812
-0.00378613
-0.00354301
-0.00330819
-0.00308114
-0.00286133
-0.00264825
-0.00244141
-0.00224034
-0.00204455
-0.0018536
-0.00166704
-0.00148446
-0.00130536
-0.00112949
-0.00095604
-0.000785557
-0.000615328
-0.000450482
-0.000276603
-0.000123497
0.265177
0.265044
0.264755
0.264298
0.263676
0.262891
0.261941
0.260826
0.259543
0.25809
0.256465
0.254667
0.252692
0.250539
0.248203
0.245682
0.242974
0.240074
0.23698
0.233687
0.230193
0.226493
0.222584
0.218463
0.214126
0.20957
0.20479
0.199784
0.194549
0.189082
0.18338
0.177441
0.171264
0.164846
0.158186
0.151285
0.144141
0.136756
0.12913
0.121266
0.113165
0.104832
0.0962687
0.087481
0.0784742
0.0692543
0.0598283
0.0502039
0.0403895
0.0303943
0.0202283
0.0099019
-0.000573672
-0.0111867
-0.0219248
-0.0327754
-0.0437252
-0.0547608
-0.0658684
-0.0770339
-0.0882433
-0.0994821
-0.110736
-0.121991
-0.133233
-0.144448
-0.155621
-0.166739
-0.177789
-0.188756
-0.199629
-0.210395
-0.22104
-0.231553
-0.241923
-0.252137
-0.262183
-0.272052
-0.281732
-0.291212
-0.300482
-0.309532
-0.318352
-0.32693
-0.335259
-0.343327
-0.351124
-0.358643
-0.365871
-0.372802
-0.379424
-0.385729
-0.391708
-0.397352
-0.402653
-0.407602
-0.412192
-0.416415
-0.420264
-0.423732
-0.426815
-0.429505
-0.4318
-0.433695
-0.435186
-0.436273
-0.436953
-0.437227
-0.437095
-0.436558
-0.435621
-0.434285
-0.432557
-0.430442
-0.427947
-0.42508
-0.421851
-0.418268
-0.414343
-0.410088
-0.405515
-0.400638
-0.395472
-0.390029
-0.384327
-0.378381
-0.372208
-0.365824
-0.359246
-0.352491
-0.345578
-0.338522
-0.331343
-0.324057
-0.316682
-0.309234
-0.30173
-0.294186
-0.286619
-0.279043
-0.271474
-0.263926
-0.256412
-0.248946
-0.24154
-0.234205
-0.226953
-0.219793
-0.212735
-0.205788
-0.198959
-0.192256
-0.185685
-0.179251
-0.17296
-0.166816
-0.160821
-0.15498
-0.149293
-0.143762
-0.138389
-0.133172
-0.128113
-0.123209
-0.11846
-0.113862
-0.109415
-0.105115
-0.100959
-0.0969441
-0.0930666
-0.0893231
-0.0857099
-0.0822235
-0.0788603
-0.0756167
-0.0724894
-0.0694748
-0.0665698
-0.0637712
-0.0610758
-0.0584807
-0.0559829
-0.0535795
-0.0512678
-0.049045
-0.0469085
-0.0448555
-0.0428836
-0.0409901
-0.0391725
-0.0374284
-0.0357554
-0.0341509
-0.0326127
-0.0311384
-0.0297257
-0.0283725
-0.0270765
-0.0258356
-0.0246477
-0.0235108
-0.0224228
-0.0213819
-0.0203862
-0.0194338
-0.0185229
-0.0176519
-0.0168191
-0.0160229
-0.0152616
-0.0145339
-0.0138382
-0.0131732
-0.0125374
-0.0119297
-0.0113486
-0.0107931
-0.0102619
-0.00975389
-0.00926803
-0.00880324
-0.00835854
-0.00793294
-0.00752553
-0.0071354
-0.0067617
-0.00640359
-0.00606029
-0.00573101
-0.00541503
-0.00511163
-0.00482012
-0.00453985
-0.00427017
-0.00401048
-0.00376017
-0.00351867
-0.00328543
-0.00305991
-0.00284158
-0.00262995
-0.00242452
-0.00222482
-0.00203038
-0.00184074
-0.00165547
-0.00147415
-0.00129629
-0.00112163
-0.000949389
-0.000780092
-0.000611046
-0.00044736
-0.000274694
-0.000122679
0.265824
0.265692
0.265403
0.264948
0.264328
0.263545
0.262598
0.261486
0.260207
0.258758
0.257138
0.255345
0.253375
0.251226
0.248896
0.246381
0.243677
0.240782
0.237692
0.234404
0.230914
0.227217
0.223311
0.219192
0.214856
0.210299
0.205518
0.200509
0.19527
0.189797
0.184088
0.178139
0.17195
0.165519
0.158844
0.151924
0.14476
0.137352
0.129701
0.121809
0.113678
0.105312
0.0967131
0.0878877
0.0788407
0.0695783
0.0601078
0.0504369
0.0405743
0.0305293
0.020312
0.00993325
-0.000595596
-0.0112625
-0.022055
-0.0329601
-0.0439644
-0.0550541
-0.0662152
-0.0774335
-0.0886946
-0.0999841
-0.111287
-0.12259
-0.133878
-0.145137
-0.156353
-0.167512
-0.178601
-0.189606
-0.200515
-0.211314
-0.221992
-0.232536
-0.242934
-0.253176
-0.263249
-0.273143
-0.282848
-0.292352
-0.301645
-0.310718
-0.319559
-0.32816
-0.33651
-0.3446
-0.352419
-0.359959
-0.367209
-0.374161
-0.380804
-0.387131
-0.393131
-0.398796
-0.404117
-0.409087
-0.413696
-0.417938
-0.421805
-0.42529
-0.428388
-0.431093
-0.4334
-0.435305
-0.436806
-0.4379
-0.438585
-0.438861
-0.438729
-0.43819
-0.437247
-0.435904
-0.434165
-0.432037
-0.429526
-0.426641
-0.42339
-0.419783
-0.415832
-0.411548
-0.406943
-0.402032
-0.396829
-0.391349
-0.385606
-0.379618
-0.373401
-0.366971
-0.360346
-0.353543
-0.34658
-0.339475
-0.332245
-0.324908
-0.31748
-0.30998
-0.302424
-0.294828
-0.287209
-0.279582
-0.271963
-0.264365
-0.256802
-0.249288
-0.241835
-0.234455
-0.227159
-0.219957
-0.212858
-0.205872
-0.199006
-0.192267
-0.185662
-0.179196
-0.172874
-0.166701
-0.16068
-0.154814
-0.149104
-0.143552
-0.138159
-0.132925
-0.127849
-0.122931
-0.118169
-0.11356
-0.109103
-0.104795
-0.100632
-0.0966116
-0.0927298
-0.0889832
-0.0853682
-0.081881
-0.078518
-0.0752755
-0.0721501
-0.0691383
-0.0662368
-0.0634422
-0.0607515
-0.0581615
-0.0556693
-0.0532719
-0.0509665
-0.0487503
-0.0466205
-0.0445746
-0.0426098
-0.0407235
-0.0389133
-0.0371765
-0.0355108
-0.0339137
-0.0323829
-0.0309159
-0.0295105
-0.0281644
-0.0268755
-0.0256415
-0.0244605
-0.0233303
-0.0222489
-0.0212144
-0.020225
-0.0192787
-0.0183739
-0.0175087
-0.0166816
-0.0158909
-0.0151351
-0.0144125
-0.0137219
-0.0130618
-0.0124308
-0.0118276
-0.011251
-0.0106998
-0.0101727
-0.00966877
-0.00918679
-0.00872575
-0.00828467
-0.00786256
-0.00745852
-0.00707165
-0.00670109
-0.00634601
-0.00600563
-0.00567918
-0.00536593
-0.00506516
-0.0047762
-0.00449839
-0.0042311
-0.0039737
-0.00372563
-0.00348629
-0.00325515
-0.00303166
-0.00281532
-0.00260561
-0.00240206
-0.00220419
-0.00201153
-0.00182364
-0.00164008
-0.00146043
-0.00128422
-0.00111119
-0.000940546
-0.000772827
-0.000605356
-0.000443204
-0.000272144
-0.00012156
0.266632
0.2665
0.266212
0.265759
0.265141
0.264362
0.263419
0.262311
0.261037
0.259593
0.257979
0.256191
0.254228
0.252086
0.249762
0.247253
0.244556
0.241668
0.238584
0.235301
0.231816
0.228124
0.224221
0.220105
0.21577
0.211213
0.20643
0.201418
0.196174
0.190694
0.184975
0.179015
0.172812
0.166364
0.159669
0.152727
0.145538
0.138101
0.130419
0.122492
0.114322
0.105914
0.0972716
0.0883985
0.079301
0.0699852
0.0604586
0.0507292
0.0408058
0.0306979
0.0204161
0.00997139
-0.000624594
-0.0113595
-0.0222205
-0.0331942
-0.044267
-0.0554248
-0.0666533
-0.077938
-0.0892642
-0.100617
-0.111982
-0.123345
-0.134691
-0.146006
-0.157276
-0.168486
-0.179624
-0.190675
-0.201628
-0.21247
-0.223187
-0.233769
-0.244204
-0.25448
-0.264587
-0.274513
-0.284248
-0.293782
-0.303104
-0.312204
-0.321074
-0.329702
-0.338079
-0.346195
-0.354041
-0.361608
-0.368885
-0.375864
-0.382534
-0.388888
-0.394914
-0.400606
-0.405953
-0.410948
-0.415582
-0.419848
-0.423738
-0.427244
-0.430362
-0.433085
-0.435408
-0.437328
-0.43884
-0.439942
-0.440634
-0.440913
-0.440781
-0.440239
-0.43929
-0.437938
-0.436186
-0.434041
-0.431511
-0.428602
-0.425324
-0.421687
-0.417703
-0.413382
-0.408738
-0.403784
-0.398536
-0.393007
-0.387214
-0.381173
-0.3749
-0.368413
-0.361729
-0.354866
-0.347841
-0.340672
-0.333378
-0.325976
-0.318483
-0.310917
-0.303296
-0.295635
-0.287951
-0.280259
-0.272576
-0.264915
-0.257291
-0.249717
-0.242206
-0.234769
-0.227417
-0.220162
-0.213012
-0.205976
-0.199063
-0.192279
-0.185631
-0.179125
-0.172765
-0.166557
-0.160502
-0.154605
-0.148866
-0.143287
-0.13787
-0.132614
-0.127518
-0.122582
-0.117804
-0.113181
-0.108712
-0.104393
-0.100222
-0.0961944
-0.0923074
-0.0885571
-0.0849397
-0.0814516
-0.0780889
-0.0748479
-0.0717251
-0.0687168
-0.0658197
-0.0630303
-0.0603455
-0.057762
-0.0552768
-0.052887
-0.0505895
-0.0483816
-0.0462604
-0.0442232
-0.0422674
-0.0403902
-0.0385892
-0.0368617
-0.0352052
-0.0336174
-0.0320957
-0.0306379
-0.0292415
-0.0279045
-0.0266244
-0.0253992
-0.0242267
-0.0231049
-0.0220318
-0.0210054
-0.0200238
-0.0190853
-0.0181879
-0.0173301
-0.0165101
-0.0157263
-0.0149771
-0.0142611
-0.0135768
-0.0129228
-0.0122978
-0.0117003
-0.0111293
-0.0105834
-0.0100616
-0.00956263
-0.00908549
-0.00862913
-0.00819256
-0.00777482
-0.00737498
-0.00699217
-0.00662552
-0.00627423
-0.0059375
-0.00561458
-0.00530472
-0.00500724
-0.00472146
-0.00444672
-0.00418239
-0.00392787
-0.00368258
-0.00344594
-0.00321741
-0.00299647
-0.00278259
-0.00257528
-0.00237407
-0.00217847
-0.00198804
-0.00180233
-0.00162089
-0.00144334
-0.00126918
-0.00109817
-0.000929528
-0.000763775
-0.000598268
-0.000438022
-0.000268965
-0.000120163
0.267599
0.267468
0.267182
0.266731
0.266117
0.26534
0.264402
0.2633
0.262031
0.260594
0.258987
0.257207
0.255251
0.253117
0.250801
0.248301
0.245612
0.242731
0.239655
0.236379
0.2329
0.229214
0.225316
0.221202
0.216869
0.212312
0.207528
0.202513
0.197263
0.191774
0.186045
0.180071
0.173851
0.167383
0.160665
0.153696
0.146476
0.139006
0.131285
0.123316
0.1151
0.106643
0.0979459
0.0890153
0.0798566
0.0704763
0.0608818
0.0510814
0.0410843
0.0309004
0.0205403
0.0100156
-0.000661766
-0.011479
-0.022423
-0.0334799
-0.0446357
-0.055876
-0.0671859
-0.0785508
-0.0899557
-0.101386
-0.112825
-0.124261
-0.135676
-0.147058
-0.158392
-0.169664
-0.18086
-0.191968
-0.202974
-0.213866
-0.224631
-0.235259
-0.245737
-0.256054
-0.2662
-0.276164
-0.285935
-0.295504
-0.304861
-0.313995
-0.322897
-0.331558
-0.339967
-0.348116
-0.355994
-0.363593
-0.370902
-0.377914
-0.384617
-0.391002
-0.397062
-0.402785
-0.408165
-0.413191
-0.417855
-0.42215
-0.426067
-0.4296
-0.432742
-0.435487
-0.43783
-0.439767
-0.441293
-0.442407
-0.443106
-0.44339
-0.443258
-0.442713
-0.441757
-0.440393
-0.438626
-0.436462
-0.433907
-0.430971
-0.427661
-0.423988
-0.419963
-0.415598
-0.410906
-0.405901
-0.400597
-0.39501
-0.389156
-0.38305
-0.376711
-0.370155
-0.363399
-0.356463
-0.349363
-0.342118
-0.334746
-0.327266
-0.319694
-0.312049
-0.304348
-0.296608
-0.288845
-0.281076
-0.273316
-0.26558
-0.257881
-0.250234
-0.242652
-0.235146
-0.227728
-0.220408
-0.213196
-0.2061
-0.19913
-0.192292
-0.185593
-0.179038
-0.172633
-0.166381
-0.160286
-0.154351
-0.148578
-0.142967
-0.137521
-0.132238
-0.127118
-0.12216
-0.117362
-0.112723
-0.108239
-0.103908
-0.099727
-0.0956915
-0.0917983
-0.0880436
-0.0844237
-0.0809346
-0.0775724
-0.0743333
-0.0712137
-0.0682098
-0.065318
-0.062535
-0.0598574
-0.0572818
-0.0548052
-0.0524245
-0.0501367
-0.0479388
-0.0458279
-0.0438014
-0.0418564
-0.0399902
-0.0382002
-0.0364839
-0.0348386
-0.0332619
-0.0317514
-0.0303045
-0.0289191
-0.0275928
-0.0263234
-0.0251087
-0.0239465
-0.0228348
-0.0217716
-0.0207549
-0.0197828
-0.0188535
-0.0179652
-0.0171161
-0.0163047
-0.0155292
-0.0147881
-0.0140799
-0.0134032
-0.0127565
-0.0121386
-0.011548
-0.0109836
-0.0104442
-0.00992859
-0.00943564
-0.0089643
-0.00851355
-0.00808238
-0.00766986
-0.00727506
-0.00689711
-0.00653515
-0.00618839
-0.00585602
-0.00553731
-0.00523153
-0.00493799
-0.004656
-0.00438493
-0.00412416
-0.00387307
-0.00363111
-0.00339769
-0.00317229
-0.00295438
-0.00274345
-0.00253902
-0.0023406
-0.00214773
-0.00195996
-0.00177685
-0.00159796
-0.00142291
-0.00125121
-0.00108262
-0.000916357
-0.000752954
-0.000589794
-0.000431827
-0.000265166
-0.00011849
0.268726
0.268595
0.268311
0.267863
0.267252
0.266481
0.265548
0.264452
0.26319
0.261761
0.260162
0.258391
0.256444
0.25432
0.252014
0.249523
0.246844
0.243973
0.240906
0.237639
0.234167
0.230488
0.226595
0.222486
0.218155
0.213599
0.208814
0.203795
0.198538
0.193041
0.187299
0.18131
0.175071
0.168579
0.161834
0.154834
0.147579
0.140068
0.132302
0.124284
0.116015
0.107498
0.0987384
0.0897402
0.0805094
0.0710529
0.0613784
0.0514943
0.0414103
0.0311365
0.0206841
0.0100649
-0.000708466
-0.011623
-0.0226648
-0.0338199
-0.0450736
-0.056411
-0.067817
-0.0792764
-0.0907738
-0.102294
-0.113821
-0.125341
-0.136839
-0.148299
-0.159708
-0.171052
-0.182317
-0.19349
-0.204557
-0.215508
-0.226329
-0.237009
-0.247537
-0.257902
-0.268094
-0.278101
-0.287914
-0.297524
-0.30692
-0.316093
-0.325033
-0.333731
-0.342178
-0.350364
-0.35828
-0.365917
-0.373264
-0.380314
-0.387055
-0.393479
-0.399577
-0.405339
-0.410755
-0.415818
-0.420518
-0.424848
-0.428798
-0.432363
-0.435534
-0.438306
-0.440673
-0.44263
-0.444174
-0.445301
-0.44601
-0.446299
-0.446169
-0.44562
-0.444656
-0.443279
-0.441494
-0.439307
-0.436725
-0.433755
-0.430407
-0.426692
-0.42262
-0.418203
-0.413455
-0.408389
-0.403021
-0.397366
-0.391439
-0.385258
-0.37884
-0.372202
-0.365363
-0.35834
-0.351152
-0.343818
-0.336355
-0.328782
-0.321117
-0.313379
-0.305584
-0.297751
-0.289896
-0.282035
-0.274184
-0.266359
-0.258573
-0.25084
-0.243174
-0.235587
-0.22809
-0.220695
-0.21341
-0.206244
-0.199207
-0.192306
-0.185546
-0.178934
-0.172475
-0.166173
-0.160031
-0.154052
-0.148238
-0.14259
-0.137109
-0.131795
-0.126647
-0.121664
-0.116844
-0.112185
-0.107685
-0.10334
-0.0991465
-0.0951016
-0.0912014
-0.0874419
-0.083819
-0.0803289
-0.0769675
-0.0737309
-0.0706151
-0.0676164
-0.0647312
-0.0619558
-0.0592867
-0.0567205
-0.0542541
-0.0518842
-0.0496077
-0.0474216
-0.045323
-0.0433089
-0.0413767
-0.0395234
-0.0377465
-0.0360432
-0.034411
-0.0328474
-0.0313499
-0.029916
-0.0285434
-0.0272297
-0.0259728
-0.0247703
-0.0236202
-0.0225203
-0.0214687
-0.0204633
-0.0195023
-0.0185838
-0.017706
-0.0168672
-0.0160657
-0.0152998
-0.0145681
-0.0138691
-0.0132012
-0.0125631
-0.0119534
-0.0113709
-0.0108143
-0.0102823
-0.00977396
-0.009288
-0.00882342
-0.00837919
-0.00795432
-0.00754787
-0.00715893
-0.00678663
-0.00643013
-0.00608863
-0.00576135
-0.00544754
-0.00514649
-0.00485752
-0.00457995
-0.00431315
-0.0040565
-0.00380942
-0.00357131
-0.00334165
-0.00311988
-0.0029055
-0.002698
-0.0024969
-0.00230172
-0.00211202
-0.00192734
-0.00174726
-0.00157133
-0.00139918
-0.00123033
-0.00106455
-0.000901061
-0.000740387
-0.000579953
-0.000424631
-0.000260753
-0.000116546
0.270011
0.269881
0.269599
0.269154
0.268548
0.267782
0.266855
0.265767
0.264513
0.263093
0.261504
0.259743
0.257807
0.255694
0.2534
0.250921
0.248253
0.245394
0.242337
0.23908
0.235618
0.231947
0.228062
0.223958
0.219631
0.215076
0.210289
0.205267
0.200003
0.194496
0.18874
0.182734
0.176473
0.169956
0.16318
0.156145
0.148848
0.141292
0.133475
0.1254
0.117069
0.108485
0.099652
0.0905757
0.0812617
0.0717171
0.0619499
0.051969
0.0417843
0.0314064
0.020847
0.0101184
-0.000766325
-0.0117935
-0.0229487
-0.0342174
-0.0455844
-0.0570341
-0.0685511
-0.0801196
-0.0917238
-0.103348
-0.114976
-0.126594
-0.138185
-0.149736
-0.161231
-0.172657
-0.184
-0.195247
-0.206385
-0.217402
-0.228286
-0.239026
-0.249611
-0.26003
-0.270272
-0.280329
-0.29019
-0.299845
-0.309285
-0.318502
-0.327485
-0.336226
-0.344716
-0.352945
-0.360904
-0.368584
-0.375975
-0.383068
-0.389854
-0.396322
-0.402464
-0.40827
-0.41373
-0.418836
-0.423578
-0.427948
-0.431938
-0.435539
-0.438745
-0.441548
-0.443943
-0.445925
-0.44749
-0.448634
-0.449354
-0.44965
-0.449522
-0.44897
-0.447996
-0.446605
-0.4448
-0.442587
-0.439972
-0.436965
-0.433575
-0.42981
-0.425684
-0.421207
-0.416395
-0.411259
-0.405817
-0.400082
-0.394073
-0.387805
-0.381296
-0.374564
-0.367628
-0.360505
-0.353215
-0.345777
-0.338209
-0.330529
-0.322757
-0.314911
-0.307009
-0.299068
-0.291106
-0.283139
-0.275183
-0.267255
-0.259368
-0.251536
-0.243774
-0.236093
-0.228506
-0.221023
-0.213654
-0.206408
-0.199294
-0.192319
-0.185489
-0.178812
-0.172291
-0.16593
-0.159734
-0.153705
-0.147844
-0.142154
-0.136633
-0.131284
-0.126104
-0.121092
-0.116247
-0.111566
-0.107046
-0.102685
-0.0984787
-0.0944234
-0.0905153
-0.0867504
-0.0831245
-0.0796335
-0.0762733
-0.0730396
-0.0699285
-0.0669361
-0.0640585
-0.0612919
-0.0586328
-0.0560777
-0.0536231
-0.0512657
-0.0490024
-0.0468299
-0.0447454
-0.0427458
-0.0408282
-0.0389898
-0.0372279
-0.0355397
-0.0339226
-0.032374
-0.0308914
-0.0294724
-0.0281145
-0.0268153
-0.0255726
-0.0243842
-0.0232479
-0.0221616
-0.0211232
-0.0201308
-0.0191825
-0.0182763
-0.0174106
-0.0165834
-0.0157933
-0.0150385
-0.0143176
-0.0136289
-0.0129712
-0.0123428
-0.0117426
-0.0111692
-0.0106215
-0.0100981
-0.00959794
-0.00911997
-0.00866309
-0.00822628
-0.00780859
-0.00740906
-0.0070268
-0.00666094
-0.00631065
-0.00597515
-0.00565365
-0.00534543
-0.00504977
-0.004766
-0.00449346
-0.00423151
-0.00397956
-0.00373702
-0.00350332
-0.00327792
-0.00306029
-0.00284992
-0.00264632
-0.00244901
-0.00225753
-0.00207142
-0.00189026
-0.00171361
-0.00154105
-0.0013722
-0.0012066
-0.00104401
-0.000883671
-0.0007261
-0.000568766
-0.000416451
-0.000255736
-0.000114335
0.271453
0.271324
0.271045
0.270603
0.270002
0.269242
0.268323
0.267243
0.265999
0.264589
0.263012
0.261263
0.25934
0.25724
0.254959
0.252493
0.24984
0.246993
0.24395
0.240705
0.237254
0.233593
0.229716
0.225619
0.221297
0.216744
0.211957
0.206931
0.201661
0.196143
0.190373
0.184347
0.178063
0.171516
0.164707
0.157631
0.15029
0.142681
0.134807
0.126668
0.118266
0.109606
0.10069
0.0915247
0.0821159
0.0724709
0.062598
0.0525065
0.0422068
0.03171
0.0210283
0.0101746
-0.000837277
-0.0119931
-0.0232779
-0.0346763
-0.0461725
-0.0577504
-0.0693939
-0.0810866
-0.0928121
-0.104554
-0.116298
-0.128026
-0.139723
-0.151376
-0.162968
-0.174487
-0.185918
-0.197248
-0.208464
-0.219556
-0.23051
-0.241316
-0.251964
-0.262442
-0.272742
-0.282853
-0.292766
-0.302472
-0.311962
-0.321227
-0.330259
-0.339047
-0.347585
-0.355861
-0.363869
-0.371597
-0.379038
-0.386181
-0.393016
-0.399535
-0.405728
-0.411585
-0.417095
-0.422251
-0.427042
-0.431459
-0.435493
-0.439137
-0.442383
-0.445223
-0.447651
-0.449662
-0.451251
-0.452414
-0.453149
-0.453454
-0.453328
-0.452773
-0.45179
-0.450383
-0.448555
-0.446313
-0.443663
-0.440613
-0.437174
-0.433354
-0.429166
-0.424622
-0.419736
-0.414521
-0.408994
-0.40317
-0.397066
-0.390699
-0.384087
-0.377248
-0.370201
-0.362965
-0.35556
-0.348003
-0.340315
-0.332514
-0.32462
-0.316651
-0.308626
-0.300562
-0.292478
-0.284391
-0.276316
-0.26827
-0.260268
-0.252324
-0.244453
-0.236665
-0.228975
-0.221392
-0.213927
-0.20659
-0.199388
-0.19233
-0.185422
-0.178669
-0.172078
-0.165652
-0.159395
-0.153308
-0.147395
-0.141656
-0.136092
-0.130702
-0.125486
-0.120442
-0.115569
-0.110863
-0.106322
-0.101943
-0.0977219
-0.0936551
-0.0897385
-0.0859678
-0.0823388
-0.0788471
-0.0754884
-0.0722585
-0.069153
-0.0661679
-0.0632991
-0.0605428
-0.0578952
-0.0553527
-0.0529116
-0.0505686
-0.0483203
-0.0461635
-0.044095
-0.0421118
-0.0402109
-0.0383894
-0.0366445
-0.0349734
-0.0333734
-0.0318418
-0.0303762
-0.0289739
-0.0276326
-0.0263498
-0.0251233
-0.0239508
-0.0228301
-0.021759
-0.0207356
-0.0197578
-0.0188237
-0.0179315
-0.0170792
-0.0162653
-0.015488
-0.0147457
-0.0140368
-0.0133598
-0.0127134
-0.012096
-0.0115064
-0.0109433
-0.0104055
-0.0098917
-0.00940083
-0.00893181
-0.00848356
-0.0080551
-0.00764545
-0.00725368
-0.0068789
-0.00652026
-0.00617694
-0.00584815
-0.00553313
-0.00523116
-0.00494154
-0.0046636
-0.00439668
-0.00414018
-0.00389349
-0.00365604
-0.00342726
-0.00320663
-0.00299363
-0.00278775
-0.00258851
-0.00239544
-0.00220809
-0.00202602
-0.00184879
-0.00167598
-0.00150719
-0.00134203
-0.00118006
-0.00102103
-0.000864224
-0.000710122
-0.000556254
-0.000407301
-0.000250125
-0.000111861
0.273051
0.272923
0.272647
0.272209
0.271614
0.270861
0.26995
0.26888
0.267647
0.266249
0.264684
0.262949
0.261041
0.258956
0.256691
0.254241
0.251603
0.248772
0.245744
0.242514
0.239076
0.235427
0.231561
0.227472
0.223156
0.218607
0.213821
0.208791
0.203515
0.197986
0.1922
0.186154
0.179843
0.173266
0.166418
0.159299
0.151907
0.144241
0.136302
0.128092
0.119612
0.110865
0.101856
0.0925908
0.0830752
0.0733169
0.0633247
0.0531083
0.0426785
0.0320473
0.0212273
0.0102322
-0.000923592
-0.0122249
-0.0236562
-0.0352011
-0.0468432
-0.0585657
-0.0703517
-0.0821842
-0.0940463
-0.105921
-0.117793
-0.129645
-0.141461
-0.153228
-0.164928
-0.17655
-0.188078
-0.1995
-0.210804
-0.221977
-0.233008
-0.243888
-0.254604
-0.265148
-0.275509
-0.28568
-0.29565
-0.305411
-0.314956
-0.324274
-0.333358
-0.342199
-0.350789
-0.359118
-0.367179
-0.374962
-0.382457
-0.389656
-0.396548
-0.403125
-0.409375
-0.415289
-0.420857
-0.426069
-0.430915
-0.435386
-0.439472
-0.443166
-0.446458
-0.44934
-0.451807
-0.453852
-0.455469
-0.456655
-0.457407
-0.457723
-0.457601
-0.457043
-0.45605
-0.454625
-0.452773
-0.450498
-0.447809
-0.444712
-0.441218
-0.437336
-0.433079
-0.42846
-0.423491
-0.418187
-0.412565
-0.40664
-0.400429
-0.393951
-0.387223
-0.380264
-0.373093
-0.36573
-0.358194
-0.350504
-0.342681
-0.334743
-0.326712
-0.318604
-0.310441
-0.30224
-0.294018
-0.285795
-0.277586
-0.269408
-0.261276
-0.253206
-0.245211
-0.237304
-0.229497
-0.221803
-0.21423
-0.20679
-0.19949
-0.192338
-0.185341
-0.178506
-0.171836
-0.165336
-0.15901
-0.15286
-0.146888
-0.141096
-0.135482
-0.130048
-0.124792
-0.119712
-0.114807
-0.110074
-0.10551
-0.101111
-0.0968741
-0.0927949
-0.0888692
-0.0850925
-0.0814604
-0.0779683
-0.0746117
-0.0713862
-0.0682873
-0.0653107
-0.0624522
-0.0597077
-0.0570732
-0.054545
-0.0521192
-0.0497925
-0.0475611
-0.0454219
-0.0433715
-0.0414068
-0.0395247
-0.0377222
-0.0359964
-0.0343444
-0.0327636
-0.0312511
-0.0298044
-0.0284209
-0.0270981
-0.0258336
-0.0246251
-0.0234703
-0.0223669
-0.0213129
-0.0203061
-0.0193446
-0.0184264
-0.0175496
-0.0167124
-0.0159131
-0.0151501
-0.0144215
-0.0137261
-0.0130621
-0.0124282
-0.0118231
-0.0112452
-0.0106935
-0.0101667
-0.00966354
-0.00918295
-0.00872384
-0.00828516
-0.00786593
-0.00746518
-0.007082
-0.0067155
-0.00636485
-0.00602923
-0.00570787
-0.00540002
-0.00510497
-0.00482202
-0.00455052
-0.00428983
-0.00403934
-0.00379846
-0.00356662
-0.00334329
-0.00312793
-0.00292004
-0.00271912
-0.0025247
-0.00233631
-0.00215353
-0.0019759
-0.00180301
-0.00163445
-0.00146981
-0.00130873
-0.00115076
-0.000995678
-0.000842759
-0.000692486
-0.000542444
-0.000397203
-0.000243932
-0.00010913
0.274803
0.274677
0.274403
0.273971
0.273381
0.272637
0.271736
0.270676
0.269456
0.268072
0.266522
0.264803
0.262911
0.260843
0.258596
0.256164
0.253544