/*--------------------------------*- C++ -*----------------------------------*\
| =========                 |                                                 |
| \\      /  F ield         | OpenFOAM: The Open Source CFD Toolbox           |
|  \\    /   O peration     | Version:  2306                                  |
|   \\  /    A nd           | Website:  www.openfoam.com                      |
|    \\/     M anipulation  |                                                 |
\*---------------------------------------------------------------------------*/
FoamFile
{
    version     2.0;
    format      ascii;
    arch        "LSB;label=32;scalar=64";
    class       surfaceScalarField;
    location    "4.5";
    object      phi;
}
// * * * * * * * * * * * * * * * * * * * * * * * * * * * * * * * * * * * * * //

dimensions      [0 3 -1 0 0 0 0];

oriented        oriented;

internalField   nonuniform List<scalar> 
65152
(
0.00625051
-5.05825e-07
0.00625203
-1.51921e-06
0.00625456
-2.53303e-06
0.00625811
-3.5484e-06
0.00626267
-4.567e-06
0.00626826
-5.5899e-06
0.00627488
-6.6178e-06
0.00628253
-7.65142e-06
0.00629122
-8.69156e-06
0.00630096
-9.739e-06
0.00631176
-1.07944e-05
0.00632362
-1.18584e-05
0.00633655
-1.29315e-05
0.00635056
-1.40141e-05
0.00636567
-1.51065e-05
0.00638188
-1.6209e-05
0.0063992
-1.73217e-05
0.00641764
-1.84446e-05
0.00643722
-1.95775e-05
0.00645794
-2.072e-05
0.00647981
-2.18719e-05
0.00650285
-2.30323e-05
0.00652705
-2.42007e-05
0.00655242
-2.5376e-05
0.00657898
-2.65571e-05
0.00660672
-2.77427e-05
0.00663565
-2.89313e-05
0.00666577
-3.01213e-05
0.00669709
-3.13107e-05
0.00672958
-3.24975e-05
0.00676326
-3.36795e-05
0.00679812
-3.48543e-05
0.00683414
-3.60192e-05
0.00687131
-3.71716e-05
0.00690962
-3.83085e-05
0.00694904
-3.9427e-05
0.00698957
-4.05239e-05
0.00703116
-4.15959e-05
0.0070738
-4.26399e-05
0.00711745
-4.36524e-05
0.00716208
-4.46301e-05
0.00720765
-4.55697e-05
0.00725412
-4.64679e-05
0.00730144
-4.73214e-05
0.00734957
-4.81272e-05
0.00739845
-4.88821e-05
0.00744804
-4.95834e-05
0.00749827
-5.02284e-05
0.00754908
-5.08147e-05
0.00760042
-5.134e-05
0.00765222
-5.18024e-05
0.00770442
-5.22003e-05
0.00775695
-5.25322e-05
0.00780975
-5.2797e-05
0.00786275
-5.29939e-05
0.00791587
-5.31225e-05
0.00796905
-5.31824e-05
0.00802222
-5.31739e-05
0.00807532
-5.30972e-05
0.00812827
-5.2953e-05
0.00818102
-5.27422e-05
0.00823348
-5.24657e-05
0.00828561
-5.2125e-05
0.00833733
-5.17214e-05
0.00838859
-5.12566e-05
0.00843932
-5.07322e-05
0.00848947
-5.01501e-05
0.00853898
-4.95121e-05
0.0085878
-4.882e-05
0.00863588
-4.80757e-05
0.00868316
-4.72812e-05
0.0087296
-4.64382e-05
0.00877514
-4.55484e-05
0.00881976
-4.46135e-05
0.00886339
-4.3635e-05
0.00890601
-4.26144e-05
0.00894756
-4.15529e-05
0.00898801
-4.04517e-05
0.00902732
-3.93119e-05
0.00906546
-3.81343e-05
0.00910238
-3.69197e-05
0.00913805
-3.56688e-05
0.00917243
-3.4382e-05
0.00920549
-3.30598e-05
0.00923719
-3.17025e-05
0.0092675
-3.03105e-05
0.00929638
-2.88838e-05
0.00932381
-2.74228e-05
0.00934973
-2.59275e-05
0.00937413
-2.43984e-05
0.00939697
-2.28355e-05
0.00941821
-2.12393e-05
0.00943782
-1.96102e-05
0.00945577
-1.79486e-05
0.00947202
-1.62554e-05
0.00948655
-1.45314e-05
0.00949933
-1.27775e-05
0.00951033
-1.0995e-05
0.00951951
-9.18517e-06
0.00952686
-7.34973e-06
0.00953235
-5.49047e-06
0.00953596
-3.6094e-06
0.00953767
-1.70878e-06
0.00953746
2.08963e-07
0.00953532
2.14115e-06
0.00953123
4.08492e-06
0.0095252
6.03725e-06
0.0095172
7.9949e-06
0.00950725
9.95452e-06
0.00949534
1.19126e-05
0.00948147
1.38655e-05
0.00946566
1.58094e-05
0.00944792
1.77407e-05
0.00942826
1.96552e-05
0.00940672
2.15493e-05
0.0093833
2.34188e-05
0.00935804
2.52598e-05
0.00933097
2.70685e-05
0.00930213
2.8841e-05
0.00927155
3.05733e-05
0.00923929
3.22618e-05
0.00920539
3.39028e-05
0.0091699
3.54929e-05
0.00913287
3.70285e-05
0.00909436
3.85066e-05
0.00905444
3.99239e-05
0.00901316
4.12777e-05
0.00897059
4.25652e-05
0.00892681
4.37839e-05
0.00888188
4.49316e-05
0.00883587
4.60063e-05
0.00878887
4.70062e-05
0.00874094
4.79298e-05
0.00869216
4.87757e-05
0.00864262
4.9543e-05
0.00859239
5.02309e-05
0.00854155
5.08389e-05
0.00849018
5.13668e-05
0.00843837
5.18147e-05
0.00838618
5.21829e-05
0.00833371
5.2472e-05
0.00828103
5.26827e-05
0.00822821
5.28162e-05
0.00817534
5.28737e-05
0.00812248
5.28567e-05
0.00806972
5.27668e-05
0.00801711
5.26058e-05
0.00796473
5.23756e-05
0.00791266
5.2078e-05
0.00786094
5.17151e-05
0.00780965
5.12884e-05
0.00775885
5.07997e-05
0.0077086
5.02502e-05
0.00765896
4.96411e-05
0.00760999
4.89728e-05
0.00756174
4.82457e-05
0.00751428
4.74596e-05
0.00746767
4.6614e-05
0.00742196
4.57082e-05
0.00737722
4.47418e-05
0.0073335
4.37144e-05
0.00729088
4.26264e-05
0.0072494
4.1479e-05
0.00720912
4.02746e-05
0.00717011
3.90172e-05
0.0071324
3.77125e-05
0.00709603
3.63676e-05
0.00706104
3.49915e-05
0.00702744
3.35945e-05
0.00699525
3.21879e-05
0.00696447
3.07839e-05
0.00693508
2.93946e-05
0.00690704
2.8032e-05
0.00688034
2.6707e-05
0.00685491
2.54293e-05
0.0068307
2.4207e-05
0.00680765
2.30464e-05
0.0067857
2.19516e-05
0.00676478
2.09248e-05
0.00674481
1.99664e-05
0.00672574
1.9075e-05
0.00670749
1.82479e-05
0.00669001
1.74812e-05
0.00667324
1.67704e-05
0.00665713
1.61103e-05
0.00664163
1.54957e-05
0.00662671
1.49214e-05
0.00661233
1.43824e-05
0.00659845
1.3874e-05
0.00658506
1.33922e-05
0.00657213
1.29333e-05
0.00655963
1.24942e-05
0.00654756
1.20722e-05
0.0065359
1.16654e-05
0.00652462
1.12719e-05
0.00651373
1.08905e-05
0.00650321
1.05201e-05
0.00649305
1.01599e-05
0.00648324
9.80944e-06
0.00647378
9.46823e-06
0.00646464
9.13598e-06
0.00645583
8.8125e-06
0.00644733
8.49764e-06
0.00643914
8.19129e-06
0.00643124
7.89338e-06
0.00642364
7.60383e-06
0.00641632
7.32257e-06
0.00640927
7.04956e-06
0.00640248
6.78471e-06
0.00639596
6.52795e-06
0.00638968
6.27919e-06
0.00638364
6.03835e-06
0.00637783
5.80532e-06
0.00637225
5.57999e-06
0.00636689
5.36224e-06
0.00636174
5.15195e-06
0.00635679
4.94897e-06
0.00635204
4.75318e-06
0.00634747
4.56442e-06
0.00634309
4.38255e-06
0.00633888
4.20742e-06
0.00633484
4.03887e-06
0.00633097
3.87675e-06
0.00632725
3.72089e-06
0.00632367
3.57115e-06
0.00632025
3.42737e-06
0.00631696
3.28937e-06
0.0063138
3.15702e-06
0.00631077
3.03015e-06
0.00630786
2.9086e-06
0.00630507
2.79224e-06
0.00630239
2.6809e-06
0.00629981
2.57443e-06
0.00629734
2.47271e-06
0.00629497
2.37558e-06
0.00629268
2.2829e-06
0.00629049
2.19456e-06
0.00628838
2.1104e-06
0.00628635
2.03032e-06
0.00628439
1.95418e-06
0.00628251
1.88188e-06
0.0062807
1.81329e-06
0.00627895
1.74832e-06
0.00627726
1.68685e-06
0.00627563
1.62879e-06
0.00627406
1.57405e-06
0.00627254
1.52253e-06
0.00627106
1.47416e-06
0.00626964
1.42883e-06
0.00626825
1.38651e-06
0.0062669
1.34703e-06
0.00626559
1.31049e-06
0.00626431
1.27656e-06
0.00626307
1.24509e-06
0.00626185
1.21773e-06
1.18555e-06
0.00625051
-1.01215e-06
0.00625202
-3.03658e-06
0.00625455
-5.06317e-06
0.0062581
-7.09385e-06
0.00626266
-9.13069e-06
0.00626825
-1.11757e-05
0.00627486
-1.32307e-05
0.00628251
-1.52973e-05
0.00629119
-1.7377e-05
0.00630093
-1.94714e-05
0.00631171
-2.15818e-05
0.00632356
-2.37094e-05
0.00633649
-2.58553e-05
0.00635049
-2.80203e-05
0.00636559
-3.02052e-05
0.00638179
-3.24103e-05
0.00639911
-3.46359e-05
0.00641755
-3.68819e-05
0.00643712
-3.91481e-05
0.00645783
-4.14339e-05
0.0064797
-4.37383e-05
0.00650272
-4.60602e-05
0.00652692
-4.83981e-05
0.0065523
-5.075e-05
0.00657885
-5.31137e-05
0.0066066
-5.54865e-05
0.00663553
-5.78656e-05
0.00666566
-6.02476e-05
0.00669697
-6.26286e-05
0.00672948
-6.50047e-05
0.00676317
-6.73713e-05
0.00679804
-6.97235e-05
0.00683408
-7.20563e-05
0.00687127
-7.43641e-05
0.0069096
-7.66411e-05
0.00694906
-7.88814e-05
0.00698961
-8.10785e-05
0.00703124
-8.3226e-05
0.00707392
-8.53174e-05
0.00711761
-8.73459e-05
0.00716229
-8.93048e-05
0.00720791
-9.11874e-05
0.00725443
-9.29871e-05
0.0073018
-9.46974e-05
0.00734999
-9.63119e-05
0.00739893
-9.78247e-05
0.00744858
-9.92301e-05
0.00749887
-0.000100523
0.00754975
-0.000101697
0.00760116
-0.00010275
0.00765304
-0.000103677
0.00770531
-0.000104474
0.00775792
-0.000105139
0.00781079
-0.000105669
0.00786386
-0.000106064
0.00791706
-0.000106321
0.00797032
-0.000106441
0.00802357
-0.000106423
0.00807674
-0.000106269
0.00812976
-0.00010598
0.00818258
-0.000105557
0.00823512
-0.000105003
0.00828731
-0.00010432
0.0083391
-0.000103511
0.00839042
-0.00010258
0.00844122
-0.000101529
0.00849143
-0.000100363
0.00854101
-9.90848e-05
0.00858989
-9.76986e-05
0.00863802
-9.62082e-05
0.00868535
-9.46172e-05
0.00873184
-9.29292e-05
0.00877744
-9.11479e-05
0.00882211
-8.92763e-05
0.00886579
-8.73178e-05
0.00890845
-8.5275e-05
0.00895005
-8.31507e-05
0.00899054
-8.09471e-05
0.0090299
-7.86664e-05
0.00906807
-7.63102e-05
0.00910503
-7.38802e-05
0.00914074
-7.13775e-05
0.00917516
-6.88033e-05
0.00920826
-6.61583e-05
0.00924
-6.34432e-05
0.00927035
-6.06586e-05
0.00929927
-5.78048e-05
0.00932673
-5.48822e-05
0.0093527
-5.18913e-05
0.00937713
-4.88323e-05
0.0094
-4.57059e-05
0.00942127
-4.25127e-05
0.00944092
-3.92536e-05
0.0094589
-3.59295e-05
0.00947518
-3.25419e-05
0.00948975
-2.90925e-05
0.00950255
-2.55831e-05
0.00951357
-2.20163e-05
0.00952278
-1.83947e-05
0.00953015
-1.47216e-05
0.00953566
-1.10007e-05
0.00953929
-7.2359e-06
0.00954101
-3.43177e-06
0.00954082
4.06782e-07
0.00953868
4.27439e-06
0.0095346
8.16539e-06
0.00952857
1.20737e-05
0.00952057
1.59928e-05
0.00951061
1.9916e-05
0.00949868
2.38361e-05
0.0094848
2.77461e-05
0.00946897
3.16382e-05
0.00945121
3.55049e-05
0.00943153
3.93384e-05
0.00940994
4.31308e-05
0.00938649
4.68742e-05
0.00936119
5.05607e-05
0.00933407
5.41823e-05
0.00930518
5.77313e-05
0.00927456
6.12001e-05
0.00924224
6.45811e-05
0.00920827
6.7867e-05
0.00917272
7.10508e-05
0.00913562
7.41256e-05
0.00909704
7.7085e-05
0.00905704
7.99228e-05
0.00901569
8.26333e-05
0.00897304
8.52109e-05
0.00892917
8.76509e-05
0.00888416
8.99486e-05
0.00883806
9.20999e-05
0.00879097
9.41014e-05
0.00874295
9.59499e-05
0.00869408
9.76428e-05
0.00864445
9.91782e-05
0.00859412
0.000100554
0.00854319
0.000101771
0.00849173
0.000102827
0.00843982
0.000103722
0.00838755
0.000104458
0.00833499
0.000105035
0.00828221
0.000105455
0.00822931
0.000105721
0.00817635
0.000105834
0.00812341
0.000105798
0.00807056
0.000105616
0.00801787
0.000105291
0.00796542
0.000104828
0.00791327
0.00010423
0.00786148
0.000103502
0.00781012
0.000102645
0.00775926
0.000101665
0.00770895
0.000100562
0.00765925
9.93409e-05
0.00761022
9.80012e-05
0.00756192
9.65438e-05
0.00751441
9.49685e-05
0.00746775
9.32743e-05
0.007422
9.14601e-05
0.00737722
8.95246e-05
0.00733346
8.74674e-05
0.0072908
8.52891e-05
0.00724929
8.29921e-05
0.00720898
8.05814e-05
0.00716993
7.80648e-05
0.00713219
7.54536e-05
0.0070958
7.27622e-05
0.00706078
7.00083e-05
0.00702716
6.72126e-05
0.00699495
6.43978e-05
0.00696415
6.1588e-05
0.00693474
5.88077e-05
0.00690669
5.60806e-05
0.00687997
5.34288e-05
0.00685452
5.08716e-05
0.0068303
4.84252e-05
0.00680725
4.61022e-05
0.00678529
4.39108e-05
0.00676436
4.18556e-05
0.00674439
3.99372e-05
0.00672531
3.8153e-05
0.00670706
3.64974e-05
0.00668958
3.49629e-05
0.00667281
3.35401e-05
0.0066567
3.2219e-05
0.00664121
3.09889e-05
0.00662629
2.98395e-05
0.00661191
2.87608e-05
0.00659804
2.77434e-05
0.00658465
2.67792e-05
0.00657173
2.58609e-05
0.00655924
2.49822e-05
0.00654717
2.4138e-05
0.00653551
2.33239e-05
0.00652425
2.25367e-05
0.00651337
2.17736e-05
0.00650285
2.10325e-05
0.0064927
2.0312e-05
0.0064829
1.96109e-05
0.00647344
1.89283e-05
0.00646431
1.82637e-05
0.00645551
1.76167e-05
0.00644702
1.69869e-05
0.00643884
1.63742e-05
0.00643095
1.57784e-05
0.00642336
1.51993e-05
0.00641604
1.46368e-05
0.006409
1.40908e-05
0.00640222
1.35612e-05
0.0063957
1.30477e-05
0.00638943
1.25503e-05
0.0063834
1.20687e-05
0.00637761
1.16028e-05
0.00637203
1.11523e-05
0.00636668
1.07169e-05
0.00636153
1.02964e-05
0.00635659
9.89062e-06
0.00635185
9.49918e-06
0.00634729
9.12182e-06
0.00634291
8.75824e-06
0.00633871
8.40813e-06
0.00633468
8.0712e-06
0.00633081
7.74712e-06
0.0063271
7.43558e-06
0.00632353
7.13626e-06
0.00632011
6.84885e-06
0.00631682
6.57303e-06
0.00631367
6.30848e-06
0.00631065
6.0549e-06
0.00630775
5.81197e-06
0.00630496
5.57939e-06
0.00630228
5.35686e-06
0.00629971
5.14408e-06
0.00629724
4.94077e-06
0.00629487
4.74665e-06
0.00629259
4.56144e-06
0.0062904
4.38488e-06
0.0062883
4.2167e-06
0.00628627
4.05665e-06
0.00628432
3.9045e-06
0.00628244
3.76001e-06
0.00628063
3.62295e-06
0.00627889
3.4931e-06
0.00627721
3.37027e-06
0.00627558
3.25425e-06
0.00627401
3.14486e-06
0.00627249
3.04191e-06
0.00627102
2.94523e-06
0.00626959
2.85467e-06
0.00626821
2.77005e-06
0.00626687
2.69134e-06
0.00626556
2.61798e-06
0.00626428
2.55117e-06
0.00626304
2.48673e-06
0.00626182
2.43712e-06
2.36477e-06
0.0062505
-1.51714e-06
0.00625202
-4.55163e-06
0.00625455
-7.58943e-06
0.00625809
-1.06336e-05
0.00626264
-1.36872e-05
0.00626822
-1.6753e-05
0.00627482
-1.98337e-05
0.00628246
-2.2932e-05
0.00629113
-2.60501e-05
0.00630085
-2.91904e-05
0.00631162
-3.23549e-05
0.00632346
-3.55454e-05
0.00633637
-3.87636e-05
0.00635036
-4.20108e-05
0.00636544
-4.52879e-05
0.00638163
-4.85957e-05
0.00639892
-5.19346e-05
0.00641735
-5.53045e-05
0.0064369
-5.87049e-05
0.00645761
-6.21351e-05
0.00647946
-6.55938e-05
0.00650248
-6.9079e-05
0.00652667
-7.25886e-05
0.00655204
-7.61197e-05
0.00657859
-7.96689e-05
0.00660634
-8.32324e-05
0.00663528
-8.68057e-05
0.00666542
-9.03837e-05
0.00669675
-9.39609e-05
0.00672928
-9.7531e-05
0.00676299
-0.000101087
0.00679789
-0.000104623
0.00683396
-0.000108129
0.0068712
-0.000111598
0.00690958
-0.000115022
0.00694909
-0.00011839
0.0069897
-0.000121695
0.0070314
-0.000124924
0.00707416
-0.00012807
0.00711793
-0.000131122
0.00716269
-0.000134069
0.00720841
-0.000136901
0.00725503
-0.000139609
0.00730252
-0.000142183
0.00735082
-0.000144612
0.00739988
-0.000146889
0.00744965
-0.000149004
0.00750008
-0.000150949
0.0075511
-0.000152717
0.00760265
-0.000154301
0.00765467
-0.000155695
0.00770709
-0.000156894
0.00775984
-0.000157894
0.00781287
-0.000158692
0.00786609
-0.000159285
0.00791944
-0.000159671
0.00797285
-0.000159851
0.00802625
-0.000159824
0.00807957
-0.000159591
0.00813275
-0.000159155
0.00818571
-0.000158518
0.00823839
-0.000157683
0.00829072
-0.000156655
0.00834265
-0.000155437
0.0083941
-0.000154036
0.00844503
-0.000152455
0.00849537
-0.000150701
0.00854506
-0.000148779
0.00859406
-0.000146695
0.0086423
-0.000144454
0.00868975
-0.000142063
0.00873635
-0.000139526
0.00878205
-0.000136849
0.00882681
-0.000134038
0.00887059
-0.000131096
0.00891334
-0.000128028
0.00895503
-0.000124838
0.00899561
-0.00012153
0.00903505
-0.000118106
0.00907331
-0.000114569
0.00911035
-0.000110922
0.00914614
-0.000107166
0.00918064
-0.000103303
0.00921381
-9.93341e-05
0.00924563
-9.52602e-05
0.00927606
-9.1082e-05
0.00930505
-8.68001e-05
0.00933258
-8.2415e-05
0.00935862
-7.79273e-05
0.00938312
-7.33375e-05
0.00940606
-6.86463e-05
0.00942741
-6.38546e-05
0.00944712
-5.89637e-05
0.00946516
-5.3975e-05
0.00948151
-4.88907e-05
0.00949613
-4.3713e-05
0.00950899
-3.84451e-05
0.00952007
-3.30904e-05
0.00952933
-2.76531e-05
0.00953674
-2.2138e-05
0.00954229
-1.65505e-05
0.00954595
-1.08967e-05
0.0095477
-5.18332e-06
0.00954753
5.82204e-07
0.00954541
6.39177e-06
0.00954134
1.22369e-05
0.00953531
1.81085e-05
0.0095273
2.39966e-05
0.00951733
2.98912e-05
0.00950538
3.57817e-05
0.00949147
4.1657e-05
0.0094756
4.75058e-05
0.00945779
5.33166e-05
0.00943805
5.90777e-05
0.00941641
6.47772e-05
0.00939288
7.04031e-05
0.00936749
7.59436e-05
0.00934029
8.13867e-05
0.0093113
8.67207e-05
0.00928057
9.19341e-05
0.00924813
9.70155e-05
0.00921404
0.000101954
0.00917836
0.000106739
0.00914112
0.00011136
0.0091024
0.000115807
0.00906225
0.000120072
0.00902074
0.000124145
0.00897793
0.000128018
0.0089339
0.000131684
0.00888871
0.000135136
0.00884244
0.000138368
0.00879517
0.000141375
0.00874697
0.000144151
0.00869792
0.000146693
0.0086481
0.000148998
0.00859759
0.000151064
0.00854647
0.000152889
0.00849482
0.000154472
0.00844273
0.000155814
0.00839027
0.000156916
0.00833753
0.00015778
0.00828458
0.000158407
0.00823149
0.000158802
0.00817836
0.000158967
0.00812525
0.000158908
0.00807224
0.00015863
0.00801939
0.000158137
0.00796678
0.000157436
0.00791448
0.000156532
0.00786255
0.000155431
0.00781106
0.000154139
0.00776006
0.00015266
0.00770963
0.000150999
0.00765981
0.000149158
0.00761067
0.000147141
0.00756227
0.000144947
0.00751466
0.000142576
0.00746791
0.000140027
0.00742207
0.000137299
0.00737721
0.000134389
0.00733338
0.000131297
0.00729064
0.000128024
0.00724906
0.000124573
0.00720869
0.000120952
0.00716958
0.000117173
0.00713178
0.000113252
0.00709533
0.00010921
0.00706027
0.000105075
0.0070266
0.000100878
0.00699435
9.66514e-05
0.0069635
9.24324e-05
0.00693405
8.82576e-05
0.00690597
8.41624e-05
0.00687922
8.018e-05
0.00685375
7.63397e-05
0.00682951
7.26656e-05
0.00680644
6.91766e-05
0.00678446
6.58852e-05
0.00676352
6.27983e-05
0.00674354
5.99168e-05
0.00672446
5.72368e-05
0.0067062
5.47502e-05
0.00668872
5.24453e-05
0.00667195
5.03084e-05
0.00665585
4.83243e-05
0.00664036
4.6477e-05
0.00662545
4.47509e-05
0.00661108
4.3131e-05
0.00659722
4.16035e-05
0.00658384
4.01558e-05
0.00657093
3.8777e-05
0.00655845
3.74579e-05
0.0065464
3.61906e-05
0.00653475
3.49687e-05
0.0065235
3.37871e-05
0.00651263
3.26418e-05
0.00650214
3.15297e-05
0.006492
3.04484e-05
0.00648221
2.93963e-05
0.00647277
2.83722e-05
0.00646366
2.7375e-05
0.00645487
2.64043e-05
0.0064464
2.54595e-05
0.00643823
2.45403e-05
0.00643037
2.36465e-05
0.00642279
2.27779e-05
0.00641549
2.19343e-05
0.00640846
2.11154e-05
0.0064017
2.03211e-05
0.0063952
1.95512e-05
0.00638895
1.88053e-05
0.00638293
1.80832e-05
0.00637715
1.73845e-05
0.00637159
1.6709e-05
0.00636625
1.60563e-05
0.00636112
1.5426e-05
0.0063562
1.48176e-05
0.00635147
1.42308e-05
0.00634692
1.36652e-05
0.00634256
1.31202e-05
0.00633837
1.25955e-05
0.00633435
1.20905e-05
0.0063305
1.16047e-05
0.00632679
1.11378e-05
0.00632324
1.06893e-05
0.00631983
1.02586e-05
0.00631656
9.84525e-06
0.00631342
9.44884e-06
0.0063104
9.06886e-06
0.00630751
8.70486e-06
0.00630473
8.35637e-06
0.00630207
8.02295e-06
0.00629951
7.70416e-06
0.00629705
7.39956e-06
0.00629469
7.10873e-06
0.00629242
6.83126e-06
0.00629024
6.56674e-06
0.00628814
6.31479e-06
0.00628612
6.07503e-06
0.00628418
5.8471e-06
0.00628231
5.63065e-06
0.0062805
5.42533e-06
0.00627877
5.23083e-06
0.00627709
5.04683e-06
0.00627547
4.87304e-06
0.00627391
4.70918e-06
0.00627239
4.55497e-06
0.00627093
4.41016e-06
0.00626951
4.27453e-06
0.00626813
4.14776e-06
0.00626679
4.02992e-06
0.00626549
3.91998e-06
0.00626422
3.82019e-06
0.00626298
3.72333e-06
0.00626177
3.64966e-06
3.54031e-06
0.0062505
-2.02089e-06
0.00625202
-6.06304e-06
0.00625454
-1.01096e-05
0.00625807
-1.41649e-05
0.00626261
-1.82328e-05
0.00626818
-2.23172e-05
0.00627476
-2.64217e-05
0.00628238
-3.05497e-05
0.00629104
-3.47045e-05
0.00630074
-3.88891e-05
0.00631149
-4.31064e-05
0.0063233
-4.73588e-05
0.00633618
-5.16484e-05
0.00635015
-5.59771e-05
0.00636521
-6.03464e-05
0.00638137
-6.47571e-05
0.00639865
-6.92098e-05
0.00641705
-7.37045e-05
0.00643658
-7.82406e-05
0.00645726
-8.28171e-05
0.0064791
-8.74322e-05
0.00650211
-9.20837e-05
0.00652629
-9.67683e-05
0.00655165
-0.000101483
0.0065782
-0.000106222
0.00660595
-0.000110981
0.0066349
-0.000115754
0.00666505
-0.000120534
0.0066964
-0.000125314
0.00672896
-0.000130086
0.00676271
-0.00013484
0.00679765
-0.000139566
0.00683378
-0.000144255
0.00687108
-0.000148895
0.00690953
-0.000153475
0.00694912
-0.000157981
0.00698983
-0.000162403
0.00703163
-0.000166725
0.00707449
-0.000170936
0.00711839
-0.000175021
0.00716329
-0.000178967
0.00720915
-0.00018276
0.00725593
-0.000186386
0.00730358
-0.000189832
0.00735205
-0.000193086
0.0074013
-0.000196136
0.00745126
-0.000198968
0.00750189
-0.000201573
0.00755311
-0.000203941
0.00760487
-0.000206063
0.00765711
-0.00020793
0.00770975
-0.000209536
0.00776273
-0.000210874
0.00781598
-0.000211942
0.00786943
-0.000212735
0.00792301
-0.000213251
0.00797665
-0.00021349
0.00803027
-0.000213452
0.00808382
-0.000213138
0.00813722
-0.000212552
0.0081904
-0.000211698
0.00824329
-0.000210578
0.00829584
-0.0002092
0.00834797
-0.000207569
0.00839963
-0.000205692
0.00845075
-0.000203575
0.00850127
-0.000201227
0.00855115
-0.000198655
0.00860032
-0.000195866
0.00864874
-0.000192869
0.00869634
-0.000189672
0.0087431
-0.000186281
0.00878895
-0.000182703
0.00883386
-0.000178947
0.00887778
-0.000175017
0.00892067
-0.000170919
0.0089625
-0.00016666
0.00900321
-0.000162243
0.00904278
-0.000157672
0.00908116
-0.000152952
0.00911832
-0.000148085
0.00915423
-0.000143074
0.00918885
-0.00013792
0.00922214
-0.000132626
0.00925407
-0.000127191
0.00928461
-0.000121618
0.00931371
-0.000115907
0.00934136
-0.000110058
0.0093675
-0.000104072
0.00939211
-9.79496e-05
0.00941516
-9.16917e-05
0.0094366
-8.52994e-05
0.00945641
-7.87741e-05
0.00947456
-7.21179e-05
0.009491
-6.53332e-05
0.00950571
-5.84234e-05
0.00951866
-5.13922e-05
0.00952981
-4.42443e-05
0.00953914
-3.69854e-05
0.00954663
-2.96216e-05
0.00955224
-2.21603e-05
0.00955595
-1.46096e-05
0.00955774
-6.97829e-06
0.0095576
7.2342e-07
0.00955551
8.48484e-06
0.00955145
1.62946e-05
0.00954542
2.41403e-05
0.00953741
3.2009e-05
0.00952741
3.98869e-05
0.00951543
4.77598e-05
0.00950148
5.5613e-05
0.00948555
6.34314e-05
0.00946767
7.11993e-05
0.00944785
7.8901e-05
0.0094261
8.65207e-05
0.00940246
9.40423e-05
0.00937696
0.00010145
0.00934962
0.000108727
0.00932048
0.000115859
0.00928958
0.000122829
0.00925698
0.000129623
0.0092227
0.000136226
0.00918682
0.000142623
0.00914938
0.000148801
0.00911044
0.000154746
0.00907007
0.000160447
0.00902832
0.000165892
0.00898527
0.000171069
0.00894099
0.000175968
0.00889554
0.000180581
0.00884901
0.000184899
0.00880147
0.000188916
0.008753
0.000192624
0.00870367
0.000196019
0.00865357
0.000199096
0.00860278
0.000201852
0.00855139
0.000204287
0.00849946
0.000206398
0.00844709
0.000208186
0.00839435
0.000209652
0.00834133
0.000210799
0.00828811
0.000211629
0.00823477
0.000212148
0.00818137
0.000212361
0.00812801
0.000212273
0.00807475
0.000211891
0.00802166
0.000211222
0.00796882
0.000210275
0.0079163
0.000209057
0.00786415
0.000207575
0.00781245
0.000205838
0.00776126
0.000203851
0.00771064
0.000201621
0.00766065
0.000199152
0.00761134
0.000196447
0.00756278
0.000193506
0.00751503
0.000190331
0.00746813
0.000186919
0.00742216
0.000183268
0.00737718
0.000179376
0.00733323
0.000175242
0.00729039
0.000170867
0.00724871
0.000166256
0.00720824
0.000161419
0.00716904
0.000156372
0.00713116
0.000151135
0.00709463
0.000145739
0.00705949
0.000140218
0.00702575
0.000134613
0.00699343
0.00012897
0.00696253
0.000123337
0.00693302
0.000117762
0.00690489
0.000112293
0.0068781
0.000106975
0.00685259
0.000101846
0.00682832
9.69389e-05
0.00680522
9.22785e-05
0.00678322
8.78821e-05
0.00676226
8.37585e-05
0.00674227
7.99093e-05
0.00672317
7.63293e-05
0.00670492
7.30076e-05
0.00668743
6.99288e-05
0.00667067
6.70745e-05
0.00665457
6.44244e-05
0.00663909
6.19572e-05
0.00662419
5.96521e-05
0.00660983
5.7489e-05
0.00659598
5.54494e-05
0.00658262
5.35165e-05
0.00656972
5.16759e-05
0.00655727
4.99151e-05
0.00654523
4.82236e-05
0.00653361
4.65928e-05
0.00652238
4.50159e-05
0.00651153
4.34876e-05
0.00650106
4.20038e-05
0.00649095
4.05612e-05
0.00648119
3.91577e-05
0.00647177
3.77915e-05
0.00646268
3.64615e-05
0.00645392
3.51668e-05
0.00644547
3.39068e-05
0.00643733
3.26812e-05
0.00642949
3.14894e-05
0.00642193
3.03313e-05
0.00641466
2.92066e-05
0.00640766
2.8115e-05
0.00640093
2.70563e-05
0.00639445
2.603e-05
0.00638822
2.50359e-05
0.00638223
2.40736e-05
0.00637647
2.31426e-05
0.00637093
2.22426e-05
0.00636562
2.13729e-05
0.00636051
2.05331e-05
0.0063556
1.97226e-05
0.00635089
1.8941e-05
0.00634637
1.81875e-05
0.00634203
1.74616e-05
0.00633786
1.67627e-05
0.00633386
1.60901e-05
0.00633003
1.54432e-05
0.00632634
1.48215e-05
0.00632281
1.42242e-05
0.00631942
1.36507e-05
0.00631616
1.31003e-05
0.00631304
1.25725e-05
0.00631004
1.20666e-05
0.00630716
1.1582e-05
0.0063044
1.11181e-05
0.00630175
1.06743e-05
0.0062992
1.02499e-05
0.00629676
9.84443e-06
0.00629441
9.45731e-06
0.00629215
9.08799e-06
0.00628998
8.73592e-06
0.0062879
8.40058e-06
0.00628589
8.08148e-06
0.00628396
7.77813e-06
0.0062821
7.49006e-06
0.00628031
7.21682e-06
0.00627858
6.95798e-06
0.00627692
6.71312e-06
0.00627531
6.48185e-06
0.00627375
6.26379e-06
0.00627225
6.05858e-06
0.00627079
5.86588e-06
0.00626938
5.68541e-06
0.00626801
5.51672e-06
0.00626668
5.35995e-06
0.00626539
5.21363e-06
0.00626413
5.08094e-06
0.0062629
4.95192e-06
0.0062617
4.85411e-06
4.70835e-06
0.0062505
-2.52301e-06
0.00625201
-7.5695e-06
0.00625452
-1.26216e-05
0.00625804
-1.76847e-05
0.00626257
-2.27639e-05
0.00626812
-2.78638e-05
0.00627469
-3.29892e-05
0.00628228
-3.81444e-05
0.00629091
-4.33335e-05
0.00630058
-4.85604e-05
0.0063113
-5.38286e-05
0.00632309
-5.91413e-05
0.00633594
-6.45013e-05
0.00634987
-6.99109e-05
0.0063649
-7.5372e-05
0.00638103
-8.08857e-05
0.00639827
-8.6453e-05
0.00641664
-9.20737e-05
0.00643615
-9.77473e-05
0.0064568
-0.000103473
0.00647862
-0.000109247
0.0065016
-0.000115069
0.00652577
-0.000120933
0.00655112
-0.000126835
0.00657767
-0.00013277
0.00660542
-0.000138732
0.00663438
-0.000144712
0.00666454
-0.000150703
0.00669592
-0.000156695
0.00672852
-0.000162677
0.00676232
-0.000168639
0.00679732
-0.000174568
0.00683351
-0.000180451
0.00687089
-0.000186274
0.00690944
-0.000192023
0.00694914
-0.000197681
0.00698997
-0.000203233
0.00703191
-0.000208663
0.00707492
-0.000213952
0.00711899
-0.000219085
0.00716407
-0.000224044
0.00721012
-0.000228811
0.0072571
-0.000233369
0.00730497
-0.000237702
0.00735368
-0.000241793
0.00740317
-0.000245626
0.00745339
-0.000249188
0.00750428
-0.000252464
0.00755578
-0.000255441
0.00760782
-0.000258108
0.00766035
-0.000260455
0.00771328
-0.000262473
0.00776656
-0.000264155
0.00782012
-0.000265495
0.00787387
-0.00026649
0.00792776
-0.000267137
0.0079817
-0.000267434
0.00803564
-0.000267384
0.00808948
-0.000266987
0.00814318
-0.000266248
0.00819665
-0.00026517
0.00824984
-0.000263761
0.00830266
-0.000262026
0.00835507
-0.000259974
0.00840699
-0.000257614
0.00845837
-0.000254954
0.00850914
-0.000252004
0.00855926
-0.000248773
0.00860867
-0.000245272
0.00865731
-0.000241511
0.00870514
-0.000237499
0.0087521
-0.000233246
0.00879816
-0.00022876
0.00884326
-0.000224051
0.00888737
-0.000219127
0.00893045
-0.000213994
0.00897245
-0.000208659
0.00901334
-0.000203129
0.00905307
-0.000197408
0.00909162
-0.0001915
0.00912894
-0.00018541
0.00916501
-0.000179141
0.00919978
-0.000172694
0.00923323
-0.000166071
0.00926531
-0.000159275
0.009296
-0.000152305
0.00932525
-0.000145162
0.00935304
-0.000137848
0.00937933
-0.000130362
0.00940409
-0.000122705
0.00942727
-0.000114878
0.00944886
-0.000106882
0.0094688
-9.8719e-05
0.00948708
-9.03912e-05
0.00950364
-8.19017e-05
0.00951847
-7.32543e-05
0.00953154
-6.44537e-05
0.0095428
-5.55057e-05
0.00955223
-4.64172e-05
0.0095598
-3.7196e-05
0.00956549
-2.78512e-05
0.00956928
-1.83929e-05
0.00957113
-8.83229e-06
0.00957104
8.18073e-07
0.00956898
1.05445e-05
0.00956494
2.03328e-05
0.00955891
3.01674e-05
0.00955089
4.00319e-05
0.00954087
4.9909e-05
0.00952885
5.97809e-05
0.00951483
6.96288e-05
0.00949883
7.94337e-05
0.00948085
8.91761e-05
0.00946092
9.88361e-05
0.00943904
0.000108394
0.00941526
0.000117828
0.00938959
0.00012712
0.00936207
0.000136249
0.00933273
0.000145195
0.00930162
0.000153939
0.00926878
0.000162462
0.00923426
0.000170744
0.00919812
0.000178768
0.0091604
0.000186517
0.00912117
0.000193975
0.00908049
0.000201124
0.00903843
0.000207952
0.00899506
0.000214444
0.00895044
0.000220587
0.00890465
0.00022637
0.00885777
0.000231782
0.00880987
0.000236815
0.00876103
0.000241461
0.00871134
0.000245712
0.00866087
0.000249565
0.00860971
0.000253015
0.00855794
0.000256059
0.00850564
0.000258697
0.00845289
0.000260929
0.00839979
0.000262757
0.0083464
0.000264183
0.00829282
0.000265213
0.00823912
0.00026585
0.00818537
0.000266102
0.00813167
0.000265977
0.00807808
0.000265483
0.00802467
0.000264629
0.00797152
0.000263425
0.0079187
0.000261881
0.00786627
0.000260006
0.00781429
0.000257811
0.00776284
0.000255304
0.00771197
0.000252492
0.00766174
0.000249381
0.00761221
0.000245975
0.00756344
0.000242276
0.00751549
0.000238284
0.00746841
0.000233996
0.00742227
0.000229411
0.00737712
0.000224526
0.00733302
0.00021934
0.00729003
0.000213854
0.00724822
0.000208075
0.00720762
0.000202013
0.0071683
0.00019569
0.00713031
0.000189131
0.00709367
0.000182373
0.00705843
0.000175459
0.0070246
0.000168441
0.0069922
0.000161374
0.00696122
0.00015432
0.00693164
0.000147338
0.00690344
0.000140489
0.00687659
0.000133828
0.00685104
0.000127403
0.00682672
0.000121255
0.00680358
0.000115417
0.00678155
0.000109908
0.00676057
0.000104741
0.00674056
9.99185e-05
0.00672146
9.54328e-05
0.0067032
9.12707e-05
0.00668571
8.74132e-05
0.00666895
8.38372e-05
0.00665286
8.05172e-05
0.00663739
7.74267e-05
0.0066225
7.45395e-05
0.00660816
7.18304e-05
0.00659433
6.92762e-05
0.00658099
6.6856e-05
0.00656812
6.45517e-05
0.00655568
6.23474e-05
0.00654368
6.02301e-05
0.00653208
5.81891e-05
0.00652088
5.62158e-05
0.00651006
5.43035e-05
0.00649962
5.2447e-05
0.00648954
5.06424e-05
0.00647981
4.88868e-05
0.00647042
4.71781e-05
0.00646137
4.55148e-05
0.00645264
4.38959e-05
0.00644423
4.23205e-05
0.00643612
4.07882e-05
0.00642831
3.92985e-05
0.00642079
3.7851e-05
0.00641355
3.64454e-05
0.00640659
3.50813e-05
0.00639989
3.37583e-05
0.00639344
3.24761e-05
0.00638724
3.12342e-05
0.00638128
3.00321e-05
0.00637556
2.88692e-05
0.00637005
2.7745e-05
0.00636477
2.66589e-05
0.00635969
2.56103e-05
0.00635482
2.45983e-05
0.00635013
2.36223e-05
0.00634564
2.26817e-05
0.00634133
2.17755e-05
0.00633719
2.0903e-05
0.00633321
2.00636e-05
0.0063294
1.92562e-05
0.00632574
1.84803e-05
0.00632223
1.77349e-05
0.00631886
1.70192e-05
0.00631563
1.63325e-05
0.00631253
1.5674e-05
0.00630955
1.50428e-05
0.00630669
1.44383e-05
0.00630395
1.38595e-05