/*--------------------------------*- C++ -*----------------------------------*\
| =========                 |                                                 |
| \\      /  F ield         | OpenFOAM: The Open Source CFD Toolbox           |
|  \\    /   O peration     | Version:  2306                                  |
|   \\  /    A nd           | Website:  www.openfoam.com                      |
|    \\/     M anipulation  |                                                 |
\*---------------------------------------------------------------------------*/
FoamFile
{
    version     2.0;
    format      ascii;
    arch        "LSB;label=32;scalar=64";
    class       volScalarField;
    location    "4.5";
    object      T;
}
// * * * * * * * * * * * * * * * * * * * * * * * * * * * * * * * * * * * * * //

dimensions      [0 0 0 1 0 0 0];

internalField   nonuniform List<scalar> 
32768
(
300
300
300
300
300
300
300
300
300
300
300
300
300
300
300
300
300
300
300
300
300
300
300
300
300
300
300
300
300
300
300
300
300
300
300
300
300
300
300
300
300
300
300
300
300
300
300
300
300
300
300
300
299.999
299.999
299.999
299.999
299.999
299.999
299.999
299.998
299.998
299.998
299.997
299.997
299.996
299.996
299.995
299.994
299.994
299.993
299.991
299.99
299.989
299.987
299.985
299.983
299.981
299.978
299.975
299.972
299.968
299.964
299.959
299.954
299.948
299.941
299.934
299.925
299.916
299.906
299.895
299.882
299.869
299.853
299.837
299.818
299.797
299.775
299.75
299.722
299.692
299.658
299.622
299.581
299.537
299.488
299.435
299.376
299.312
299.241
299.163
299.078
298.985
298.882
298.769
298.646
298.51
298.361
298.197
298.018
297.82
297.604
297.366
297.104
296.817
296.501
296.153
295.772
295.352
294.891
294.384
293.827
293.216
292.544
291.807
290.998
290.111
289.139
288.075
286.912
285.64
284.253
282.74
281.094
279.305
277.364
275.262
272.99
270.539
267.902
265.069
262.035
258.793
255.338
251.666
247.774
243.661
239.327
234.776
230.009
225.034
219.856
214.487
208.936
203.216
197.341
191.327
185.19
178.949
172.621
166.226
159.784
153.314
146.836
140.371
133.938
127.555
121.242
115.015
108.892
102.889
97.0193
91.2975
85.7357
80.3448
75.1346
70.1134
65.288
60.6642
56.2459
52.0361
48.0362
44.2466
40.6663
37.2932
34.1243
31.1555
28.3819
25.7977
23.3969
21.1723
19.1167
17.2225
15.4816
13.8859
12.4272
11.0973
9.88789
8.79104
7.79881
6.90351
6.09775
5.3744
4.72666
4.14808
3.63255
3.17432
2.76803
2.40864
2.09152
1.81235
1.56718
1.35235
1.16455
1.00073
0.858126
0.734214
0.626664
0.533301
0.452004
0.380562
0.316399
0.256079
0.194383
0.122586
0.0252102
-0.12607
-0.383924
-0.847019
-1.70082
-3.29447
-6.28562
-11.9133
-22.5115
-42.477
-80.0905
-150.945
-284.398
-535.712
-1008.9
-1899.67
-3576.26
-6731.33
-12667.6
-23835
-44838.8
300
300
300
300
300
300
300
300
300
300
300
300
300
300
300
300
300
300
300
300
300
300
300
300
300
300
300
300
300
300
300
300
300
300
300
300
300
300
300
300
300
300
300
300
300
300
300
300
300
300
300
300
299.999
299.999
299.999
299.999
299.999
299.999
299.999
299.998
299.998
299.998
299.997
299.997
299.996
299.996
299.995
299.994
299.993
299.992
299.991
299.99
299.988
299.987
299.985
299.983
299.98
299.978
299.975
299.971
299.967
299.963
299.958
299.953
299.946
299.94
299.932
299.924
299.914
299.904
299.893
299.88
299.866
299.85
299.833
299.814
299.793
299.77
299.745
299.717
299.686
299.652
299.615
299.574
299.53
299.48
299.426
299.367
299.302
299.231
299.153
299.067
298.973
298.87
298.757
298.632
298.496
298.347
298.182
298.002
297.805
297.587
297.349
297.087
296.799
296.483
296.135
295.753
295.333
294.872
294.365
293.808
293.197
292.525
291.788
290.979
290.093
289.121
288.058
286.894
285.623
284.236
282.724
281.078
279.29
277.35
275.248
272.977
270.527
267.89
265.058
262.025
258.783
255.328
251.657
247.765
243.652
239.319
234.767
230.001
225.025
219.848
214.478
208.927
203.207
197.331
191.317
185.179
178.937
172.608
166.212
159.769
153.298
146.82
140.354
133.92
127.537
121.222
114.995
108.872
102.868
96.998
91.2759
85.7139
80.323
75.1128
70.0917
65.2666
60.643
56.2251
52.0158
48.0165
44.2275
40.6479
37.2755
34.1074
31.1393
28.3665
25.7832
23.3832
21.1594
19.1047
17.2113
15.4711
13.8762
12.4183
11.0891
9.88038
8.78417
7.79255
6.89783
6.0926
5.36975
4.72248
4.14432
3.62919
3.17132
2.76536
2.40628
2.08943
1.8105
1.56555
1.35092
1.16329
0.999634
0.857174
0.733386
0.625947
0.53268
0.451468
0.3801
0.316002
0.255738
0.194089
0.122331
0.0249866
-0.126272
-0.384115
-0.847213
-1.70104
-3.29474
-6.28599
-11.9138
-22.5123
-42.4782
-80.0922
-150.947
-284.401
-535.714
-1008.9
-1899.66
-3576.23
-6731.26
-12667.5
-23834.6
-44838.3
300
300
300
300
300
300
300
300
300
300
300
300
300
300
300
300
300
300
300
300
300
300
300
300
300
300
300
300
300
300
300
300
300
300
300
300
300
300
300
300
300
300
300
300
300
300
300
300
300
300
300
300
299.999
299.999
299.999
299.999
299.999
299.999
299.999
299.998
299.998
299.998
299.997
299.997
299.996
299.996
299.995
299.994
299.993
299.992
299.991
299.99
299.988
299.986
299.984
299.982
299.979
299.977
299.973
299.97
299.966
299.961
299.956
299.95
299.944
299.937
299.929
299.92
299.91
299.9
299.888
299.874
299.86
299.844
299.826
299.806
299.785
299.761
299.735
299.706
299.675
299.64
299.602
299.56
299.514
299.464
299.409
299.349
299.283
299.211
299.131
299.044
298.949
298.845
298.731
298.605
298.468
298.318
298.152
297.971
297.773
297.555
297.315
297.052
296.764
296.447
296.099
295.717
295.297
294.835
294.328
293.771
293.16
292.489
291.752
290.944
290.058
289.087
288.025
286.863
285.593
284.207
282.697
281.052
279.266
277.327
275.228
272.958
270.51
267.875
265.045
262.014
258.774
255.321
251.651
247.761
243.65
239.318
234.767
230.002
225.027
219.85
214.48
208.929
203.208
197.333
191.317
185.179
178.936
172.606
166.209
159.764
153.292
146.812
140.344
133.908
127.523
121.207
114.978
108.853
102.848
96.9771
91.254
85.6911
80.2994
75.0886
70.0671
65.2417
60.618
56.2002
51.9911
47.9922
44.2036
40.6246
37.2529
34.0855
31.1183
28.3464
25.7641
23.365
21.1423
19.0885
17.1961
15.457
13.8631
12.4061
11.0778
9.87004
8.7747
7.7839
6.88995
6.08545
5.36329
4.71665
4.13909
3.62449
3.16713
2.76162
2.40296
2.08649
1.80791
1.56326
1.34891
1.16154
0.998101
0.855838
0.732225
0.624941
0.53181
0.450717
0.379454
0.315446
0.255258
0.193675
0.121968
0.0246621
-0.126575
-0.38442
-0.847553
-1.70147
-3.29534
-6.2869
-11.9152
-22.5146
-42.4819
-80.0981
-150.957
-284.415
-535.737
-1008.93
-1899.71
-3576.29
-6731.32
-12667.5
-23834.6
-44838.1
300
300
300
300
300
300
300
300
300
300
300
300
300
300
300
300
300
300
300
300
300
300
300
300
300
300
300
300
300
300
300
300
300
300
300
300
300
300
300
300
300
300
300
300
300
300
300
300
300
300
300
300
299.999
299.999
299.999
299.999
299.999
299.999
299.998
299.998
299.998
299.997
299.997
299.997
299.996
299.995
299.995
299.994
299.993
299.992
299.99
299.989
299.987
299.985
299.983
299.981
299.978
299.975
299.971
299.967
299.963
299.958
299.953
299.947
299.94
299.932
299.924
299.914
299.904
299.893
299.88
299.866
299.851
299.834
299.815
299.794
299.772
299.747
299.719
299.689
299.657
299.621
299.581
299.538
299.491
299.439
299.382
299.321
299.253
299.179
299.098
299.009
298.912
298.807
298.691
298.564
298.425
298.273
298.106
297.923
297.723
297.504
297.263
297
296.71
296.392
296.044
295.661
295.24
294.779
294.272
293.715
293.104
292.433
291.698
290.89
290.006
289.037
287.976
286.815
285.548
284.164
282.656
281.015
279.231
277.295
275.199
272.933
270.488
267.856
265.029
262.001
258.765
255.315
251.648
247.76
243.652
239.322
234.773
230.009
225.036
219.86
214.491
208.94
203.22
197.344
191.327
185.188
178.943
172.612
166.213
159.766
153.291
146.809
140.339
133.9
127.513
121.194
114.963
108.836
102.828
96.9552
91.2303
85.6658
80.2727
75.0608
70.0383
65.2123
60.5882
56.1701
51.961
47.9622
44.1741
40.5955
37.2246
34.058
31.0918
28.3209
25.7397
23.3418
21.1202
19.0678
17.1766
15.4388
13.8461
12.3903
11.0632
9.8566
8.76236
7.77261
6.87967
6.07612
5.35483
4.70902
4.13223
3.61835
3.16164
2.75673
2.39861
2.08264
1.80451
1.56027
1.34628
1.15923
0.996089
0.854085
0.730702
0.623621
0.530669
0.449733
0.378605
0.314715
0.254628
0.193129
0.121489
0.0242285
-0.126987
-0.384847
-0.848049
-1.70211
-3.29628
-6.28836
-11.9176
-22.5185
-42.4883
-80.1086
-150.974
-284.443
-535.78
-1009
-1899.81
-3576.44
-6731.53
-12667.8
-23834.9
-44838.3
300
300
300
300
300
300
300
300
300
300
300
300
300
300
300
300
300
300
300
300
300
300
300
300
300
300
300
300
300
300
300
300
300
300
300
300
300
300
300
300
300
300
300
300
300
300
300
300
300
300
300
300
299.999
299.999
299.999
299.999
299.999
299.999
299.998
299.998
299.998
299.997
299.997
299.996
299.996
299.995
299.994
299.993
299.992
299.991
299.989
299.988
299.986
299.984
299.981
299.979
299.976
299.972
299.968
299.964
299.959
299.954
299.948
299.941
299.934
299.926
299.916
299.906
299.895
299.883
299.869
299.854
299.837
299.819
299.799
299.777
299.753
299.726
299.697
299.666
299.631
299.593
299.552
299.506
299.457
299.403
299.345
299.28
299.211
299.134
299.051
298.96
298.861
298.753
298.634
298.505
298.364
298.21
298.041
297.857
297.655
297.434
297.192
296.926
296.636
296.317
295.967
295.584
295.163
294.701
294.194
293.638
293.027
292.357
291.623
290.817
289.934
288.967
287.908
286.751
285.486
284.106
282.601
280.964
279.184
277.252
275.16
272.898
270.458
267.831
265.009
261.985
258.753
255.307
251.644
247.761
243.656
239.33
234.784
230.023
225.051
219.877
214.51
208.959
203.239
197.362
191.346
185.205
178.958
172.625
166.223
159.774
153.296
146.811
140.337
133.895
127.504
121.183
114.948
108.818
102.807
96.9314
91.2039
85.6371
80.2421
75.0285
70.0047
65.1775
60.5526
56.1341
51.9248
47.9261
44.1383
40.5603
37.1901
34.0244
31.0592
28.2896
25.7097
23.3132
21.0931
19.0422
17.1525
15.4162
13.825
12.3708
11.0451
9.83994
8.74706
7.75861
6.86691
6.06452
5.34433
4.69955
4.12371
3.6107
3.15481
2.75064
2.39321
2.07785
1.80028
1.55654
1.34301
1.15637
0.993587
0.851907
0.72881
0.621981
0.529251
0.44851
0.377552
0.313808
0.253846
0.192449
0.12089
0.0236845
-0.12751
-0.385397
-0.848699
-1.70298
-3.29756
-6.29038
-11.9209
-22.5239
-42.4973
-80.1236
-150.998
-284.483
-535.845
-1009.1
-1899.97
-3576.67
-6731.87
-12668.3
-23835.5
-44838.7
300
300
300
300
300
300
300
300
300
300
300
300
300
300
300
300
300
300
300
300
300
300
300
300
300
300
300
300
300
300
300
300
300
300
300
300
300
300
300
300
300
300
300
300
300
300
300
300
300
300
300
299.999
299.999
299.999
299.999
299.999
299.999
299.998
299.998
299.998
299.997
299.997
299.997
299.996
299.995
299.994
299.993
299.992
299.991
299.99
299.988
299.986
299.984
299.982
299.979
299.976
299.973
299.969
299.964
299.96
299.954
299.948
299.941
299.934
299.926
299.916
299.906
299.895
299.882
299.869
299.854
299.837
299.819
299.799
299.777
299.753
299.727
299.698
299.667
299.633
299.596
299.556
299.512
299.464
299.412
299.355
299.294
299.227
299.154
299.074
298.988
298.894
298.792
298.681
298.56
298.428
298.284
298.127
297.955
297.768
297.564
297.341
297.097
296.83
296.537
296.217
295.866
295.482
295.061
294.598
294.092
293.536
292.926
292.257
291.524
290.721
289.84
288.875
287.82
286.666
285.405
284.029
282.529
280.896
279.121
277.195
275.109
272.853
270.418
267.797
264.981
261.963
258.737
255.297
251.639
247.761
243.661
239.339
234.797
230.04
225.071
219.899
214.533
208.984
203.264
197.387
191.37
185.228
178.979
172.643
166.239
159.786
153.305
146.815
140.338
133.892
127.496
121.171
114.932
108.798
102.783
96.9042
91.1736
85.604
80.2064
74.9907
69.9651
65.1366
60.5107
56.0915
51.8819
47.8832
44.0956
40.5183
37.1489
33.9843
31.0204
28.2521
25.6738
23.2789
21.0606
19.0114
17.1236
15.3891
13.7998
12.3473
11.0234
9.81992
8.72868
7.7418
6.85157
6.05059
5.33172
4.68817
4.11347
3.60152
3.1466
2.74333
2.38671
2.0721
1.7952
1.55207
1.33909
1.15293
0.990587
0.849294
0.726541
0.620015
0.527552
0.447044
0.376289
0.312721
0.252908
0.191634
0.12017
0.0230286
-0.128145
-0.38607
-0.849504
-1.70407
-3.29918
-6.29294
-11.9251
-22.5309
-42.5089
-80.1429
-151.03
-284.535
-535.929
-1009.23
-1900.18
-3576.99
-6732.34
-12668.9
-23836.3
-44839.5
300
300
300
300
300
300
300
300
300
300
300
300
300
300
300
300
300
300
300
300
300
300
300
300
300
300
300
300
300
300
300
300
300
300
300
300
300
300
300
300
300
300
300
300
300
300
300
300
300
300
300
299.999
299.999
299.999
299.999
299.999
299.999
299.998
299.998
299.998
299.997
299.997
299.996
299.995
299.995
299.994
299.993
299.991
299.99
299.988
299.986
299.984
299.982
299.979
299.976
299.972
299.969
299.964
299.959
299.954
299.947
299.94
299.933
299.924
299.915
299.904
299.893
299.88
299.866
299.85
299.833
299.815
299.795
299.772
299.748
299.722
299.693
299.662
299.628
299.591
299.551
299.507
299.46
299.408
299.353
299.293
299.227
299.157
299.08
298.997
298.907
298.809
298.703
298.588
298.463
298.328
298.18
298.02
297.845
297.655
297.448
297.222
296.975
296.706
296.412
296.09
295.738
295.352
294.93
294.468
293.961
293.406
292.797
292.13
291.399
290.598
289.72
288.759
287.707
286.557
285.301
283.93
282.436
280.809
279.041
277.121
275.042
272.793
270.365
267.751
264.943
261.932
258.713
255.28
251.63
247.758
243.664
239.347
234.81
230.057
225.092
219.923
214.559
209.012
203.292
197.416
191.397
185.254
179.003
172.664
166.256
159.8
153.314
146.82
140.338
133.887
127.487
121.156
114.913
108.774
102.756
96.8723
91.1379
85.5649
80.1644
74.9462
69.9185
65.0883
60.4612
56.0413
51.8312
47.8326
44.0454
40.4687
37.1003
33.937
30.9746
28.208
25.6315
23.2386
21.0223
18.9752
17.0896
15.3573
13.7701
12.3197
10.9979
9.79639
8.70708
7.72203
6.83356
6.03423
5.31691
4.6748
4.10145
3.59075
3.13698
2.73476
2.3791
2.06536
1.78925
1.54684
1.33449
1.14891
0.987074
0.846236
0.723885
0.617715
0.525564
0.44533
0.374814
0.31145
0.251811
0.190681
0.119329
0.0222594
-0.128891
-0.386867
-0.850464
-1.70538
-3.30114
-6.29605
-11.9302
-22.5394
-42.5232
-80.1666
-151.07
-284.6
-536.034
-1009.4
-1900.44
-3577.4
-6732.94
-12669.7
-23837.4
-44840.7
300
300
300
300
300
300
300
300
300
300
300
300
300
300
300
300
300
300
300
300
300
300
300
300
300
300
300
300
300
300
300
300
300
300
300
300
300
300
300
300
300
300
300
300
300
300
300
300
300
300
299.999
299.999
299.999
299.999
299.999
299.999
299.998
299.998
299.998
299.997
299.997
299.996
299.995
299.995
299.994
299.993
299.991
299.99
299.988
299.986
299.984
299.982
299.979
299.975
299.972
299.968
299.963
299.958
299.952
299.945
299.938
299.93
299.921
299.911
299.9
299.888
299.874
299.86
299.844
299.826
299.807
299.786
299.763
299.738
299.71
299.681
299.649
299.614
299.576
299.535
299.491
299.444
299.392
299.337
299.277
299.212
299.142
299.067
298.985
298.898
298.803
298.7
298.59
298.47
298.341
298.201
298.049
297.885
297.706
297.512
297.301
297.072
296.823
296.551
296.254
295.93
295.577
295.19
294.767
294.305
293.799
293.244
292.637
291.971
291.242
290.444
289.57
288.613
287.566
286.421
285.171
283.806
282.318
280.699
278.938
277.026
274.955
272.714
270.296
267.691
264.891
261.889
258.679
255.254
251.612
247.748
243.661
239.351
234.82
230.072
225.112
219.946
214.585
209.04
203.321
197.445
191.425
185.28
179.027
172.686
166.274
159.813
153.323
146.824
140.336
133.88
127.474
121.138
114.889
108.745
102.722
96.8337
91.0951
85.5183
80.1145
74.8934
69.8634
65.0315
60.403
55.9823
51.7719
47.7733
43.9866
40.4108
37.0437
33.8818
30.9212
28.1566
25.5823
23.1917
20.9778
18.9333
17.0501
15.3203
13.7356
12.2877
10.9683
9.76915
8.68208
7.69918
6.81274
6.01532
5.2998
4.65938
4.08758
3.57833
3.12588
2.72488
2.37033
2.05759
1.7824
1.54081
1.3292
1.14428
0.983034
0.84272
0.720833
0.615073
0.523282
0.443362
0.373119
0.309992
0.250553
0.189588
0.118362
0.0213751
-0.129752
-0.387788
-0.851579
-1.7069
-3.30342
-6.2997
-11.9362
-22.5494
-42.5399
-80.1946
-151.116
-284.676
-536.159
-1009.6
-1900.76
-3577.88
-6733.66
-12670.8
-23838.7
-44842.2
300
300
300
300
300
300
300
300
300
300
300
300
300
300
300
300
300
300
300
300
300
300
300
300
300
300
300
300
300
300
300
300
300
300
300
300
300
300
300
300
300
300
300
300
300
300
300
300
300
300
299.999
299.999
299.999
299.999
299.999
299.998
299.998
299.998
299.997
299.997
299.996
299.996
299.995
299.994
299.993
299.991
299.99
299.988
299.986
299.984
299.981
299.978
299.974
299.97
299.966
299.961
299.956
299.949
299.942
299.934
299.926
299.916
299.905
299.894
299.881
299.866
299.851
299.833
299.815
299.794
299.772
299.747
299.721
299.692
299.661
299.628
299.591
299.552
299.51
299.464
299.415
299.363
299.306
299.245
299.18
299.109
299.034
298.953
298.866
298.772
298.672
298.564
298.447
298.322
298.187
298.042
297.885
297.716
297.533
297.334
297.119
296.886
296.633
296.358
296.059
295.733
295.378
294.99
294.566
294.104
293.598
293.044
292.439
291.775
291.049
290.255
289.385
288.433
287.391
286.253
285.009
283.652
282.172
280.561
278.808
276.906
274.845
272.614
270.206
267.611
264.822
261.83
258.63
255.215
251.582
247.727
243.648
239.346
234.823
230.081
225.126
219.965
214.608
209.064
203.347
197.471
191.451
185.305
179.049
172.704
166.289
159.823
153.328
146.823
140.33
133.867
127.455
121.113
114.858
108.708
102.679
96.7863
91.0431
85.4623
80.0549
74.8308
69.7983
64.9645
60.3348
55.9132
51.7026
47.7043
43.9183
40.3437
36.978
33.8181
30.8595
28.0973
25.5255
23.1377
20.9267
18.885
17.0048
15.2779
13.6961
12.2511
10.9345
9.738
8.65351
7.67307
6.78896
5.99375
5.28029
4.64179
4.07179
3.56418
3.11325
2.71364
2.36035
2.04877
1.77462
1.53396
1.32319
1.13903
0.978452
0.838733
0.717374
0.612078
0.520696
0.441133
0.371201
0.308341
0.249129
0.18835
0.117268
0.0203736
-0.130728
-0.388836
-0.85285
-1.70864
-3.30604
-6.30388
-11.9431
-22.5609
-42.5592
-80.2268
-151.17
-284.765
-536.303
-1009.83
-1901.12
-3578.45
-6734.51
-12672
-23840.3
-44844.1
300
300
300
300
300
300
300
300
300
300
300
300
300
300
300
300
300
300
300
300
300
300
300
300
300
300
300
300
300
300
300
300
300
300
300
300
300
300
300
300
300
300
300
300
300
300
300
300
300
299.999
299.999
299.999
299.999
299.999
299.999
299.998
299.998
299.997
299.997
299.996
299.996
299.995
299.994
299.992
299.991
299.989
299.988
299.985
299.983
299.98
299.977
299.973
299.969
299.964
299.959
299.952
299.946
299.938
299.93
299.92
299.91
299.898
299.885
299.871
299.855
299.838
299.82
299.799
299.777
299.753
299.727
299.698
299.667
299.634
299.598
299.559
299.518
299.473
299.425
299.374
299.319
299.26
299.197
299.129
299.057
298.98
298.898
298.81
298.716
298.615
298.508
298.393
298.27
298.138
297.997
297.845
297.682
297.507
297.318
297.115
296.895
296.658
296.401
296.122
295.82
295.491
295.134
294.745
294.321
293.858
293.353
292.801
292.197
291.536
290.814
290.023
289.158
288.212
287.177
286.046
284.81
283.461
281.991
280.389
278.647
276.756
274.706
272.487
270.09
267.507
264.729
261.75
258.561
255.158
251.536
247.691
243.622
239.33
234.814
230.079
225.131
219.975
214.622
209.081
203.366
197.491
191.471
185.323
179.065
172.716
166.297
159.826
153.325
146.815
140.315
133.846
127.427
121.078
114.817
108.661
102.626
96.7279
90.9798
85.3946
79.9835
74.7563
69.7214
64.8857
60.2548
55.8326
51.622
47.6242
43.8393
40.2662
36.9024
33.7447
30.7888
28.0294
25.4607
23.076
20.8683
18.83
16.9532
15.2297
13.6513
12.2095
10.8961
9.70269
8.62116
7.64353
6.76208
5.96937
5.25826
4.62194
4.05397
3.54823
3.09902
2.70098
2.34912
2.03884
1.76586
1.52626
1.31645
1.13313
0.973308
0.83426
0.713494
0.608721
0.517798
0.438637
0.369053
0.306493
0.247535
0.186965
0.116043
0.0192528
-0.13182
-0.390009
-0.854276
-1.7106
-3.30899
-6.30858
-11.9508
-22.5738
-42.5809
-80.2632
-151.23
-284.864
-536.466
-1010.1
-1901.54
-3579.09
-6735.47
-12673.4
-23842.2
-44846.3
300
300
300
300
300
300
300
300
300
300
300
300
300
300
300
300
300
300
300
300
300
300
300
300
300
300
300
300
300
300
300
300
300
300
300
300
300
300
300
300
300
300
300
300
300
300
300
300
300
299.999
299.999
299.999
299.999
299.999
299.998
299.998
299.997
299.997
299.996
299.995
299.995
299.993
299.992
299.991
299.989
299.987
299.985
299.982
299.979
299.975
299.971
299.966
299.961
299.955
299.949
299.941
299.933
299.923
299.913
299.901
299.888
299.874
299.858
299.841
299.822
299.802
299.779
299.755
299.728
299.699
299.668
299.635
299.598
299.559
299.517
299.472
299.424
299.373
299.318
299.259
299.196
299.13
299.059
298.983
298.903
298.818
298.727
298.631
298.528
298.419
298.304
298.181
298.05
297.91
297.761
297.602
297.432
297.25
297.055
296.846
296.621
296.378
296.117
295.834
295.529
295.197
294.838
294.448
294.023
293.56
293.056
292.505
291.904
291.247
290.529
289.743
288.884
287.944
286.917
285.794
284.567
283.229
281.769
280.178
278.449
276.57
274.532
272.326
269.943
267.374
264.61
261.644
258.468
255.078
251.468
247.636
243.578
239.296
234.79
230.063
225.122
219.973
214.624
209.087
203.375
197.5
191.48
185.331
179.07
172.718
166.294
159.818
153.312
146.795
140.288
133.812
127.387
121.031
114.763
108.601
102.56
96.6558
90.9027
85.3131
79.8982
74.668
69.6307
64.7933
60.1614
55.7389
51.5286
47.5318
43.7483
40.1771
36.8157
33.6608
30.708
27.952
25.3869
23.0059
20.8021
18.7677
16.8948
15.1752
13.6007
12.1627
10.8529
9.66298
8.58479
7.61035
6.73191
5.94204
5.23358
4.59972
4.03403
3.5304
3.08312
2.68684
2.33659
2.02777
1.7561
1.51769
1.30893
1.12656
0.967583
0.829284
0.709179
0.604989
0.514578
0.435864
0.366668
0.304442
0.245767
0.185429
0.114686
0.0180106
-0.133031
-0.39131
-0.855856
-1.71276
-3.31226
-6.31381
-11.9594
-22.5882
-42.6051
-80.3036
-151.297
-284.976
-536.647
-1010.39
-1902
-3579.81
-6736.55
-12674.9
-23844.3
-44848.8
300
300
300
300
300
300
300
300
300
300
300
300
300
300
300
300
300
300
300
300
300
300
300
300
300
300
300
300
300
300
300
300
300
300
300
300
300
300
300
300
300
300
300
300
300
300
300
300
299.999
299.999
299.999
299.999
299.999
299.998
299.998
299.997
299.997
299.996
299.995
299.994
299.993
299.992
299.99
299.988
299.986
299.984
299.981
299.977
299.973
299.969
299.964
299.958
299.951
299.944
299.935
299.926
299.915
299.904
299.891
299.876
299.86
299.843
299.824
299.802
299.779
299.754
299.727
299.697
299.665
299.631
299.593
299.553
299.51
299.464
299.414
299.361
299.305
299.245
299.181
299.114
299.042
298.966
298.885
298.8
298.71
298.615
298.514
298.408
298.295
298.177
298.051
297.919
297.778
297.63
297.472
297.304
297.126
296.937
296.734
296.518
296.287
296.039
295.772
295.485
295.176
294.842
294.481
294.089
293.664
293.202
292.699
292.15
291.552
290.899
290.186
289.406
288.554
287.622
286.604
285.491
284.274
282.947
281.499
279.922
278.206
276.341
274.318
272.127
269.759
267.205
264.456
261.505
258.345
254.97
251.374
247.555
243.51
239.239
234.744
230.028
225.095
219.952
214.61
209.077
203.367
197.495
191.474
185.324
179.061
172.706
166.277
159.796
153.284
146.76
140.247
133.764
127.331
120.968
114.693
108.524
102.477
96.5672
90.809
85.215
79.7965
74.5634
69.5239
64.6852
60.0527
55.6303
51.4208
47.4253
43.6439
40.0752
36.7169
33.5654
30.6163
27.8643
25.3033
22.9268
20.7274
18.6975
16.8292
15.1141
13.5439
12.1102
10.8045
9.61857
8.54417
7.57332
6.69828
5.91159
5.2061
4.57501
4.01187
3.51059
3.06547
2.67116
2.3227
2.0155
1.7453
1.5082
1.30062
1.1193
0.961259
0.823789
0.704417
0.600872
0.511027
0.432807
0.36404
0.302183
0.24382
0.183739
0.113193
0.0166446
-0.134361
-0.392739
-0.857592
-1.71514
-3.31584
-6.31954
-11.9689
-22.6041
-42.6316
-80.3481
-151.371
-285.098
-536.847
-1010.71
-1902.51
-3580.6
-6737.75
-12676.7
-23846.6
-44851.7
300
300
300
300
300
300
300
300
300
300
300
300
300
300
300
300
300
300
300
300
300
300
300
300
300
300
300
300
300
300
300
300
300
300
300
300
300
300
300
300
300
300
300
300
300
300
300
299.999
299.999
299.999
299.999
299.999
299.998
299.998
299.997
299.997
299.996
299.995
299.994
299.993
299.991
299.99
299.988
299.985
299.982
299.979
299.975
299.971
299.966
299.96
299.954
299.946
299.938
299.929
299.918
299.906
299.893
299.878
299.862
299.844
299.824
299.802
299.778
299.752
299.724
299.693
299.66
299.623
299.584
299.542
299.497
299.449
299.397
299.342
299.283
299.221
299.154
299.084
299.009
298.931
298.848
298.76
298.668
298.571
298.469
298.362
298.249
298.131
298.007
297.877
297.74
297.596
297.445
297.286
297.118
296.94
296.753
296.555
296.344
296.12
295.882
295.628
295.356
295.065
294.752
294.415
294.051
293.659
293.233
292.772
292.271
291.726
291.131
290.484
289.776
289.004
288.16
287.237
286.229
285.127
283.923
282.609
281.175
279.612
277.911
276.062
274.056
271.882
269.531
266.994
264.263
261.329
258.186
254.827
251.247
247.443
243.413
239.155
234.672
229.967
225.043
219.909
214.573
209.046
203.339
197.469
191.449
185.298
179.033
172.674
166.241
159.755
153.236
146.706
140.186
133.695
127.255
120.885
114.603
108.427
102.374
96.4588
90.6958
85.0976
79.6758
74.44
69.3989
64.5593
59.9266
55.5049
51.2968
47.3034
43.5246
39.9592
36.6045
33.4571
30.5125
27.7652
25.2093
22.8378
20.6436
18.6189
16.7557
15.0457
13.4805
12.0516
10.7506
9.56918
8.49904
7.53223
6.66099
5.87786
5.17569
4.54768
3.98738
3.48872
3.04599
2.65387
2.3074
2.00199
1.7334
1.49776
1.29148
1.11132
0.954313
0.817757
0.699193
0.596358
0.507135
0.429457
0.361162
0.299709
0.24169
0.18189
0.11156
0.0151526
-0.135814
-0.394297
-0.859482
-1.71773
-3.31974
-6.32577
-11.9792
-22.6212
-42.6605
-80.3964
-151.452
-285.231
-537.065
-1011.06
-1903.07
-3581.47
-6739.06
-12678.6
-23849.2
-44854.8
300
300
300
300
300
300
300
300
300
300
300
300
300
300
300
300
300
300
300
300
300
300
300
300
300
300
300
300
300
300
300
300
300
300
300
300
300
300
300
300
300
300
300
300
300
300
299.999
299.999
299.999
299.999
299.999
299.998
299.998
299.997
299.997
299.996
299.995
299.994
299.993
299.991
299.989
299.987
299.984
299.981
299.977
299.973
299.968
299.963
299.956
299.949
299.941
299.931
299.92
299.908
299.895
299.88
299.863
299.845
299.824
299.801
299.777
299.749
299.72
299.687
299.652
299.614
299.573
299.528
299.48
299.429
299.374
299.316
299.253
299.187
299.117
299.042
298.964
298.881
298.793
298.701
298.605
298.503
298.397
298.286
298.17
298.049
297.922
297.79
297.652
297.508
297.358
297.201
297.037
296.865
296.686
296.497
296.3
296.091
295.872
295.64
295.394
295.133
294.856
294.56
294.243
293.903
293.538
293.145
292.72
292.26
291.762
291.22
290.631
289.989
289.289
288.526
287.691
286.779
285.783
284.694
283.504
282.204
280.786
279.24
277.557
275.726
273.738
271.583
269.252
266.734
264.023
261.108
257.984
254.643
251.081
247.294
243.28
239.037
234.568
229.874
224.962
219.837
214.509
208.987
203.285
197.417
191.399
185.247
178.98
172.618
166.181
159.69
153.165
146.629
140.101
133.603
127.156
120.778
114.49
108.307
102.248
96.3275
90.5599
84.9579
79.5331
74.2953
69.253
64.4131
59.781
55.3607
51.1547
47.1641
43.3889
39.8275
36.4774
33.335
30.3956
27.654
25.1037
22.7382
20.5499
18.5312
16.6739
14.9696
13.4101
11.9867
10.6909
9.5145
8.44914
7.48684
6.61984
5.84067
5.14219
4.5176
3.96046
3.46469
3.02461
2.6349
2.29061
1.98718
1.72038
1.48633
1.28149
1.1026
0.946726
0.811172
0.693491
0.591434
0.502891
0.425808
0.358027
0.297017
0.239371
0.179879
0.109786
0.0135325
-0.137389
-0.395984
-0.861525
-1.72053
-3.32395
-6.3325
-11.9903
-22.6398
-42.6916
-80.4485
-151.539
-285.374
-537.3
-1011.44
-1903.67
-3582.41
-6740.48
-12680.6
-23852
-44858.3
300
300
300
300
300
300
300
300
300
300
300
300
300
300
300
300
300
300
300
300
300
300
300
300
300
300
300
300
300
300
300
300
300
300
300
300
300
300
300
300
300
300
300
300
300
299.999
299.999
299.999
299.999
299.999
299.998
299.998
299.997
299.997
299.996
299.995
299.994
299.992
299.99
299.988
299.986
299.983
299.98
299.976
299.971
299.965
299.959
299.952
299.944
299.934
299.923
299.911
299.897
299.882
299.865
299.846
299.824
299.801
299.775
299.746
299.715
299.681
299.644
299.603
299.559
299.512
299.461
299.406
299.348
299.285
299.218
299.147
299.071
298.991
298.907
298.818
298.724
298.625
298.522
298.414
298.301
298.183
298.06
297.932
297.799
297.661
297.518
297.369
297.215
297.055
296.89
296.718
296.539
296.354
296.161
295.96
295.751
295.532
295.302
295.061
294.808
294.54
294.257
293.956
293.635
293.293
292.927
292.533
292.11
291.653
291.158
290.621
290.039
289.405
288.714
287.96
287.137
286.238
285.255
284.181
283.007
281.725
280.325
278.798
277.134
275.324
273.357
271.223
268.913
266.418
263.728
260.835
257.732
254.412
250.869
247.101
243.105
238.879
234.425
229.745
224.844
219.73
214.41
208.896
203.199
197.334
191.318
185.166
178.898
172.533
166.092
159.596
153.065
146.522
139.988
133.483
127.029
120.644
114.348
108.16
102.095
96.1696
90.3979
84.7927
79.3656
74.1264
69.0837
64.2442
59.6135
55.1955
50.9925
47.0058
43.2349
39.6786
36.334
33.1975
30.2645
27.5293
24.9858
22.6271
20.4456
18.4337
16.583
14.8854
13.3322
11.9149
10.6251
9.45424
8.3942
7.43691
6.57462
5.79985
5.10546
4.48465
3.93098
3.43841
3.00124
2.61418
2.2723
1.97104
1.70619
1.47389
1.27061
1.09312
0.938476
0.804015
0.687298
0.586088
0.498287
0.421849
0.354628
0.294099
0.236861
0.177703
0.107868
0.011782
-0.139088
-0.397801
-0.863722
-1.72353
-3.32847
-6.33971
-12.0021
-22.6597
-42.7249
-80.5044
-151.632
-285.528
-537.551
-1011.85
-1904.32
-3583.41
-6742
-12682.8
-23855.1
-44862.1
300
300
300
300
300
300
300
300
300
300
300
300
300
300
300
300
300
300
300
300
300
300
300
300
300
300
300
300
300
300
300
300
300
300
300
300
300
300
300
300
300
300
300
300
300
299.999
299.999
299.999
299.999
299.998
299.998
299.997
299.997
299.996
299.995
299.993
299.992
299.99
299.988
299.985
299.982
299.978
299.973
299.968
299.962
299.955
299.947
299.937
299.926
299.914
299.9
299.885
299.867
299.847
299.825
299.801
299.774
299.744
299.711
299.675
299.635
299.592
299.546
299.495
299.44
299.381
299.318
299.251
299.178
299.101
299.019
298.933
298.841
298.744
298.642
298.535
298.423
298.305
298.183
298.055
297.923
297.785
297.642
297.494
297.341
297.183
297.021
296.853
296.68
296.502
296.318
296.129
295.934
295.733
295.526
295.311
295.089
294.858
294.618
294.367
294.105
293.831
293.541
293.236
292.912
292.569
292.202
291.809
291.388
290.935
290.445
289.916
289.341
288.716
288.036
287.295
286.485
285.601
284.635
283.578
282.423
281.16
279.781
278.275
276.634
274.846
272.903
270.793
268.508
266.036
263.37
260.501
257.421
254.124
250.604
246.857
242.88
238.673
234.235
229.571
224.684
219.582
214.272
208.765
203.075
197.214
191.2