/*--------------------------------*- C++ -*----------------------------------*\
| =========                 |                                                 |
| \\      /  F ield         | OpenFOAM: The Open Source CFD Toolbox           |
|  \\    /   O peration     | Version:  2306                                  |
|   \\  /    A nd           | Website:  www.openfoam.com                      |
|    \\/     M anipulation  |                                                 |
\*---------------------------------------------------------------------------*/
FoamFile
{
    version     2.0;
    format      ascii;
    arch        "LSB;label=32;scalar=64";
    class       volVectorField;
    location    "4.5";
    object      U;
}
// * * * * * * * * * * * * * * * * * * * * * * * * * * * * * * * * * * * * * //

dimensions      [0 1 -1 0 0 0 0];

internalField   nonuniform List<vector> 
32768
(
(1.00001 -4.03867e-05 0)
(1.00017 -0.000121353 0)
(1.00049 -0.000202458 0)
(1.00097 -0.000283705 0)
(1.00162 -0.000365198 0)
(1.00243 -0.000447032 0)
(1.00341 -0.000529272 0)
(1.00455 -0.000611973 0)
(1.00586 -0.000695195 0)
(1.00733 -0.000778999 0)
(1.00898 -0.00086344 0)
(1.01079 -0.000948566 0)
(1.01277 -0.00103442 0)
(1.01493 -0.00112103 0)
(1.01726 -0.00120843 0)
(1.01976 -0.00129663 0)
(1.02244 -0.00138564 0)
(1.0253 -0.00147546 0)
(1.02834 -0.00156609 0)
(1.03157 -0.00165748 0)
(1.03498 -0.00174962 0)
(1.03857 -0.00184244 0)
(1.04235 -0.00193589 0)
(1.04631 -0.0020299 0)
(1.05047 -0.00212436 0)
(1.05481 -0.00221918 0)
(1.05934 -0.00231424 0)
(1.06407 -0.00240941 0)
(1.06898 -0.00250452 0)
(1.07409 -0.00259943 0)
(1.07938 -0.00269395 0)
(1.08486 -0.00278789 0)
(1.09053 -0.00288104 0)
(1.09639 -0.00297318 0)
(1.10243 -0.00306408 0)
(1.10865 -0.00315351 0)
(1.11505 -0.00324121 0)
(1.12162 -0.00332692 0)
(1.12836 -0.00341038 0)
(1.13526 -0.00349132 0)
(1.14232 -0.00356949 0)
(1.14954 -0.0036446 0)
(1.15691 -0.00371641 0)
(1.16441 -0.00378464 0)
(1.17205 -0.00384905 0)
(1.17981 -0.0039094 0)
(1.18769 -0.00396546 0)
(1.19568 -0.00401702 0)
(1.20376 -0.00406389 0)
(1.21194 -0.00410589 0)
(1.22019 -0.00414286 0)
(1.22851 -0.00417468 0)
(1.23689 -0.00420122 0)
(1.24532 -0.00422239 0)
(1.25379 -0.00423815 0)
(1.26228 -0.00424844 0)
(1.27079 -0.00425325 0)
(1.2793 -0.00425258 0)
(1.2878 -0.00424647 0)
(1.29629 -0.00423496 0)
(1.30475 -0.00421812 0)
(1.31317 -0.00419605 0)
(1.32154 -0.00416883 0)
(1.32985 -0.00413658 0)
(1.33809 -0.00409944 0)
(1.34625 -0.00405754 0)
(1.35432 -0.00401101 0)
(1.3623 -0.00396002 0)
(1.37017 -0.0039047 0)
(1.37792 -0.00384521 0)
(1.38555 -0.0037817 0)
(1.39305 -0.0037143 0)
(1.40041 -0.00364316 0)
(1.40763 -0.00356841 0)
(1.41469 -0.00349017 0)
(1.42159 -0.00340856 0)
(1.42833 -0.00332368 0)
(1.43489 -0.00323562 0)
(1.44127 -0.00314446 0)
(1.44747 -0.00305028 0)
(1.45347 -0.00295314 0)
(1.45928 -0.00285309 0)
(1.46489 -0.00275017 0)
(1.47028 -0.00264441 0)
(1.47547 -0.00253585 0)
(1.48043 -0.0024245 0)
(1.48517 -0.00231038 0)
(1.48967 -0.00219351 0)
(1.49394 -0.00207391 0)
(1.49797 -0.00195159 0)
(1.50175 -0.00182657 0)
(1.50528 -0.00169889 0)
(1.50855 -0.00156858 0)
(1.51155 -0.00143568 0)
(1.51429 -0.00130025 0)
(1.51675 -0.00116235 0)
(1.51894 -0.00102206 0)
(1.52084 -0.000879491 0)
(1.52246 -0.000734744 0)
(1.52378 -0.000587947 0)
(1.52481 -0.000439248 0)
(1.52554 -0.000288808 0)
(1.52597 -0.000136806 0)
(1.52609 1.6562e-05 0)
(1.5259 0.000171079 0)
(1.5254 0.000326519 0)
(1.52459 0.000482642 0)
(1.52347 0.000639188 0)
(1.52204 0.00079589 0)
(1.52029 0.000952465 0)
(1.51822 0.00110862 0)
(1.51585 0.00126407 0)
(1.51317 0.00141849 0)
(1.51017 0.00157158 0)
(1.50688 0.00172303 0)
(1.50328 0.00187252 0)
(1.49938 0.00201973 0)
(1.49519 0.00216436 0)
(1.49072 0.00230608 0)
(1.48597 0.0024446 0)
(1.48094 0.00257962 0)
(1.47564 0.00271084 0)
(1.47009 0.00283798 0)
(1.46429 0.00296078 0)
(1.45824 0.00307897 0)
(1.45196 0.00319231 0)
(1.44546 0.00330057 0)
(1.43875 0.00340353 0)
(1.43184 0.00350099 0)
(1.42474 0.00359278 0)
(1.41747 0.00367873 0)
(1.41002 0.0037587 0)
(1.40242 0.00383257 0)
(1.39468 0.00390024 0)
(1.38682 0.00396161 0)
(1.37883 0.00401665 0)
(1.37074 0.00406529 0)
(1.36256 0.00410754 0)
(1.3543 0.00414339 0)
(1.34598 0.00417287 0)
(1.33761 0.00419602 0)
(1.32919 0.00421291 0)
(1.32075 0.00422363 0)
(1.31229 0.00422827 0)
(1.30383 0.00422695 0)
(1.29537 0.00421981 0)
(1.28694 0.00420699 0)
(1.27854 0.00418862 0)
(1.27018 0.00416488 0)
(1.26187 0.0041359 0)
(1.25363 0.00410183 0)
(1.24546 0.0040628 0)
(1.23737 0.00401891 0)
(1.22938 0.00397025 0)
(1.22149 0.00391685 0)
(1.21371 0.00385875 0)
(1.20605 0.00379592 0)
(1.19852 0.00372833 0)
(1.19113 0.00365593 0)
(1.18389 0.00357867 0)
(1.17682 0.00349653 0)
(1.16991 0.00340953 0)
(1.16317 0.00331778 0)
(1.15663 0.00322147 0)
(1.15029 0.00312092 0)
(1.14415 0.00301658 0)
(1.13822 0.00290902 0)
(1.13251 0.00279896 0)
(1.12702 0.00268723 0)
(1.12176 0.00257474 0)
(1.11672 0.00246245 0)
(1.11191 0.00235135 0)
(1.10731 0.00224237 0)
(1.10294 0.0021364 0)
(1.09877 0.00203422 0)
(1.0948 0.00193647 0)
(1.09102 0.00184365 0)
(1.08743 0.0017561 0)
(1.084 0.00167398 0)
(1.08073 0.00159733 0)
(1.07761 0.00152605 0)
(1.07463 0.0014599 0)
(1.07177 0.00139859 0)
(1.06903 0.00134174 0)
(1.0664 0.00128895 0)
(1.06388 0.0012398 0)
(1.06144 0.00119387 0)
(1.0591 0.00115076 0)
(1.05684 0.0011101 0)
(1.05466 0.00107156 0)
(1.05256 0.00103485 0)
(1.05052 0.000999728 0)
(1.04856 0.000965979 0)
(1.04666 0.000933435 0)
(1.04483 0.000901961 0)
(1.04305 0.000871449 0)
(1.04134 0.000841819 0)
(1.03969 0.000813007 0)
(1.03809 0.000784969 0)
(1.03655 0.000757672 0)
(1.03506 0.000731092 0)
(1.03362 0.000705213 0)
(1.03224 0.000680023 0)
(1.0309 0.000655514 0)
(1.02962 0.000631679 0)
(1.02838 0.000608512 0)
(1.02719 0.00058601 0)
(1.02604 0.000564165 0)
(1.02493 0.000542974 0)
(1.02386 0.00052243 0)
(1.02284 0.000502527 0)
(1.02186 0.000483256 0)
(1.02091 0.00046461 0)
(1.02 0.00044658 0)
(1.01912 0.000429156 0)
(1.01828 0.000412328 0)
(1.01747 0.000396085 0)
(1.0167 0.000380418 0)
(1.01595 0.000365313 0)
(1.01524 0.000350759 0)
(1.01455 0.000336744 0)
(1.01389 0.000323256 0)
(1.01326 0.000310282 0)
(1.01265 0.000297809 0)
(1.01207 0.000285826 0)
(1.01151 0.000274319 0)
(1.01097 0.000263275 0)
(1.01046 0.000252683 0)
(1.00996 0.000242529 0)
(1.00949 0.000232802 0)
(1.00903 0.000223489 0)
(1.00859 0.000214578 0)
(1.00817 0.000206057 0)
(1.00777 0.000197916 0)
(1.00738 0.000190142 0)
(1.00701 0.000182725 0)
(1.00665 0.000175653 0)
(1.00631 0.000168918 0)
(1.00597 0.000162508 0)
(1.00566 0.000156414 0)
(1.00535 0.000150627 0)
(1.00505 0.000145138 0)
(1.00477 0.000139937 0)
(1.00449 0.000135017 0)
(1.00423 0.00013037 0)
(1.00397 0.000125989 0)
(1.00373 0.000121865 0)
(1.00349 0.000117993 0)
(1.00325 0.000114364 0)
(1.00303 0.000110977 0)
(1.00281 0.000107817 0)
(1.0026 0.000104894 0)
(1.0024 0.000102176 0)
(1.00218 9.9662e-05 0)
(1.00202 9.74815e-05 0)
(1.00171 9.48333e-05 0)
(1.00001 -0.000121336 0)
(1.00017 -0.000364282 0)
(1.00049 -0.000607557 0)
(1.00097 -0.000851294 0)
(1.00162 -0.00109577 0)
(1.00243 -0.00134124 0)
(1.00341 -0.00158791 0)
(1.00455 -0.00183597 0)
(1.00585 -0.00208559 0)
(1.00733 -0.00233697 0)
(1.00897 -0.00259027 0)
(1.01078 -0.00284562 0)
(1.01276 -0.00310316 0)
(1.01492 -0.00336299 0)
(1.01724 -0.00362518 0)
(1.01975 -0.00388979 0)
(1.02243 -0.00415685 0)
(1.02529 -0.00442635 0)
(1.02833 -0.00469826 0)
(1.03155 -0.00497249 0)
(1.03496 -0.00524896 0)
(1.03855 -0.0055275 0)
(1.04233 -0.00580794 0)
(1.04629 -0.00609005 0)
(1.05045 -0.00637355 0)
(1.05479 -0.00665814 0)
(1.05932 -0.00694346 0)
(1.06405 -0.0072291 0)
(1.06896 -0.00751461 0)
(1.07407 -0.00779951 0)
(1.07937 -0.00808325 0)
(1.08485 -0.00836525 0)
(1.09052 -0.00864491 0)
(1.09638 -0.00892154 0)
(1.10242 -0.00919448 0)
(1.10865 -0.00946298 0)
(1.11505 -0.0097263 0)
(1.12163 -0.00998367 0)
(1.12837 -0.0102343 0)
(1.13528 -0.0104774 0)
(1.14235 -0.0107121 0)
(1.14958 -0.0109377 0)
(1.15695 -0.0111533 0)
(1.16446 -0.0113582 0)
(1.17211 -0.0115516 0)
(1.17988 -0.0117328 0)
(1.18777 -0.0119012 0)
(1.19577 -0.012056 0)
(1.20387 -0.0121968 0)
(1.21205 -0.0123229 0)
(1.22032 -0.0124339 0)
(1.22865 -0.0125294 0)
(1.23704 -0.0126091 0)
(1.24548 -0.0126726 0)
(1.25396 -0.0127199 0)
(1.26247 -0.0127507 0)
(1.27099 -0.0127651 0)
(1.27951 -0.0127631 0)
(1.28803 -0.0127446 0)
(1.29652 -0.01271 0)
(1.30499 -0.0126594 0)
(1.31342 -0.012593 0)
(1.32181 -0.0125112 0)
(1.33013 -0.0124143 0)
(1.33838 -0.0123027 0)
(1.34655 -0.0121769 0)
(1.35463 -0.0120371 0)
(1.36262 -0.011884 0)
(1.3705 -0.0117178 0)
(1.37826 -0.0115392 0)
(1.3859 -0.0113485 0)
(1.39341 -0.0111461 0)
(1.40078 -0.0109326 0)
(1.408 -0.0107082 0)
(1.41507 -0.0104733 0)
(1.42198 -0.0102284 0)
(1.42872 -0.00997361 0)
(1.43529 -0.00970932 0)
(1.44168 -0.00943576 0)
(1.44788 -0.00915314 0)
(1.4539 -0.00886164 0)
(1.45971 -0.00856141 0)
(1.46532 -0.00825259 0)
(1.47073 -0.00793526 0)
(1.47591 -0.00760951 0)
(1.48088 -0.00727541 0)
(1.48563 -0.00693301 0)
(1.49014 -0.00658236 0)
(1.49441 -0.0062235 0)
(1.49845 -0.00585649 0)
(1.50223 -0.00548138 0)
(1.50576 -0.00509827 0)
(1.50904 -0.00470726 0)
(1.51205 -0.00430847 0)
(1.51479 -0.00390207 0)
(1.51726 -0.00348826 0)
(1.51945 -0.00306728 0)
(1.52136 -0.00263943 0)
(1.52298 -0.00220503 0)
(1.52431 -0.00176447 0)
(1.52534 -0.00131818 0)
(1.52607 -0.000866662 0)
(1.5265 -0.000410441 0)
(1.52662 4.98908e-05 0)
(1.52644 0.000513688 0)
(1.52594 0.000980269 0)
(1.52513 0.0014489 0)
(1.52401 0.00191882 0)
(1.52257 0.00238922 0)
(1.52082 0.00285924 0)
(1.51876 0.00332802 0)
(1.51638 0.00379466 0)
(1.51369 0.00425823 0)
(1.5107 0.00471782 0)
(1.5074 0.00517247 0)
(1.50379 0.00562124 0)
(1.49989 0.00606319 0)
(1.4957 0.00649735 0)
(1.49121 0.00692282 0)
(1.48645 0.00733865 0)
(1.48141 0.00774397 0)
(1.47611 0.00813789 0)
(1.47055 0.00851957 0)
(1.46473 0.00888819 0)
(1.45867 0.00924298 0)
(1.45239 0.0095832 0)
(1.44588 0.00990816 0)
(1.43915 0.0102172 0)
(1.43223 0.0105097 0)
(1.42512 0.0107852 0)
(1.41782 0.0110432 0)
(1.41037 0.0112832 0)
(1.40275 0.0115049 0)
(1.395 0.0117079 0)
(1.38712 0.0118921 0)
(1.37912 0.0120572 0)
(1.37101 0.0122031 0)
(1.36282 0.0123298 0)
(1.35454 0.0124373 0)
(1.34621 0.0125256 0)
(1.33782 0.012595 0)
(1.32939 0.0126455 0)
(1.32093 0.0126775 0)
(1.31246 0.0126913 0)
(1.30398 0.0126872 0)
(1.29551 0.0126656 0)
(1.28707 0.0126269 0)
(1.27865 0.0125716 0)
(1.27028 0.0125001 0)
(1.26197 0.0124129 0)
(1.25371 0.0123105 0)
(1.24553 0.0121931 0)
(1.23743 0.0120612 0)
(1.22943 0.0119149 0)
(1.22153 0.0117545 0)
(1.21374 0.0115799 0)
(1.20607 0.0113912 0)
(1.19854 0.0111882 0)
(1.19114 0.0109708 0)
(1.1839 0.0107388 0)
(1.17681 0.0104922 0)
(1.1699 0.010231 0)
(1.16316 0.00995559 0)
(1.15661 0.00966651 0)
(1.15026 0.00936472 0)
(1.14412 0.00905155 0)
(1.13818 0.00872875 0)
(1.13247 0.00839846 0)
(1.12698 0.00806315 0)
(1.12171 0.00772555 0)
(1.11667 0.00738856 0)
(1.11185 0.00705511 0)
(1.10726 0.00672804 0)
(1.10288 0.00641001 0)
(1.09871 0.00610333 0)
(1.09474 0.00580996 0)
(1.09096 0.00553138 0)
(1.08736 0.0052686 0)
(1.08393 0.00502214 0)
(1.08066 0.00479209 0)
(1.07754 0.00457813 0)
(1.07456 0.0043796 0)
(1.0717 0.00419558 0)
(1.06896 0.00402496 0)
(1.06633 0.00386653 0)
(1.06381 0.00371901 0)
(1.06138 0.00358116 0)
(1.05903 0.00345178 0)
(1.05678 0.00332977 0)
(1.0546 0.00321412 0)
(1.05249 0.00310397 0)
(1.05046 0.00299857 0)
(1.0485 0.0028973 0)
(1.0466 0.00279965 0)
(1.04477 0.00270521 0)
(1.04299 0.00261366 0)
(1.04128 0.00252476 0)
(1.03963 0.00243831 0)
(1.03803 0.00235419 0)
(1.03649 0.0022723 0)
(1.03501 0.00219256 0)
(1.03357 0.00211492 0)
(1.03219 0.00203935 0)
(1.03086 0.00196582 0)
(1.02957 0.00189432 0)
(1.02833 0.00182483 0)
(1.02714 0.00175732 0)
(1.02599 0.0016918 0)
(1.02489 0.00162823 0)
(1.02382 0.00156661 0)
(1.0228 0.00150691 0)
(1.02182 0.00144911 0)
(1.02087 0.00139318 0)
(1.01996 0.0013391 0)
(1.01909 0.00128685 0)
(1.01825 0.00123637 0)
(1.01744 0.00118766 0)
(1.01667 0.00114067 0)
(1.01592 0.00109537 0)
(1.01521 0.00105172 0)
(1.01452 0.00100969 0)
(1.01386 0.000969243 0)
(1.01323 0.000930335 0)
(1.01263 0.000892932 0)
(1.01204 0.000856996 0)
(1.01149 0.000822488 0)
(1.01095 0.000789372 0)
(1.01043 0.000757609 0)
(1.00994 0.000727161 0)
(1.00947 0.000697992 0)
(1.00901 0.000670066 0)
(1.00857 0.000643345 0)
(1.00816 0.000617796 0)
(1.00775 0.000593383 0)
(1.00737 0.000570073 0)
(1.00699 0.000547833 0)
(1.00664 0.000526631 0)
(1.00629 0.000506435 0)
(1.00596 0.000487216 0)
(1.00564 0.000468945 0)
(1.00534 0.000451593 0)
(1.00504 0.000435134 0)
(1.00476 0.000419541 0)
(1.00449 0.00040479 0)
(1.00422 0.000390857 0)
(1.00396 0.000377719 0)
(1.00372 0.000365355 0)
(1.00348 0.000353746 0)
(1.00325 0.000342869 0)
(1.00302 0.000332709 0)
(1.00281 0.000323248 0)
(1.00259 0.000314455 0)
(1.00239 0.000306385 0)
(1.00217 0.000298717 0)
(1.00202 0.000292542 0)
(1.00171 0.000284144 0)
(1.00001 -0.000202314 0)
(1.00017 -0.000607092 0)
(1.00048 -0.00101234 0)
(1.00097 -0.00141841 0)
(1.00162 -0.00182573 0)
(1.00243 -0.00223467 0)
(1.0034 -0.00264561 0)
(1.00454 -0.00305887 0)
(1.00585 -0.00347476 0)
(1.00732 -0.00389359 0)
(1.00896 -0.00431564 0)
(1.01076 -0.00474113 0)
(1.01274 -0.0051703 0)
(1.0149 -0.0056033 0)
(1.01722 -0.00604027 0)
(1.01972 -0.00648132 0)
(1.0224 -0.00692647 0)
(1.02526 -0.00737573 0)
(1.0283 -0.00782903 0)
(1.03152 -0.00828626 0)
(1.03492 -0.00874725 0)
(1.03851 -0.00921174 0)
(1.04229 -0.00967944 0)
(1.04625 -0.01015 0)
(1.0504 -0.0106229 0)
(1.05475 -0.0110976 0)
(1.05928 -0.0115737 0)
(1.06401 -0.0120503 0)
(1.06893 -0.0125267 0)
(1.07403 -0.0130022 0)
(1.07933 -0.0134758 0)
(1.08482 -0.0139465 0)
(1.0905 -0.0144134 0)
(1.09637 -0.0148753 0)
(1.10242 -0.015331 0)
(1.10865 -0.0157794 0)
(1.11506 -0.0162191 0)
(1.12165 -0.016649 0)
(1.1284 -0.0170676 0)
(1.13533 -0.0174736 0)
(1.14241 -0.0178657 0)
(1.14965 -0.0182426 0)
(1.15704 -0.0186028 0)
(1.16457 -0.0189452 0)
(1.17223 -0.0192684 0)
(1.18002 -0.0195712 0)
(1.18793 -0.0198525 0)
(1.19595 -0.0201112 0)
(1.20407 -0.0203464 0)
(1.21228 -0.020557 0)
(1.22057 -0.0207425 0)
(1.22892 -0.020902 0)
(1.23734 -0.0210351 0)
(1.2458 -0.0211412 0)
(1.25431 -0.0212201 0)
(1.26284 -0.0212715 0)
(1.27138 -0.0212954 0)
(1.27993 -0.0212918 0)
(1.28847 -0.0212609 0)
(1.29699 -0.021203 0)
(1.30548 -0.0211182 0)
(1.31394 -0.0210072 0)
(1.32234 -0.0208705 0)
(1.33068 -0.0207085 0)
(1.33896 -0.020522 0)
(1.34715 -0.0203117 0)
(1.35525 -0.0200783 0)
(1.36326 -0.0198224 0)
(1.37116 -0.019545 0)
(1.37894 -0.0192467 0)
(1.38659 -0.0189283 0)
(1.39412 -0.0185906 0)
(1.40151 -0.0182341 0)
(1.40874 -0.0178597 0)
(1.41583 -0.0174678 0)
(1.42275 -0.0170591 0)
(1.42951 -0.0166341 0)
(1.43609 -0.0161933 0)
(1.4425 -0.0157371 0)
(1.44871 -0.0152658 0)
(1.45474 -0.0147797 0)
(1.46057 -0.0142791 0)
(1.46619 -0.0137642 0)
(1.47161 -0.0132351 0)
(1.47681 -0.0126921 0)
(1.48179 -0.0121351 0)
(1.48654 -0.0115643 0)
(1.49107 -0.0109797 0)
(1.49535 -0.0103815 0)
(1.4994 -0.00976962 0)
(1.5032 -0.00914426 0)
(1.50674 -0.00850553 0)
(1.51003 -0.00785359 0)
(1.51305 -0.00718865 0)
(1.5158 -0.00651099 0)
(1.51828 -0.00582093 0)
(1.52048 -0.00511887 0)
(1.5224 -0.0044053 0)
(1.52402 -0.00368076 0)
(1.52536 -0.00294589 0)
(1.5264 -0.00220143 0)
(1.52713 -0.00144818 0)
(1.52757 -0.000687043 0)
(1.5277 8.09995e-05 0)
(1.52751 0.00085488 0)
(1.52702 0.00163345 0)
(1.52621 0.00241549 0)
(1.52509 0.00319971 0)
(1.52365 0.00398475 0)
(1.5219 0.00476921 0)
(1.51983 0.00555162 0)
(1.51745 0.00633048 0)
(1.51475 0.00710426 0)
(1.51175 0.00787139 0)
(1.50843 0.0086303 0)
(1.50482 0.00937941 0)
(1.50091 0.0101171 0)
(1.4967 0.0108419 0)
(1.4922 0.0115521 0)
(1.48742 0.0122462 0)
(1.48237 0.0129228 0)
(1.47704 0.0135804 0)
(1.47146 0.0142175 0)
(1.46562 0.0148328 0)
(1.45954 0.0154249 0)
(1.45323 0.0159928 0)
(1.4467 0.0165351 0)
(1.43995 0.0170509 0)
(1.433 0.0175391 0)
(1.42586 0.0179989 0)
(1.41854 0.0184293 0)
(1.41105 0.0188297 0)
(1.40341 0.0191995 0)
(1.39563 0.0195382 0)
(1.38771 0.0198453 0)
(1.37968 0.0201206 0)
(1.37155 0.0203638 0)
(1.36333 0.0205749 0)
(1.35502 0.0207539 0)
(1.34666 0.020901 0)
(1.33824 0.0210163 0)
(1.32978 0.0211002 0)
(1.32129 0.0211531 0)
(1.31279 0.0211755 0)
(1.30429 0.0211681 0)
(1.2958 0.0211315 0)
(1.28732 0.0210663 0)
(1.27889 0.0209734 0)
(1.27049 0.0208535 0)
(1.26215 0.0207074 0)
(1.25387 0.0205358 0)
(1.24567 0.0203393 0)
(1.23755 0.0201186 0)
(1.22953 0.0198739 0)
(1.22161 0.0196057 0)
(1.21381 0.0193139 0)
(1.20612 0.0189985 0)
(1.19857 0.0186593 0)
(1.19116 0.0182962 0)
(1.1839 0.0179088 0)
(1.1768 0.0174972 0)
(1.16988 0.0170613 0)
(1.16313 0.0166017 0)
(1.15657 0.0161193 0)
(1.15021 0.0156158 0)
(1.14405 0.0150934 0)
(1.13811 0.014555 0)
(1.13239 0.014004 0)
(1.12689 0.0134447 0)
(1.12162 0.0128816 0)
(1.11657 0.0123195 0)
(1.11175 0.0117633 0)
(1.10715 0.0112177 0)
(1.10276 0.0106871 0)
(1.09859 0.0101755 0)
(1.09461 0.00968606 0)
(1.09083 0.00922128 0)
(1.08723 0.00878284 0)
(1.0838 0.00837164 0)
(1.08053 0.00798781 0)
(1.0774 0.00763083 0)
(1.07442 0.00729959 0)
(1.07156 0.00699256 0)
(1.06883 0.00670791 0)
(1.0662 0.00644359 0)
(1.06367 0.0061975 0)
(1.06124 0.00596754 0)
(1.0589 0.00575173 0)
(1.05664 0.0055482 0)
(1.05447 0.00535531 0)
(1.05236 0.0051716 0)
(1.05033 0.00499582 0)
(1.04837 0.00482694 0)
(1.04648 0.0046641 0)
(1.04464 0.00450663 0)
(1.04288 0.00435398 0)
(1.04117 0.00420575 0)
(1.03952 0.00406163 0)
(1.03792 0.00392139 0)
(1.03638 0.00378487 0)
(1.0349 0.00365194 0)
(1.03347 0.00352253 0)
(1.03209 0.00339657 0)
(1.03076 0.00327402 0)
(1.02948 0.00315485 0)
(1.02824 0.00303904 0)
(1.02705 0.00292654 0)
(1.02591 0.00281735 0)
(1.0248 0.00271143 0)
(1.02374 0.00260875 0)
(1.02272 0.00250928 0)
(1.02174 0.00241297 0)
(1.0208 0.00231979 0)
(1.01989 0.0022297 0)
(1.01902 0.00214264 0)
(1.01818 0.00205856 0)
(1.01738 0.00197741 0)
(1.01661 0.00189914 0)
(1.01586 0.00182368 0)
(1.01515 0.00175098 0)
(1.01447 0.00168098 0)
(1.01381 0.0016136 0)
(1.01318 0.0015488 0)
(1.01258 0.00148651 0)
(1.012 0.00142667 0)
(1.01144 0.0013692 0)
(1.01091 0.00131405 0)
(1.01039 0.00126116 0)
(1.0099 0.00121046 0)
(1.00943 0.00116188 0)
(1.00897 0.00111538 0)
(1.00854 0.00107089 0)
(1.00812 0.00102835 0)
(1.00772 0.000987703 0)
(1.00734 0.000948892 0)
(1.00696 0.000911863 0)
(1.00661 0.000876563 0)
(1.00627 0.000842939 0)
(1.00594 0.000810942 0)
(1.00562 0.000780523 0)
(1.00532 0.000751635 0)
(1.00502 0.000724233 0)
(1.00474 0.000698274 0)
(1.00447 0.000673717 0)
(1.0042 0.000650523 0)
(1.00395 0.000628652 0)
(1.0037 0.000608071 0)
(1.00346 0.000588743 0)
(1.00323 0.00057064 0)
(1.00301 0.00055372 0)
(1.00279 0.000537989 0)
(1.00258 0.000523318 0)
(1.00238 0.000509982 0)
(1.00216 0.00049707 0)
(1.00201 0.000487193 0)
(1.0017 0.000472688 0)
(1.00001 -0.000283022 0)
(1.00017 -0.00084923 0)
(1.00048 -0.00141609 0)
(1.00097 -0.00198416 0)
(1.00161 -0.002554 0)
(1.00242 -0.00312612 0)
(1.00339 -0.00370105 0)
(1.00453 -0.00427925 0)
(1.00583 -0.00486117 0)
(1.0073 -0.00544725 0)
(1.00894 -0.00603787 0)
(1.01074 -0.00663336 0)
(1.01272 -0.00723404 0)
(1.01486 -0.00784015 0)
(1.01719 -0.00845189 0)
(1.01968 -0.00906938 0)
(1.02236 -0.0096927 0)
(1.02521 -0.0103218 0)
(1.02825 -0.0109567 0)
(1.03146 -0.0115972 0)
(1.03486 -0.012243 0)
(1.03845 -0.0128939 0)
(1.04223 -0.0135493 0)
(1.04619 -0.0142087 0)
(1.05034 -0.0148716 0)
(1.05469 -0.0155372 0)
(1.05922 -0.0162047 0)
(1.06395 -0.0168731 0)
(1.06887 -0.0175414 0)
(1.07398 -0.0182084 0)
(1.07929 -0.0188729 0)
(1.08478 -0.0195335 0)
(1.09047 -0.0201887 0)
(1.09634 -0.020837 0)
(1.1024 -0.0214768 0)
(1.10865 -0.0221064 0)
(1.11507 -0.0227239 0)
(1.12167 -0.0233277 0)
(1.12845 -0.0239157 0)
(1.13539 -0.0244861 0)
(1.14249 -0.025037 0)
(1.14976 -0.0255665 0)
(1.15717 -0.0260727 0)
(1.16472 -0.0265538 0)
(1.17242 -0.027008 0)
(1.18024 -0.0274336 0)
(1.18817 -0.027829 0)
(1.19622 -0.0281926 0)
(1.20437 -0.0285231 0)
(1.21262 -0.0288192 0)
(1.22094 -0.0290798 0)
(1.22933 -0.0293039 0)
(1.23778 -0.0294908 0)
(1.24628 -0.0296398 0)
(1.25482 -0.0297506 0)
(1.26339 -0.0298227 0)
(1.27197 -0.0298561 0)
(1.28055 -0.0298509 0)
(1.28913 -0.0298073 0)
(1.29769 -0.0297256 0)
(1.30622 -0.0296064 0)
(1.3147 -0.0294502 0)
(1.32314 -0.0292579 0)
(1.33152 -0.0290302 0)
(1.33982 -0.0287681 0)
(1.34805 -0.0284726 0)
(1.35618 -0.0281447 0)
(1.36422 -0.0277854 0)
(1.37214 -0.0273959 0)
(1.37995 -0.0269772 0)
(1.38764 -0.0265303 0)
(1.39519 -0.0260564 0)
(1.4026 -0.0255564 0)
(1.40986 -0.0250312 0)
(1.41697 -0.0244817 0)
(1.42392 -0.0239087 0)
(1.43069 -0.0233129 0)
(1.4373 -0.0226951 0)
(1.44372 -0.0220558 0)
(1.44996 -0.0213954 0)
(1.45601 -0.0207144 0)
(1.46185 -0.0200131 0)
(1.4675 -0.0192919 0)
(1.47293 -0.0185509 0)
(1.47815 -0.0177903 0)
(1.48315 -0.0170103 0)
(1.48792 -0.0162109 0)
(1.49246 -0.0153922 0)
(1.49677 -0.0145544 0)
(1.50083 -0.0136975 0)
(1.50464 -0.0128216 0)
(1.5082 -0.011927 0)
(1.51151 -0.0110138 0)
(1.51454 -0.0100823 0)
(1.51731 -0.00913289 0)
(1.5198 -0.00816604 0)
(1.52202 -0.00718229 0)
(1.52395 -0.0061823 0)
(1.52559 -0.00516683 0)
(1.52693 -0.00413679 0)
(1.52798 -0.00309318 0)
(1.52873 -0.00203715 0)
(1.52917 -0.000969954 0)
(1.5293 0.000107025 0)
(1.52913 0.00119229 0)
(1.52864 0.00228423 0)
(1.52783 0.00338113 0)
(1.52671 0.00448117 0)
(1.52527 0.00558244 0)
(1.52351 0.00668295 0)
(1.52143 0.00778066 0)
(1.51904 0.00887345 0)
(1.51634 0.00995915 0)
(1.51332 0.0110356 0)
(1.50999 0.0121005 0)
(1.50636 0.0131517 0)
(1.50243 0.0141869 0)
(1.4982 0.0152039 0)
(1.49368 0.0162006 0)
(1.48888 0.0171747 0)
(1.4838 0.0181241 0)
(1.47844 0.0190468 0)
(1.47283 0.0199409 0)
(1.46696 0.0208042 0)
(1.46085 0.0216352 0)
(1.4545 0.0224319 0)
(1.44793 0.0231929 0)
(1.44114 0.0239165 0)
(1.43415 0.0246014 0)
(1.42697 0.0252462 0)
(1.41961 0.0258499 0)
(1.41208 0.0264114 0)
(1.4044 0.0269299 0)
(1.39657 0.0274047 0)
(1.38861 0.0278351 0)
(1.38054 0.0282208 0)
(1.37236 0.0285614 0)
(1.36409 0.0288569 0)
(1.35574 0.0291074 0)
(1.34733 0.0293129 0)
(1.33887 0.0294738 0)
(1.33037 0.0295905 0)
(1.32184 0.0296638 0)
(1.31329 0.0296942 0)
(1.30475 0.0296827 0)
(1.29622 0.0296301 0)
(1.28771 0.0295375 0)
(1.27923 0.029406 0)
(1.2708 0.0292366 0)
(1.26242 0.0290304 0)
(1.25411 0.0287884 0)
(1.24588 0.0285116 0)
(1.23773 0.0282007 0)
(1.22968 0.0278564 0)
(1.22173 0.027479 0)
(1.2139 0.0270687 0)
(1.20619 0.0266255 0)
(1.19862 0.026149 0)
(1.19119 0.0256391 0)
(1.18391 0.0250953 0)
(1.17679 0.0245175 0)
(1.16984 0.023906 0)
(1.16308 0.0232614 0)
(1.15651 0.022585 0)
(1.15013 0.0218791 0)
(1.14396 0.0211468 0)
(1.13801 0.020392 0)
(1.13227 0.0196198 0)
(1.12676 0.0188358 0)
(1.12148 0.0180465 0)
(1.11642 0.0172586 0)
(1.11159 0.0164789 0)
(1.10698 0.015714 0)
(1.10259 0.0149702 0)
(1.0984 0.0142529 0)
(1.09442 0.0135667 0)
(1.09064 0.012915 0)
(1.08703 0.0123002 0)
(1.0836 0.0117236 0)
(1.08032 0.0111854 0)
(1.0772 0.0106848 0)
(1.07421 0.0102203 0)
(1.07136 0.00978983 0)
(1.06862 0.0093907 0)
(1.06599 0.0090201 0)
(1.06347 0.00867507 0)
(1.06104 0.00835269 0)
(1.0587 0.00805016 0)
(1.05644 0.00776487 0)
(1.05427 0.00749452 0)
(1.05217 0.00723704 0)
(1.05014 0.00699071 0)
(1.04818 0.00675406 0)
(1.04629 0.0065259 0)
(1.04446 0.00630527 0)
(1.0427 0.00609142 0)
(1.04099 0.00588377 0)
(1.03935 0.0056819 0)
(1.03776 0.00548547 0)
(1.03622 0.00529427 0)
(1.03474 0.00510811 0)
(1.03331 0.00492689 0)
(1.03194 0.00475052 0)
(1.03061 0.00457893 0)
(1.02933 0.00441209 0)
(1.0281 0.00424996 0)
(1.02692 0.00409248 0)
(1.02577 0.00393964 0)
(1.02468 0.00379139 0)
(1.02362 0.00364768 0)
(1.0226 0.00350847 0)
(1.02163 0.0033737 0)
(1.02069 0.00324331 0)
(1.01978 0.00311725 0)
(1.01892 0.00299544 0)
(1.01808 0.00287781 0)
(1.01728 0.00276428 0)
(1.01651 0.00265478 0)
(1.01577 0.00254923 0)
(1.01506 0.00244754 0)
(1.01438 0.00234962 0)
(1.01373 0.00225539 0)
(1.0131 0.00216476 0)
(1.0125 0.00207764 0)
(1.01193 0.00199395 0)
(1.01137 0.00191359 0)
(1.01084 0.00183647 0)
(1.01033 0.00176251 0)
(1.00984 0.00169162 0)
(1.00937 0.00162371 0)
(1.00892 0.00155869 0)
(1.00849 0.00149649 0)
(1.00807 0.00143701 0)
(1.00767 0.00138019 0)
(1.00729 0.00132593 0)
(1.00692 0.00127417 0)
(1.00657 0.00122482 0)
(1.00623 0.00117782 0)
(1.0059 0.00113309 0)
(1.00558 0.00109057 0)
(1.00528 0.00105019 0)
(1.00499 0.00101189 0)
(1.00471 0.000975609 0)
(1.00444 0.000941285 0)
(1.00418 0.000908866 0)
(1.00392 0.000878299 0)
(1.00368 0.000849533 0)
(1.00344 0.00082252 0)
(1.00321 0.00079722 0)
(1.00299 0.000773572 0)
(1.00277 0.000751593 0)
(1.00256 0.000731081 0)
(1.00237 0.000712476 0)
(1.00215 0.000694394 0)
(1.002 0.000680677 0)
(1.00169 0.000660258 0)
(1.00001 -0.000363483 0)
(1.00017 -0.00109066 0)
(1.00048 -0.0018187 0)
(1.00096 -0.00254832 0)
(1.00161 -0.00328024 0)
(1.00241 -0.00401513 0)
(1.00338 -0.00475366 0)
(1.00452 -0.00549644 0)
(1.00581 -0.00624407 0)
(1.00728 -0.0069971 0)
(1.00891 -0.00775604 0)
(1.01071 -0.00852133 0)
(1.01268 -0.00929338 0)
(1.01482 -0.0100725 0)
(1.01714 -0.010859 0)
(1.01963 -0.0116529 0)
(1.0223 -0.0124545 0)
(1.02515 -0.0132637 0)
(1.02818 -0.0140805 0)
(1.03139 -0.0149045 0)
(1.03479 -0.0157356 0)
(1.03837 -0.0165733 0)
(1.04214 -0.017417 0)
(1.0461 -0.0182662 0)
(1.05026 -0.0191199 0)
(1.0546 -0.0199773 0)
(1.05914 -0.0208372 0)
(1.06387 -0.0216986 0)
(1.06879 -0.0225599 0)
(1.07391 -0.0234198 0)
(1.07922 -0.0242767 0)
(1.08472 -0.0251286 0)
(1.09042 -0.0259739 0)
(1.09631 -0.0268104 0)
(1.10238 -0.0276361 0)
(1.10864 -0.0284487 0)
(1.11508 -0.029246 0)
(1.12171 -0.0300255 0)
(1.1285 -0.0307849 0)
(1.13547 -0.0315216 0)
(1.1426 -0.0322333 0)
(1.1499 -0.0329174 0)
(1.15734 -0.0335715 0)
(1.16493 -0.0341932 0)
(1.17266 -0.0347802 0)
(1.18051 -0.0353302 0)
(1.18849 -0.0358412 0)
(1.19658 -0.0363112 0)
(1.20478 -0.0367383 0)
(1.21306 -0.0371209 0)
(1.22143 -0.0374576 0)
(1.22987 -0.0377472 0)
(1.23837 -0.0379885 0)
(1.24692 -0.0381809 0)
(1.25551 -0.0383238 0)
(1.26412 -0.0384167 0)
(1.27275 -0.0384595 0)
(1.28139 -0.0384525 0)
(1.29001 -0.0383957 0)
(1.29862 -0.0382898 0)
(1.30719 -0.0381354 0)
(1.31573 -0.0379333 0)
(1.32421 -0.0376845 0)
(1.33263 -0.0373902 0)
(1.34098 -0.0370515 0)
(1.34925 -0.0366697 0)
(1.35742 -0.0362461 0)
(1.3655 -0.0357823 0)
(1.37346 -0.0352795 0)
(1.38131 -0.0347393 0)
(1.38903 -0.0341629 0)
(1.39661 -0.0335517 0)
(1.40406 -0.032907 0)
(1.41135 -0.0322301 0)
(1.41849 -0.0315221 0)
(1.42547 -0.030784 0)
(1.43227 -0.0300167 0)
(1.43891 -0.0292212 0)
(1.44536 -0.0283981 0)
(1.45162 -0.0275481 0)
(1.45769 -0.0266717 0)
(1.46356 -0.0257694 0)
(1.46923 -0.0248415 0)
(1.47469 -0.0238882 0)
(1.47994 -0.0229098 0)
(1.48496 -0.0219065 0)
(1.48976 -0.0208782 0)
(1.49432 -0.0198252 0)
(1.49865 -0.0187476 0)
(1.50273 -0.0176453 0)
(1.50657 -0.0165186 0)
(1.51015 -0.0153676 0)
(1.51348 -0.0141927 0)
(1.51654 -0.0129941 0)
(1.51932 -0.0117723 0)
(1.52184 -0.0105279 0)
(1.52407 -0.00926161 0)
(1.52602 -0.00797421 0)
(1.52767 -0.00666671 0)
(1.52904 -0.00534025 0)
(1.5301 -0.00399615 0)
(1.53086 -0.00263585 0)
(1.53131 -0.00126098 0)
(1.53145 0.000126671 0)
(1.53128 0.00152517 0)
(1.53079 0.00293243 0)
(1.52999 0.00434623 0)
(1.52886 0.00576423 0)
(1.52742 0.00718394 0)
(1.52566 0.00860281 0)
(1.52357 0.0100182 0)
(1.52117 0.0114273 0)
(1.51845 0.0128273 0)
(1.51542 0.0142155 0)
(1.51208 0.0155888 0)
(1.50842 0.0169445 0)
(1.50446 0.0182797 0)
(1.50021 0.0195914 0)
(1.49566 0.0208768 0)
(1.49082 0.0221332 0)
(1.4857 0.0233578 0)
(1.48031 0.0245478 0)
(1.47466 0.0257009 0)
(1.46875 0.0268143 0)
(1.46259 0.0278859 0)
(1.45619 0.0289133 0)
(1.44957 0.0298945 0)
(1.44273 0.0308275 0)
(1.43569 0.0317104 0)
(1.42846 0.0325416 0)
(1.42104 0.0333196 0)
(1.41345 0.0340432 0)
(1.40571 0.0347112 0)
(1.39783 0.0353226 0)
(1.38981 0.0358768 0)
(1.38168 0.0363732 0)
(1.37344 0.0368114 0)
(1.36511 0.0371913 0)
(1.3567 0.0375129 0)
(1.34823 0.0377764 0)
(1.33971 0.0379824 0)
(1.33115 0.0381314 0)
(1.32256 0.0382241 0)
(1.31396 0.0382615 0)
(1.30536 0.0382448 0)
(1.29678 0.0381751 0)
(1.28821 0.0380537 0)
(1.27969 0.037882 0)
(1.27121 0.0376615 0)
(1.26278 0.0373935 0)
(1.25443 0.0370794 0)
(1.24615 0.0367205 0)
(1.23796 0.0363177 0)
(1.22987 0.0358718 0)
(1.22189 0.0353835 0)
(1.21402 0.0348529 0)
(1.20628 0.03428 0)
(1.19868 0.0336646 0)
(1.19122 0.0330063 0)
(1.18391 0.0323046 0)
(1.17677 0.0315594 0)
(1.1698 0.0307709 0)
(1.16301 0.0299401 0)
(1.15642 0.0290686 0)
(1.15002 0.0281593 0)
(1.14383 0.027216 0)
(1.13786 0.0262439 0)
(1.13211 0.0252494 0)
(1.12659 0.0242399 0)
(1.12129 0.0232235 0)
(1.11622 0.0222088 0)
(1.11137 0.0212046 0)
(1.10675 0.0202195 0)
(1.10235 0.0192615 0)
(1.09816 0.0183375 0)
(1.09417 0.0174534 0)
(1.09038 0.0166139 0)
(1.08677 0.0158218 0)
(1.08333 0.0150789 0)
(1.08005 0.0143854 0)
(1.07693 0.0137404 0)
(1.07394 0.0131419 0)
(1.07108 0.0125873 0)
(1.06834 0.012073 0)
(1.06572 0.0115956 0)
(1.06319 0.0111512 0)
(1.06077 0.0107359 0)
(1.05843 0.0103463 0)
(1.05618 0.00997889 0)
(1.05401 0.00963076 0)
(1.05191 0.00929926 0)
(1.04989 0.00898213 0)
(1.04793 0.0086775 0)
(1.04604 0.00838382 0)
(1.04422 0.00809987 0)
(1.04246 0.00782467 0)
(1.04076 0.00755749 0)
(1.03912 0.00729775 0)
(1.03753 0.00704505 0)
(1.036 0.00679909 0)
(1.03453 0.00655965 0)
(1.03311 0.00632657 0)
(1.03174 0.00609976 0)
(1.03042 0.00587912 0)
(1.02914 0.00566461 0)
(1.02792 0.00545616 0)
(1.02674 0.00525372 0)
(1.0256 0.00505726 0)
(1.02451 0.00486671 0)
(1.02346 0.00468202 0)
(1.02244 0.00450312 0)
(1.02147 0.00432995 0)
(1.02054 0.00416242 0)
(1.01964 0.00400046 0)
(1.01878 0.00384397 0)
(1.01795 0.00369286 0)
(1.01715 0.00354704 0)
(1.01639 0.0034064 0)
(1.01565 0.00327084 0)
(1.01495 0.00314024 0)
(1.01427 0.00301451 0)
(1.01362 0.00289351 0)
(1.013 0.00277715 0)
(1.0124 0.0026653 0)
(1.01183 0.00255785 0)
(1.01128 0.00245469 0)
(1.01075 0.00235569 0)
(1.01025 0.00226075 0)
(1.00976 0.00216976 0)
(1.00929 0.0020826 0)
(1.00885 0.00199915 0)
(1.00842 0.00191932 0)
(1.00801 0.001843 0)
(1.00761 0.00177007 0)
(1.00723 0.00170045 0)
(1.00686 0.00163403 0)
(1.00651 0.00157071 0)
(1.00617 0.0015104 0)
(1.00585 0.00145302 0)
(1.00554 0.00139846 0)
(1.00524 0.00134666 0)
(1.00495 0.00129752 0)
(1.00467 0.00125097 0)