/*--------------------------------*- C++ -*----------------------------------*\
| =========                 |                                                 |
| \\      /  F ield         | OpenFOAM: The Open Source CFD Toolbox           |
|  \\    /   O peration     | Version:  2306                                  |
|   \\  /    A nd           | Website:  www.openfoam.com                      |
|    \\/     M anipulation  |                                                 |
\*---------------------------------------------------------------------------*/
FoamFile
{
    version     2.0;
    format      ascii;
    arch        "LSB;label=32;scalar=64";
    class       volScalarField;
    location    "0.06";
    object      G;
}
// * * * * * * * * * * * * * * * * * * * * * * * * * * * * * * * * * * * * * //

dimensions      [1 0 -3 0 0 0 0];

internalField   nonuniform List<scalar> 
100
(
9828.77
10855.1
11589.4
11964.8
12152.4
12152.4
11964.8
11589.4
10855.1
9828.78
10855.1
12125.1
12996.6
13447.4
13666.7
13666.7
13447.4
12996.6
12125.1
10855.1
11589.4
12996.6
13973
14486.9
14735.4
14735.4
14486.9
13973
12996.6
11589.4
11964.8
13447.4
14486.9
15043.8
15312.8
15312.8
15043.9
14486.9
13447.4
11964.8
12152.4
13666.7
14735.4
15312.8
15591.9
15591.9
15312.8
14735.4
13666.7
12152.4
12152.4
13666.7
14735.4
15312.8
15591.9
15591.9
15312.8
14735.4
13666.7
12152.4
11964.8
13447.4
14486.9
15043.9
15312.8
15312.8
15043.8
14486.9
13447.4
11964.8
11589.4
12996.6
13973
14486.9
14735.4
14735.4
14486.9
13973
12996.6
11589.4
10855.1
12125.1
12996.6
13447.4
13666.7
13666.7
13447.4
12996.6
12125.1
10855.1
9828.78
10855.1
11589.4
11964.8
12152.4
12152.4
11964.8
11589.4
10855.1
9828.77
)
;

boundaryField
{
    fixedWall_Bottom
    {
        type            calculated;
        value           nonuniform List<scalar> 10(8561.03 9352.57 9984.97 10312.8 10479.8 10479.8 10312.8 9984.99 9352.57 8561.04);
    }
    fixedWall_Right
    {
        type            calculated;
        value           nonuniform List<scalar> 10(8561.04 9352.57 9984.99 10312.8 10479.8 10479.8 10312.8 9984.97 9352.57 8561.03);
    }
    fixedWall_Left
    {
        type            calculated;
        value           nonuniform List<scalar> 10(8561.03 9352.57 9984.97 10312.8 10479.8 10479.8 10312.8 9984.99 9352.57 8561.04);
    }
    fixedWall_Top
    {
        type            calculated;
        value           nonuniform List<scalar> 10(8561.04 9352.57 9984.99 10312.8 10479.8 10479.8 10312.8 9984.97 9352.57 8561.03);
    }
    frontAndBack
    {
        type            empty;
    }
}


// ************************************************************************* //
