/*--------------------------------*- C++ -*----------------------------------*\
| =========                 |                                                 |
| \\      /  F ield         | OpenFOAM: The Open Source CFD Toolbox           |
|  \\    /   O peration     | Version:  2306                                  |
|   \\  /    A nd           | Website:  www.openfoam.com                      |
|    \\/     M anipulation  |                                                 |
\*---------------------------------------------------------------------------*/
FoamFile
{
    version     2.0;
    format      ascii;
    arch        "LSB;label=32;scalar=64";
    class       volScalarField;
    location    "0.02";
    object      G;
}
// * * * * * * * * * * * * * * * * * * * * * * * * * * * * * * * * * * * * * //

dimensions      [1 0 -3 0 0 0 0];

internalField   nonuniform List<scalar> 
100
(
9244.24
10765.7
11935.4
12734.5
13093.7
13093.6
12734.7
11935.6
10765.6
9244.55
10765.7
12499.9
13923.4
14873.4
15286.2
15286.2
14873.5
13923.4
12499.6
10765.6
11935.4
13923.4
15560.9
16637.5
17105.2
17105.3
16637.8
15561.1
13923.4
11935.6
12734.5
14873.4
16637.5
17804.2
18313.8
18313.9
17804.4
16637.8
14873.5
12734.7
13093.7
15286.2
17105.2
18313.8
18844
18844
18313.9
17105.3
15286.2
13093.6
13093.6
15286.2
17105.3
18313.9
18844
18844
18313.8
17105.2
15286.2
13093.7
12734.7
14873.5
16637.8
17804.4
18313.9
18313.8
17804.2
16637.5
14873.4
12734.5
11935.6
13923.4
15561.1
16637.8
17105.3
17105.2
16637.5
15560.9
13923.4
11935.4
10765.6
12499.6
13923.4
14873.5
15286.2
15286.2
14873.4
13923.4
12499.9
10765.7
9244.55
10765.6
11935.6
12734.7
13093.6
13093.7
12734.5
11935.4
10765.7
9244.24
)
;

boundaryField
{
    fixedWall_Bottom
    {
        type            calculated;
        value           nonuniform List<scalar> 10(7964.97 9305.69 10391.6 11113.3 11440.7 11440.6 11113.4 10391.8 9305.63 7965.25);
    }
    fixedWall_Right
    {
        type            calculated;
        value           nonuniform List<scalar> 10(7965.25 9305.63 10391.8 11113.4 11440.6 11440.7 11113.3 10391.6 9305.69 7964.97);
    }
    fixedWall_Left
    {
        type            calculated;
        value           nonuniform List<scalar> 10(7964.97 9305.69 10391.6 11113.3 11440.7 11440.6 11113.4 10391.8 9305.63 7965.25);
    }
    fixedWall_Top
    {
        type            calculated;
        value           nonuniform List<scalar> 10(7965.25 9305.63 10391.8 11113.4 11440.6 11440.7 11113.3 10391.6 9305.69 7964.97);
    }
    frontAndBack
    {
        type            empty;
    }
}


// ************************************************************************* //
