/*--------------------------------*- C++ -*----------------------------------*\
| =========                 |                                                 |
| \\      /  F ield         | OpenFOAM: The Open Source CFD Toolbox           |
|  \\    /   O peration     | Version:  2306                                  |
|   \\  /    A nd           | Website:  www.openfoam.com                      |
|    \\/     M anipulation  |                                                 |
\*---------------------------------------------------------------------------*/
FoamFile
{
    version     2.0;
    format      ascii;
    arch        "LSB;label=32;scalar=64";
    class       volScalarField;
    location    "0.02";
    object      ILambda_31_0;
}
// * * * * * * * * * * * * * * * * * * * * * * * * * * * * * * * * * * * * * //

dimensions      [1 0 -3 0 0 0 0];

internalField   nonuniform List<scalar> 
100
(
118.044
118.044
118.044
118.045
118.051
118.098
118.118
116.964
117.084
114.859
289.286
289.286
289.287
289.291
289.294
289.18
288.811
288.967
294.814
271.555
545.226
545.226
545.228
545.233
545.191
544.761
544.542
553.409
575.496
450.263
873.244
873.245
873.247
873.247
873.125
872.414
873.606
894.793
925.393
647.381
1182.1
1182.1
1182.1
1182.09
1181.87
1181.05
1184.74
1218.14
1242.44
803.077
1454.43
1454.43
1454.43
1454.4
1454.1
1453.41
1460.22
1503.6
1510.21
918.336
1692.8
1692.8
1692.8
1692.75
1692.4
1692.04
1702.12
1752.34
1733.83
1006.39
1896.24
1896.24
1896.24
1896.17
1895.8
1895.94
1909.03
1962.87
1915.53
1072.59
2063.77
2063.77
2063.76
2063.67
2063.34
2064.05
2079.66
2134.45
2058.01
1120.91
2235.53
2235.53
2235.51
2235.43
2235.17
2236.56
2254.21
2306.69
2195.45
1165.62
)
;

boundaryField
{
    fixedWall_Bottom
    {
        type            greyDiffusiveRadiation;
        refValue        uniform 0;
        refGradient     uniform 0;
        valueFraction   uniform 1;
        source          uniform 0;
        value           uniform 0;
    }
    fixedWall_Right
    {
        type            greyDiffusiveRadiation;
        refValue        uniform 0;
        refGradient     uniform 0;
        valueFraction   uniform 1;
        source          uniform 0;
        value           uniform 0;
    }
    fixedWall_Left
    {
        type            greyDiffusiveRadiation;
        refValue        uniform 0;
        refGradient     uniform 0;
        valueFraction   uniform 0;
        source          uniform 0;
        value           nonuniform List<scalar> 10(118.044 289.286 545.226 873.244 1182.1 1454.43 1692.8 1896.24 2063.77 2235.53);
    }
    fixedWall_Top
    {
        type            greyDiffusiveRadiation;
        refValue        uniform 0;
        refGradient     uniform 0;
        valueFraction   uniform 0;
        source          uniform 0;
        value           nonuniform List<scalar> 10(2235.53 2235.53 2235.51 2235.43 2235.17 2236.56 2254.21 2306.69 2195.45 1165.62);
    }
    frontAndBack
    {
        type            empty;
    }
}


// ************************************************************************* //
