/*--------------------------------*- C++ -*----------------------------------*\
| =========                 |                                                 |
| \\      /  F ield         | OpenFOAM: The Open Source CFD Toolbox           |
|  \\    /   O peration     | Version:  2112                                  |
|   \\  /    A nd           | Website:  www.openfoam.com                      |
|    \\/     M anipulation  |                                                 |
\*---------------------------------------------------------------------------*/
FoamFile
{
    version     2.0;
    format      ascii;
    arch        "LSB;label=32;scalar=64";
    class       volScalarField;
    location    "0.075";
    object      G;
}
// * * * * * * * * * * * * * * * * * * * * * * * * * * * * * * * * * * * * * //

dimensions      [1 0 -3 0 0 0 0];

internalField   nonuniform List<scalar> 
900
(
136203
158127
166526
171318
174830
177680
180049
182037
183705
185092
186219
187104
187760
188193
188408
188408
188193
187760
187104
186219
185091
183705
182037
180049
177680
174830
171318
166526
158127
136203
120323
142878
156035
164283
170003
174327
177747
180517
182782
184626
186102
187249
188090
188643
188917
188917
188643
188090
187249
186102
184626
182782
180517
177747
174327
170003
164283
156035
142877
120323
116333
134960
148448
158228
165433
170949
175295
178790
181626
183919
185745
187158
188191
188868
189204
189204
188868
188191
187158
185745
183919
181626
178790
175295
170949
165433
158228
148447
134960
116333
115032
130735
143166
153127
160971
167192
172176
176210
179488
182137
184246
185874
187064
187843
188228
188228
187843
187064
185874
184246
182137
179488
176210
172176
167192
160971
153127
143166
130735
115032
114407
128204
139474
149034
156957
163472
168814
173199
176789
179704
182030
183829
185145
186007
186433
186433
186007
185145
183829
182030
179704
176789
173199
168814
163472
156957
149034
139474
128204
114407
113653
126177
136498
145529
153277
159840
165347
169941
173745
176857
179353
181290
182710
183641
184103
184103
183641
182710
181290
179353
176857
173745
169941
165347
159840
153278
145529
136498
126177
113653
112831
124453
134027
142543
150011
156473
161997
166675
170591
173821
176427
178457
179950
180931
181417
181417
180931
179950
178457
176427
173821
170591
166675
161997
156473
150012
142543
134027
124453
112831
112008
122916
131875
139911
147057
153330
158770
163434
167379
170658
173319
175402
176938
177949
178451
178451
177949
176938
175402
173319
170658
167379
163434
158770
153330
147057
139911
131875
122916
112008
111105
121415
129857
137458
144280
150328
155628
160218
164134
167412
170088
172192
173748
174776
175286
175286
174776
173748
172192
170088
167412
164134
160218
155628
150328
144281
137458
129857
121415
111105
110074
119881
127885
135099
141614
147427
152560
157039
160886
164126
166784
168882
170439
171468
171981
171981
171468
170439
168882
166784
164126
160886
157039
152560
147427
141615
135099
127885
119881
110074
108935
118312
125936
132799
139025
144602
149552
153896
157646
160820
163435
165505
167046
168066
168575
168575
168066
167046
165505
163435
160820
157646
153896
149552
144602
139025
132799
125936
118312
108935
107708
116699
123985
130525
136477
141822
146583
150777
154414
157503
160055
162083
163595
164598
165098
165098
164598
163595
162083
160055
157503
154414
150777
146583
141822
136477
130525
123985
116699
107708
106387
115025
122006
128246
133942
139063
143634
147673
151185
154177
156656
158629
160102
161082
161571
161571
161082
160102
158629
156656
154177
151185
147673
143634
139063
133942
128246
122006
115025
106387
104969
113281
119988
125948
131400
136308
140692
144574
147956
150843
153239
155151
156580
157531
158006
158006
157531
156580
155151
153239
150843
147956
144574
140692
136308
131401
125948
119988
113281
104969
103460
111469
117923
123619
128842
133544
137746
141470
144720
147498
149807
151651
153032
153951
154410
154410
153951
153032
151651
149807
147498
144720
141470
137746
133544
128842
123619
117923
111469
103460
101866
109587
115807
121251
126254
130760
134784
138353
141470
144138
146357
148131
149460
150346
150788
150788
150346
149460
148131
146357
144138
141470
138353
134784
130760
126254
121252
115807
109587
101866
100189
107634
113634
118838
123629
127946
131797
135214
138200
140756
142885
144587
145863
146713
147138
147138
146713
145863
144587
142885
140756
138200
135214
131797
127946
123630
118838
113634
107634
100189
98430.6
105607
111401
116372
120959
125095
128778
132044
134901
137347
139384
141014
142236
143051
143458
143458
143051
142236
141014
139384
137347
134901
132044
128778
125095
120960
116372
111401
105607
98430.5
96591.8
103507
109104
113850
118237
122197
125717
128836
131565
133902
135848
137405
138573
139352
139741
139741
139352
138573
137405
135848
133902
131565
128836
125717
122197
118238
113850
109104
103507
96591.7
94674.5
101331
106740
111265
115456
119245
122605
125579
128182
130411
132267
133752
134867
135609
135981
135981
135609
134867
133752
132267
130411
128182
125579
122605
119245
115456
111265
106739
101331
94674.2
92678
99078.1
104303
108613
112609
116230
119433
122264
124743
126866
128632
130046
131106
131814
132167
132167
131814
131106
130046
128632
126866
124743
122264
119433
116230
112609
108613
104303
99077.9
92677.8
90601.3
96743.5
101789
105885
109685
113142
116191
118880
121236
123253
124931
126273
127280
127952
128288
128288
127952
127280
126273
124931
123253
121236
118880
116191
113142
109685
105885
101789
96743.6
90601.4
88443.6
94323.9
99191.3
103073
106676
109968
112865
115413
117645
119558
121148
122420
123374
124010
124328
124328
124010
123374
122420
121148
119558
117645
115413
112865
109968
106676
103073
99191.5
94324.1
88443.9
86200.3
91812.1
96499.7
100167
103568
106694
109440
111846
113955
115764
117266
118467
119369
119970
120271
120271
119970
119369
118467
117266
115764
113955
111846
109440
106694
103568
100167
96499.8
91812.3
86200.6
83860.4
89194.6
93698.2
97148
100342
103300
105895
108158
110143
111848
113264
114394
115243
115809
116092
116092
115809
115243
114394
113264
111848
110143
108158
105895
103300
100342
97148
93698.2
89194.6
83860.4
81409.5
86449.9
90760.5
93987.2
96965
99750.8
102194
104314
106174
107775
109103
110164
110960
111491
111757
111757
111491
110960
110163
109103
107774
106174
104314
102194
99750.6
96964.8
93987
90760.3
86449.8
81409.4
78860.3
83579.7
87679.7
90671.8
93421.9
96027.2
98315.9
100290
102021
103517
104759
105748
106491
106988
107236
107236
106987
106491
105748
104759
103517
102021
100290
98315.8
96027.1
93421.8
90671.7
87679.6
83579.5
78860.1
76135.8
80489.8
84351.8
87092.3
89596.3
92007.8
94136.2
95958.6
97555.4
98940.6
100092
101008
101695
102155
102386
102386
102155
101695
101008
100092
98940.5
97555.3
95958.5
94136.1
92007.7
89596.2
87092.2
84351.7
80489.8
76135.7
73275.2
77222.9
80818.6
83304.8
85570.2
87795.2
89770.8
91450.7
92921.2
94203.8
95271.9
96119.1
96754.9
97181.4
97395.3
97395.3
97181.3
96754.8
96119
95271.7
94203.6
92921
91450.5
89770.7
87795.2
85570.2
83304.7
80818.6
77222.9
73275.2
69168.8
72472.7
75708.5
77863.3
79791
81753.7
83531.2
85022.8
86315.2
87453
88408.4
89163.3
89726.6
90105.8
90297.6
90297.6
90105.8
89726.5
89163.2
88408.3
87452.9
86315
85022.6
83531.1
81753.7
79791
77863.3
75708.4
72472.7
69168.9
)
;

boundaryField
{
    fixedWall_Bottom
    {
        type            calculated;
        value           nonuniform List<scalar> 
30
(
161384
165736
168869
171530
173848
175891
177673
179217
180546
181670
182596
183330
183877
184241
184422
184422
184241
183877
183330
182596
181670
180546
179217
177672
175891
173848
171530
168868
165736
161384
)
;
    }
    fixedWall_Right
    {
        type            calculated;
        value           nonuniform List<scalar> 
30
(
105214
105840
106591
107092
107429
107313
106958
106493
105879
105088
104157
103114
101960
100697
99333.8
97878.9
96336.2
94708.2
92998.2
91208.6
89339.8
87391.8
85364.5
83254.2
81051.4
78744.5
76349.3
73800
71150.8
67430.7
)
;
    }
    fixedWall_Left
    {
        type            calculated;
        value           nonuniform List<scalar> 
30
(
105214
105841
106591
107092
107429
107313
106958
106493
105879
105089
104157
103114
101960
100697
99333.9
97878.9
96336.2
94708.3
92998.4
91208.8
89340
87391.8
85364.2
83253.9
81051.4
78744.6
76349.4
73800.1
71150.8
67430.7
)
;
    }
    fixedWall_Top
    {
        type            calculated;
        value           nonuniform List<scalar> 
30
(
67591.6
70571.6
73628.6
75658.1
77485.3
79360.9
81063.4
82490.9
83728.9
84820.5
85737.8
86462.5
87003.4
87367.7
87552
87552
87367.6
87003.3
86462.4
85737.7
84820.4
83728.7
82490.8
81063.2
79360.9
77485.3
75658.1
73628.6
70571.6
67591.6
)
;
    }
    frontAndBack
    {
        type            empty;
    }
}


// ************************************************************************* //
