/*--------------------------------*- C++ -*----------------------------------*\
| =========                 |                                                 |
| \\      /  F ield         | OpenFOAM: The Open Source CFD Toolbox           |
|  \\    /   O peration     | Version:  2112                                  |
|   \\  /    A nd           | Website:  www.openfoam.com                      |
|    \\/     M anipulation  |                                                 |
\*---------------------------------------------------------------------------*/
FoamFile
{
    version     2.0;
    format      ascii;
    arch        "LSB;label=32;scalar=64";
    class       volScalarField;
    location    "0.075";
    object      qin;
}
// * * * * * * * * * * * * * * * * * * * * * * * * * * * * * * * * * * * * * //

dimensions      [1 0 -3 0 0 0 0];

internalField   uniform 0;

boundaryField
{
    fixedWall_Bottom
    {
        type            calculated;
        value           nonuniform List<scalar> 
30
(
22525.4
25678.1
27835.7
29675.3
31266.9
32667.2
33884.5
34937.3
35840.8
36603.9
37231.8
37729.1
38099.3
38344.9
38467.4
38467.4
38344.9
38099.3
37729.1
37231.8
36603.8
35840.8
34937.2
33884.4
32667.1
31266.8
29675.2
27835.5
25678
22525.2
)
;
    }
    fixedWall_Right
    {
        type            calculated;
        value           nonuniform List<scalar> 
30
(
54592.7
55366.2
55833
56180.8
56376.2
56221.4
55882.4
55465.8
54942.4
54293.6
53548.5
52730.9
51843.2
50886.8
49869.4
48797.8
47675.1
46502.9
45283.3
44017.5
42705.4
41346.2
39938.7
38479.2
36959
35368.4
33717.6
31956
30121.4
27463.7
)
;
    }
    fixedWall_Left
    {
        type            calculated;
        value           nonuniform List<scalar> 
30
(
54592.8
55366.3
55833.1
56180.9
56376.3
56221.5
55882.4
55465.9
54942.5
54293.6
53548.6
52730.9
51843.3
50886.9
49869.5
48797.9
47675.2
46503
45283.5
44017.8
42705.7
41346.2
39938.5
38478.8
36958.9
35368.4
33717.7
31956
30121.4
27463.6
)
;
    }
    fixedWall_Top
    {
        type            calculated;
        value           nonuniform List<scalar> 
30
(
40728.1
43364.8
45806.4
47502.3
49022.4
50579.7
51996.1
53191.1
54229.8
55145.6
55916.2
56526.3
56982.2
57289.2
57444.5
57444.5
57289.2
56982.2
56526.3
55916.1
55145.5
54229.6
53191
51996
50579.6
49022.4
47502.3
45806.3
43364.8
40728.1
)
;
    }
    frontAndBack
    {
        type            empty;
    }
}


// ************************************************************************* //
