/*--------------------------------*- C++ -*----------------------------------*\
| =========                 |                                                 |
| \\      /  F ield         | OpenFOAM: The Open Source CFD Toolbox           |
|  \\    /   O peration     | Version:  2112                                  |
|   \\  /    A nd           | Website:  www.openfoam.com                      |
|    \\/     M anipulation  |                                                 |
\*---------------------------------------------------------------------------*/
FoamFile
{
    version     2.0;
    format      ascii;
    arch        "LSB;label=32;scalar=64";
    class       volScalarField;
    location    "0.075";
    object      qr;
}
// * * * * * * * * * * * * * * * * * * * * * * * * * * * * * * * * * * * * * //

dimensions      [1 0 -3 0 0 0 0];

internalField   uniform 0;

boundaryField
{
    fixedWall_Bottom
    {
        type            calculated;
        value           nonuniform List<scalar> 
30
(
-34178.7
-31026
-28868.4
-27028.8
-25437.2
-24036.9
-22819.6
-21766.8
-20863.2
-20100.2
-19472.3
-18975
-18604.8
-18359.1
-18236.7
-18236.7
-18359.2
-18604.8
-18975
-19472.3
-20100.2
-20863.3
-21766.9
-22819.7
-24036.9
-25437.3
-27028.9
-28868.6
-31026.1
-34178.9
)
;
    }
    fixedWall_Right
    {
        type            calculated;
        value           nonuniform List<scalar> 
30
(
54592.7
55366.2
55833
56180.8
56376.2
56221.4
55882.4
55465.8
54942.4
54293.6
53548.5
52730.9
51843.2
50886.8
49869.4
48797.8
47675.1
46502.9
45283.3
44017.5
42705.4
41346.2
39938.7
38479.2
36959
35368.4
33717.6
31956
30121.4
27463.7
)
;
    }
    fixedWall_Left
    {
        type            calculated;
        value           nonuniform List<scalar> 
30
(
54592.8
55366.3
55833.1
56180.9
56376.3
56221.5
55882.4
55465.9
54942.5
54293.6
53548.6
52730.9
51843.3
50886.9
49869.5
48797.9
47675.2
46503
45283.5
44017.8
42705.7
41346.2
39938.5
38478.8
36958.9
35368.4
33717.7
31956
30121.4
27463.6
)
;
    }
    fixedWall_Top
    {
        type            calculated;
        value           nonuniform List<scalar> 
30
(
40728.1
43364.8
45806.4
47502.3
49022.4
50579.7
51996.1
53191.1
54229.8
55145.6
55916.2
56526.3
56982.2
57289.2
57444.5
57444.5
57289.2
56982.2
56526.3
55916.1
55145.5
54229.6
53191
51996
50579.6
49022.4
47502.3
45806.3
43364.8
40728.1
)
;
    }
    frontAndBack
    {
        type            empty;
    }
}


// ************************************************************************* //
