/*--------------------------------*- C++ -*----------------------------------*\
| =========                 |                                                 |
| \\      /  F ield         | OpenFOAM: The Open Source CFD Toolbox           |
|  \\    /   O peration     | Version:  2406                                  |
|   \\  /    A nd           | Website:  www.openfoam.com                      |
|    \\/     M anipulation  |                                                 |
\*---------------------------------------------------------------------------*/
FoamFile
{
    version     2.0;
    format      ascii;
    arch        "LSB;label=32;scalar=64";
    class       volScalarField;
    location    "10000";
    object      CondNu;
}
// * * * * * * * * * * * * * * * * * * * * * * * * * * * * * * * * * * * * * //

dimensions      [1 0 -3 0 0 0 0];

internalField   uniform 0;

boundaryField
{
    bottomwall
    {
        type            calculated;
        value           nonuniform List<scalar> 
60
(
15.0932
11.7149
9.8108
8.63955
7.86928
7.33437
6.94511
6.64872
6.41236
6.21554
6.0452
5.89185
5.74784
5.60732
5.46675
5.32469
5.18088
5.03542
4.88821
4.73877
4.58621
4.42903
4.26497
4.09119
3.90521
3.70633
3.49678
3.28104
3.06223
2.83658
2.58894
2.29403
1.92661
1.47959
0.983728
0.51937
0.211604
0.206522
0.63345
1.56513
2.99116
4.81503
6.87594
8.98665
10.9724
12.6973
14.0716
15.0436
15.5858
15.6862
15.3519
14.6211
13.5785
12.3624
11.1597
10.19
9.68704
9.91893
11.2342
14.2509
)
;
    }
    topwall
    {
        type            calculated;
        value           nonuniform List<scalar> 
60
(
0.482962
0.315054
0.182918
0.0621815
-0.0345838
-0.107942
-0.156488
-0.176434
-0.162228
-0.113076
-0.0374708
0.049087
0.131247
0.199581
0.251166
0.286378
0.305693
0.308716
0.294968
0.264885
0.220085
0.162964
0.0962237
0.0228444
-0.0533352
-0.126727
-0.189471
-0.232024
-0.24518
-0.223031
-0.165608
-0.0798344
0.0218954
0.125027
0.216604
0.287898
0.335056
0.35798
0.358421
0.338413
0.299725
0.24439
0.175783
0.0994035
0.0225835
-0.0469698
-0.102788
-0.139958
-0.153868
-0.139236
-0.0917101
-0.0115487
0.0944234
0.215574
0.343115
0.473155
0.606859
0.742198
0.891546
1.00874
)
;
    }
    coldwall
    {
        type            calculated;
        value           nonuniform List<scalar> 
48
(
-20.2233
-10.5449
-6.50398
-4.39496
-3.13897
-2.35031
-1.85544
-1.55816
-1.39655
-1.3275
-1.32022
-1.35294
-1.41065
-1.4834
-1.56484
-1.65107
-1.73982
-1.82978
-1.92025
-2.01083
-2.10132
-2.19164
-2.28175
-2.37163
-2.4613
-2.55079
-2.64015
-2.72939
-2.81855
-2.90764
-2.99664
-3.0855
-3.17414
-3.2624
-3.35009
-3.43691
-3.52252
-3.60645
-3.68815
-3.76696
-3.84211
-3.91275
-4.01274
-3.94846
-3.88432
-3.83594
-3.84724
-4.06207
)
;
    }
    radinlet
    {
        type            calculated;
        value           nonuniform List<scalar> 
12
(
-3.97794
-4.03665
-4.08784
-4.13044
-4.16339
-4.18577
-4.19675
-4.19575
-4.18244
-4.15682
-4.11928
-4.0707
)
;
    }
    hotwall
    {
        type            calculated;
        value           nonuniform List<scalar> 
60
(
-20.8101
-11.4248
-7.31644
-5.05424
-3.64126
-2.71668
-2.11225
-1.72995
-1.50379
-1.38636
-1.34308
-1.34916
-1.38727
-1.44575
-1.51706
-1.59644
-1.68106
-1.76925
-1.86004
-1.9529
-2.04748
-2.14356
-2.24096
-2.33952
-2.43909
-2.53951
-2.64061
-2.74221
-2.84414
-2.94621
-3.04821
-3.14995
-3.25119
-3.35171
-3.45125
-3.54952
-3.64622
-3.74103
-3.83355
-3.92337
-4.01
-4.09291
-4.1715
-4.24514
-4.31307
-4.37451
-4.42858
-4.47434
-4.51086
-4.53721
-4.55263
-4.55667
-4.54943
-4.53211
-4.5078
-4.48323
-4.47282
-4.50971
-4.68124
-5.26194
)
;
    }
    frontAndback
    {
        type            empty;
    }
}


// ************************************************************************* //
