/*--------------------------------*- C++ -*----------------------------------*\
| =========                 |                                                 |
| \\      /  F ield         | OpenFOAM: The Open Source CFD Toolbox           |
|  \\    /   O peration     | Version:  2406                                  |
|   \\  /    A nd           | Website:  www.openfoam.com                      |
|    \\/     M anipulation  |                                                 |
\*---------------------------------------------------------------------------*/
FoamFile
{
    version     2.0;
    format      ascii;
    arch        "LSB;label=32;scalar=64";
    class       volScalarField;
    location    "10000";
    object      G;
}
// * * * * * * * * * * * * * * * * * * * * * * * * * * * * * * * * * * * * * //

dimensions      [1 0 -3 0 0 0 0];

internalField   nonuniform List<scalar> 
3600
(
1780.01
1794.43
1802.47
1808.02
1811.88
1814.66
1816.75
1818.41
1819.79
1821.04
1822.26
1823.48
1824.66
1825.74
1826.68
1827.52
1828.3
1829.09
1829.92
1830.8
1831.71
1832.6
1833.38
1833.95
1834.28
1834.5
1834.92
1835.97
1837.86
1840.19
1841.6
1840
1833.49
1821.85
1808.1
1799.31
1805.95
1839.61
1909.62
2019.83
2166.69
2339.43
2522.42
2698.54
2852.54
2973.12
3053.46
3090.35
3083.05
3032.42
2940.97
2813.52
2658.02
2485.63
2309.87
2144.61
2001.51
1888.29
1806.43
1743.57
1781.22
1791.81
1798.47
1803.75
1807.65
1810.62
1812.98
1814.94
1816.65
1818.23
1819.78
1821.31
1822.76
1824.07
1825.24
1826.32
1827.36
1828.43
1829.55
1830.75
1831.99
1833.21
1834.33
1835.3
1836.23
1837.42
1839.25
1841.85
1844.65
1846.08
1843.88
1836.21
1823.38
1809.42
1802.79
1815.18
1858.65
1941.82
2066.49
2226.2
2407.21
2591.75
2762.01
2903.62
3007.26
3068.4
3085.81
3059.98
2992.42
2886.11
2746.55
2582.73
2407.01
2233.78
2077.07
1947.91
1852.14
1790.27
1755.12
1745.26
1783.2
1791.06
1796.36
1801.06
1804.77
1807.75
1810.2
1812.28
1814.11
1815.82
1817.49
1819.14
1820.73
1822.24
1823.7
1825.17
1826.7
1828.34
1830.09
1831.95
1833.84
1835.68
1837.4
1839.06
1840.86
1843.13
1845.95
1848.77
1850.11
1847.84
1840.18
1827.37
1813.24
1805.83
1816.37
1856.47
1934.48
2052.25
2203.73
2375.98
2552.28
2715.97
2853.64
2956.58
3020.42
3043.63
3026.04
2968.32
2872.59
2743.58
2589.69
2422.82
2256.91
2105.62
1979.68
1885.09
1822.31
1787.34
1771.72
1773.08
1785.11
1791.42
1795.71
1799.83
1803.35
1806.41
1809.1
1811.54
1813.8
1815.96
1818.07
1820.09
1821.99
1823.75
1825.45
1827.14
1828.9
1830.75
1832.69
1834.64
1836.52
1838.23
1839.78
1841.37
1843.29
1845.64
1847.94
1848.77
1846
1837.82
1824.34
1809.28
1800.65
1809.77
1848.44
1925.2
2042
2192.71
2364.23
2539.62
2702.13
2838.46
2940.21
3003.4
3026.81
3010.41
2954.75
2861.62
2735.37
2584.07
2419.47
2255.6
2106.24
1982.22
1889.52
1828.61
1795.23
1782.26
1780.93
1788.43
1787.8
1793.41
1797.14
1800.9
1804.3
1807.43
1810.35
1813.11
1815.77
1818.38
1820.94
1823.36
1825.57
1827.51
1829.2
1830.69
1832.06
1833.32
1834.47
1835.43
1836.16
1836.68
1837.21
1838.08
1839.5
1841.08
1841.48
1838.59
1830.47
1817.04
1801.85
1792.85
1801.46
1839.68
1916.24
2033.09
2183.92
2355.27
2529.86
2690.82
2825.04
2924.58
2986
3008.59
2992.55
2938.4
2847.66
2724.36
2576.22
2414.84
2254.19
2108.1
1987.41
1897.96
1839.94
1808.78
1797.11
1796.71
1800.89
1804.84
1792.16
1797.39
1800.74
1804.17
1807.33
1810.31
1813.08
1815.68
1818.16
1820.54
1822.85
1825.01
1826.94
1828.56
1829.83
1830.77
1831.39
1831.7
1831.7
1831.39
1830.85
1830.35
1830.31
1831.04
1832.29
1832.8
1830.45
1823.11
1810.46
1795.75
1786.8
1795.1
1832.95
1909.34
2026.38
2177.62
2349.26
2523.63
2683.63
2816.19
2913.73
2973.32
2994.68
2978.25
2924.54
2834.87
2713.02
2566.57
2407.02
2248.41
2104.66
1986.68
1900.28
1845.49
1817.44
1808.33
1809.9
1814.84
1819.41
1817.94
1797.18
1801.66
1804.43
1807.21
1809.71
1812.05
1814.14
1816.02
1817.72
1819.27
1820.69
1821.97
1823.08
1824
1824.7
1825.15
1825.31
1825.16
1824.67
1823.96
1823.3
1823.19
1824.01
1825.63
1826.87
1825.59
1819.49
1807.93
1793.85
1784.92
1792.7
1829.76
1905.49
2022.22
2173.49
2345.18
2519.21
2678.19
2809.05
2904.49
2962.06
2981.91
2964.75
2911.06
2821.98
2701.04
2555.68
2397.36
2240.18
2098.11
1982.14
1898.07
1845.9
1820.61
1814.19
1818.02
1825.01
1830.09
1832.34
1826.53
1799.91
1803.09
1805.05
1806.88
1808.42
1809.86
1811.07
1812.07
1812.95
1813.76
1814.48
1815.07
1815.57
1816
1816.42
1816.81
1817.11
1817.25
1817.27
1817.38
1818.05
1819.69
1822.24
1824.6
1824.6
1819.81
1809.29
1795.71
1786.57
1793.51
1829.43
1904.11
2020.18
2171.16
2342.68
2516.27
2674.23
2803.44
2896.84
2952.42
2970.74
2952.73
2898.84
2810.02
2689.58
2544.8
2387.21
2230.98
2090.2
1975.83
1893.6
1843.37
1820.05
1815.53
1821.08
1829.41
1835.91
1838.15
1837.23
1829.18
1798.12
1800.01
1801.35
1802.41
1803.24
1804.07
1804.77
1805.33
1805.88
1806.52
1807.23
1807.89
1808.47
1809
1809.58
1810.25
1811
1811.85
1812.94
1814.65
1817.36
1821.02
1824.56
1825.8
1822.16
1812.45
1799.08
1789.44
1795.31
1829.92
1903.5
2018.93
2169.74
2341.24
2514.57
2671.7
2799.46
2891.06
2944.87
2961.84
2943.05
2888.92
2800.15
2679.82
2535.11
2377.61
2221.7
2081.69
1968.61
1888.06
1839.68
1818.12
1815.14
1821.91
1831.1
1838.07
1840.95
1839.48
1835.81
1827.2
1792.6
1793.96
1795.22
1796.15
1796.86
1797.7
1798.55
1799.29
1800.04
1800.97
1802.11
1803.33
1804.47
1805.52
1806.53
1807.58
1808.77
1810.32
1812.6
1815.98
1820.43
1824.91
1827.17
1824.49
1815.4
1802.06
1791.72
1796.34
1829.58
1902.12
2017.13
2168.1
2340.01
2513.47
2670.11
2796.74
2886.81
2939.14
2955.04
2935.75
2881.57
2792.91
2672.58
2527.63
2369.75
2213.58
2073.7
1961.34
1882.12
1835.44
1815.66
1814.25
1822.25
1832.26
1839.61
1842.51
1841.23
1836.71
1831.34
1823.09
1786.57
1788.26
1789.91
1791.28
1792.38
1793.6
1794.95
1796.19
1797.35
1798.62
1800.11
1801.79
1803.52
1805.16
1806.67
1808.14
1809.8
1812.08
1815.48
1820.05
1824.86
1827.68
1825.64
1816.99
1803.56
1792.47
1795.82
1827.69
1899.28
2014.11
2165.62
2338.36
2512.41
2668.96
2794.74
2883.51
2934.55
2949.6
2930.06
2876.04
2787.66
2667.39
2522.16
2363.73
2207.01
2066.89
1954.85
1876.52
1831.21
1812.99
1813.09
1822.35
1833.31
1841.25
1844.43
1843.23
1838.97
1832.8
1826.91
1819.28
1782.87
1785.24
1787.34
1789.31
1790.85
1792.4
1794.11
1795.77
1797.28
1798.73
1800.32
1802.17
1804.22
1806.34
1808.4
1810.46
1812.85
1816.08
1820.37
1824.96
1827.77
1825.85
1817.25
1803.48
1791.49
1793.49
1824
1894.75
2009.61
2162
2336.02
2511.12
2667.99
2793.23
2880.88
2930.75
2945.05
2925.34
2871.61
2783.6
2663.44
2517.89
2358.82
2201.43
2060.95
1949.07
1871.47
1827.31
1810.45
1811.85
1822.22
1834.02
1842.58
1846.2
1845.37
1841.56
1836.09
1829.7
1824.23
1817.21
1782.18
1784.94
1787.22
1789.55
1791.32
1792.91
1794.65
1796.51
1798.28
1799.93
1801.6
1803.5
1805.71
1808.17
1810.78
1813.65
1817.1
1821.32
1825.71
1828.3
1826.2
1817.26
1802.75
1789.48
1789.81
1818.72
1888.52
2003.48
2156.97
2332.63
2509.21
2666.83
2791.92
2878.75
2927.65
2941.29
2921.47
2868.04
2780.4
2660.3
2514.34
2354.49
2196.28
2055.3
1943.47
1866.55
1823.51
1807.95
1810.58
1821.94
1834.44
1843.44
1847.34
1846.77
1843.43
1838.79
1833.57
1827.95
1823.46
1817.06
1783.33
1785.98
1788.11
1790.51
1792.31
1793.77
1795.37
1797.31
1799.42
1801.49
1803.51
1805.61
1807.95
1810.61
1813.7
1817.43
1821.89
1826.43
1829.12
1827.03
1817.81
1802.47
1787.66
1785.95
1812.85
1881.33
1996.14
2150.66
2328.04
2506.32
2665
2790.26
2876.62
2924.87
2938.13
2918.38
2865.34
2778.05
2657.93
2511.44
2350.66
2191.46
2049.8
1937.87
1861.49
1819.48
1805.18
1809.03
1821.38
1834.59
1844.02
1848.08
1847.51
1844.21
1840.01
1835.79
1831.56
1827.08
1823.72
1818.08
1784.78
1787.02
1788.87
1791.23
1793.08
1794.5
1796.05
1798.15
1800.74
1803.5
1806.15
1808.62
1811.06
1813.79
1817.21
1821.52
1826.15
1829.17
1827.49
1818.46
1802.67
1786.56
1782.83
1807.54
1874.42
1988.76
2144.04
2322.95
2502.79
2662.45
2787.91
2873.91
2921.74
2934.94
2915.6
2863.22
2776.43
2656.3
2509.19
2347.36
2187.04
2044.57
1932.43
1856.44
1815.3
1802.09
1807.02
1820.31
1834.26
1844.24
1848.63
1848.1
1844.63
1840.3
1836.4
1833.05
1829.82
1826.37
1823.97
1819.21
1785.76
1787.64
1789.29
1791.69
1793.78
1795.43
1797.17
1799.57
1802.71
1806.18
1809.47
1812.29
1814.79
1817.53
1821.03
1825.09
1828.03
1826.72
1818.17
1802.43
1785.55
1780.22
1803
1868.38
1982.28
2138.25
2318.55
2499.73
2660.07
2785.38
2870.73
2917.99
2931.17
2912.46
2861.04
2775.04
2655.08
2507.39
2344.46
2182.94
2039.62
1927.21
1851.58
1811.23
1798.96
1804.76
1818.76
1833.3
1843.81
1848.7
1848.55
1845.17
1840.65
1836.55
1833.4
1830.78
1828.16
1825.35
1823.58
1819.7
1786.33
1788.14
1789.8
1792.43
1794.98
1797.11
1799.24
1801.98
1805.5
1809.38
1812.98
1815.95
1818.49
1821.21
1824.3
1826.54
1825.06
1816.71
1801.08
1783.71
1777.19
1798.48
1862.77
1976.57
2133.55
2315.47
2498.06
2658.93
2783.75
2868
2914.25
2927.09
2908.86
2858.45
2773.39
2653.78
2505.64
2341.65
2178.92
2034.72
1922.08
1846.86
1807.33
1796
1802.57
1817.08
1831.93
1842.74
1848.04
1848.41
1845.49
1841.17
1836.98
1833.7
1831.24
1828.97
1826.49
1823.95
1822.48
1819.31
1787
1789.11
1790.98
1794
1797.1
1799.81
1802.34
1805.25
1808.73
1812.46
1815.89
1818.79
1821.42
1823.97
1825.54
1823.58
1815
1799.1
1781.03
1773.3
1793.22
1856.7
1970.82
2129.3
2313.31
2497.69
2659.3
2783.61
2866.53
2911.42
2923.53
2905.47
2855.84
2771.59
2652.29
2503.71
2338.68
2174.73
2029.64
1916.75
1841.98
1803.36
1793.05
1800.46
1815.46
1830.5
1841.38
1846.83
1847.56
1845.16
1841.33
1837.44
1834.24
1831.82
1829.76
1827.48
1824.87
1822.34
1820.92
1818.2
1788.33
1791.01
1793.19
1796.6
1800.15
1803.27
1805.99
1808.71
1811.64
1814.64
1817.52
1820.3
1822.97
1824.57
1822.62
1813.96
1797.64
1778.53
1769.15
1787.35
1849.85
1964.37
2124.66
2311.23
2497.86
2660.56
2784.56
2866.22
2909.71
2921
2902.96
2853.93
2770.3
2651.12
2501.92
2335.69
2170.42
2024.37
1911.17
1836.78
1799.05
1789.79
1798.11
1813.69
1828.99
1839.91
1845.39
1846.29
1844.24
1840.88
1837.43
1834.56
1832.37
1830.57
1828.64
1826.19
1823.38
1820.76
1819.26
1816.68
1790.63
1793.99
1796.37
1799.97
1803.66
1806.85
1809.36
1811.46
1813.38
1815.34
1817.62
1820.29
1822.36
1821.2
1813.28
1797.1
1777.12
1765.88
1781.87
1842.85
1957.4
2119.4
2308.67
2497.83
2661.9
2785.81
2866.36
2908.56
2919.16
2901.28
2852.95
2769.97
2650.81
2500.82
2333.22
2166.46
2019.3
1905.67
1831.53
1794.53
1786.16
1795.28
1811.42
1827.01
1838.08
1843.68
1844.76
1842.99
1839.99
1836.92
1834.38
1832.51
1831.05
1829.56
1827.61
1825
1822.07
1819.4
1817.77
1815.08
1793.92
1797.74
1800.05
1803.47
1806.86
1809.67
1811.57
1812.69
1813.46
1814.51
1816.38
1818.5
1818.27
1811.76
1796.65
1776.59
1763.9
1777.66
1836.75
1950.85
2114.14
2305.86
2497.45
2662.89
2786.73
2866.2
2907.22
2917.3
2899.81
2852.45
2770.34
2651.35
2500.61
2331.58
2163.26
2014.91
1900.79
1826.83
1790.41
1782.7
1792.32
1808.72
1824.41
1835.55
1841.31
1842.7
1841.34
1838.78
1836.06
1833.8
1832.15
1830.97
1829.89
1828.51
1826.52
1823.87
1820.97
1818.33
1816.6
1813.63
1797.76
1801.57
1803.44
1806.26
1808.94
1810.97
1811.94
1812.03
1811.95
1812.58
1813.96
1814.04
1808.81
1795.2
1775.84
1762.45
1774.48
1831.89
1945.47
2109.84
2303.69
2497.35
2663.79
2787.24
2865.43
2905.18
2914.82
2897.93
2851.82
2770.85
2652.26
2500.93
2330.56
2160.73
2011.26
1896.73
1823.03
1787.24
1780.13
1790.03
1806.35
1821.72
1832.54
1838.19
1839.78
1838.92
1836.95
1834.77
1832.87
1831.42
1830.4
1829.58
1828.64
1827.29
1825.31
1822.77
1820.05
1817.53
1815.77
1812.47
1801.43
1804.61
1805.71
1807.59
1809.26
1810.27
1810.29
1809.7
1809.44
1809.95
1809.77
1805.18
1792.72
1774.13
1760.45
1771.26
1827.48
1940.96
2106.73
2302.84
2498.45
2665.49
2787.98
2864.33
2902.45
2911.51
2895.31
2850.64
2771.05
2653.05
2501.26
2329.68
2158.44
2007.98
1893.19
1819.95
1784.99
1778.67
1788.95
1805.12
1819.9
1829.97
1835.02
1836.38
1835.71
1834.27
1832.74
1831.37
1830.26
1829.4
1828.73
1828.05
1827.15
1825.82
1823.95
1821.62
1819.21
1816.92
1815.21
1811.63
1804.05
1806.05
1806.21
1806.98
1807.56
1807.6
1807.01
1806.47
1806.59
1806.29
1802.1
1790.3
1771.98
1757.68
1767.2
1822.42
1936.26
2104.02
2303.01
2500.95
2668.61
2789.81
2863.75
2899.65
2907.71
2892
2848.8
2770.69
2653.4
2501.28
2328.56
2155.99
2004.64
1889.72
1817.09
1783.16
1777.87
1788.82
1805.09
1819.43
1828.69
1832.84
1833.48
1832.48
1831.14
1830.03
1829.19
1828.52
1827.94
1827.42
1826.9
1826.26
1825.36
1824.08
1822.36
1820.33
1818.29
1816.32
1814.78
1811.07
1804.95
1805.44
1804.7
1804.41
1804.03
1803.48
1803.02
1803.24
1803.34
1799.96
1788.93
1770.57
1755
1762.52
1816.29
1930.47
2100.65
2303.19
2504.14
2672.88
2792.91
2864.28
2897.6
2904.26
2888.69
2846.69
2769.9
2653.25
2500.75
2326.92
2153.12
2000.99
1886.06
1814.12
1781.31
1777.14
1788.93
1805.6
1819.86
1828.65
1832.08
1831.94
1830.27
1828.53
1827.35
1826.71
1826.36
1826.07
1825.75
1825.35
1824.85
1824.18
1823.26
1822.02
1820.48
1818.75
1817.14
1815.57
1814.31
1810.69
1803.82
1802.83
1801.4
1800.26
1799.3
1798.87
1799.37
1800.22
1798.18
1788.56
1770.54
1753.52
1758.27
1809.67
1923.55
2096.08
2302.55
2507.06
2677.38
2796.59
2865.58
2896.42
2901.71
2886.19
2845.16
2769.38
2652.99
2499.8
2324.67
2149.6
1996.8
1882.03
1810.95
1779.31
1776.25
1788.85
1805.95
1820.35
1829.05
1832.22
1831.66
1829.46
1827.18
1825.57
1824.71
1824.34
1824.16
1823.97
1823.7
1823.29
1822.7
1821.92
1820.91
1819.68
1818.25
1816.81
1815.63
1814.52
1813.64
1810.37
1800.87
1798.72
1796.9
1795.25
1794.35
1794.89
1796.5
1796.09
1788.45
1771.49
1753.43
1755.24
1803.52
1916.27
2090.62
2300.94
2509.23
2681.39
2799.98
2866.78
2895.44
2899.71
2884.62
2844.78
2769.93
2653.45
2499.07
2322.16
2145.5
1991.93
1877.44
1807.42
1777.13
1775.23
1788.54
1805.94
1820.41
1829.13
1832.35
1831.83
1829.56
1827.03
1825.03
1823.74
1823.02
1822.66
1822.46
1822.25
1821.94
1821.41
1820.64
1819.65
1818.48
1817.14
1815.73
1814.5
1813.72
1813.08
1812.63
1809.96
1796.7
1793.9
1791.98
1790.34
1790.29
1792.19
1793.35
1788.05
1772.73
1754.17
1753.27
1798.25
1909.41
2085.09
2298.95
2510.86
2684.77
2802.65
2867.23
2893.81
2897.45
2883.34
2845.26
2771.71
2655.2
2499.34
2320.15
2141.38
1986.68
1872.3
1803.39
1774.59
1773.99
1788.07
1805.69
1820.06
1828.67
1831.95
1831.69
1829.73
1827.39
1825.34
1823.77
1822.65
1821.9
1821.43
1821.16
1820.93
1820.55
1819.87
1818.85
1817.58
1816.14
1814.59
1813.1
1811.98
1811.49
1811.3
1811.27
1809.37
1792.11
1789.22
1787.5
1786.55
1787.93
1790.03
1787.09
1773.86
1755.23
1751.74
1793.39
1902.94
2080.01
2297.37
2512.68
2687.94
2804.66
2866.68
2891.12
2894.32
2881.61
2845.83
2774.12
2657.96
2500.75
2319.14
2137.95
1981.72
1867.13
1799.1
1771.72
1772.44
1787.32
1805.16
1819.38
1827.77
1831
1830.96
1829.44
1827.57
1825.85
1824.34
1823
1821.86
1820.98
1820.44
1820.17
1819.96
1819.53
1818.69
1817.43
1815.87
1814.13
1812.29
1810.61
1809.48
1809.18
1809.31
1809.63
1808.54
1787.88
1785.35
1784.26
1784.7
1786.86
1785.73
1774.77
1756.41
1750.34
1788.37
1896.25
2075.08
2296.49
2515.43
2691.71
2806.55
2865.35
2887.29
2890.08
2879.07
2846.01
2776.53
2661.04
2502.74
2318.89
2135.32
1977.52
1862.55
1795.2
1769.01
1770.83
1786.36
1804.33
1818.33
1826.43
1829.55
1829.67
1828.56
1827.24
1826.04
1824.89
1823.66
1822.33
1821.07
1820.1
1819.56
1819.36
1819.2
1818.76
1817.82
1816.39
1814.6
1812.58
1810.45
1808.53
1807.3
1807.04
1807.36
1807.89
1807.5
1784.52
1782.77
1782.89
1784.65
1784.66
1775.71
1757.78
1749.07
1783.05
1888.89
2069.73
2295.96
2519.23
2696.64
2809.06
2863.79
2882.58
2884.74
2875.61
2845.61
2778.67
2664.03
2504.73
2318.74
2132.97
1973.82
1858.68
1792.1
1767.03
1769.77
1785.68
1803.5
1817.04
1824.69
1827.59
1827.8
1827.07
1826.3
1825.71
1825.09
1824.21
1822.99
1821.56
1820.2
1819.21
1818.72
1818.59
1818.5
1818.07
1817.12
1815.65
1813.77
1811.57
1809.21
1807.07
1805.69
1805.35
1805.69
1806.27
1806.33
1782.27
1781.81
1783.5
1784.45
1777.35
1759.73
1748.06
1777.38
1880.74
2063.67
2295.4
2523.8
2702.74
2812.57
2862.64
2877.59
2878.68
2871.34
2844.57
2780.42
2666.8
2506.51
2318.31
2130.35
1969.99
1854.98
1789.52
1765.86
1769.62
1785.84
1803.28
1816.07
1822.94
1825.33
1825.42
1824.92
1824.65
1824.68
1824.69
1824.36
1823.51
1822.19
1820.67
1819.29
1818.34
1817.9
1817.81
1817.74
1817.37
1816.5
1815.13
1813.29
1811.06
1808.58
1806.29
1804.75
1804.25
1804.46
1804.94
1805.17
1781.18
1782.6
1784.72
1780.02
1762.99
1747.78
1771.37
1871.55
2056.79
2294.78
2529.04
2709.82
2816.96
2862.07
2872.85
2872.56
2866.76
2843.1
2781.74
2669.19
2507.96
2317.52
2127.29
1965.71
1850.94
1786.85
1764.94
1770.07
1786.84
1804.01
1815.98
1821.87
1823.42
1823.01
1822.39
1822.33
1822.83
1823.46
1823.79
1823.53
1822.63
1821.27
1819.75
1818.43
1817.53
1817.11
1817
1816.92
1816.61
1815.9
1814.73
1813.08
1810.93
1808.46
1806.1
1804.44
1803.75
1803.73
1803.99
1804.13
1781.28
1784.54
1783.05
1767.91
1749.04
1765.33
1860.99
2048.63
2294.02
2535.12
2717.94
2822.06
2861.86
2868.41
2866.82
2862.57
2841.84
2782.99
2671.27
2508.94
2316.21
2123.72
1960.94
1846.44
1783.79
1763.76
1770.48
1788.11
1805.34
1816.77
1821.83
1822.51
1821.35
1820.21
1819.9
1820.43
1821.39
1822.27
1822.68
1822.44
1821.57
1820.28
1818.88
1817.68
1816.85
1816.41
1816.23
1816.11
1815.85
1815.33
1814.43
1813.03
1811.06
1808.67
1806.34
1804.6
1803.71
1803.4
1803.39
1803.25
1782.59
1785.32
1774
1752.49
1759.95
1848.99
2038.6
2292.63
2541.94
2727.19
2827.81
2861.78
2864.01
2861.48
2859.19
2841.53
2784.95
2673.57
2509.63
2314.29
2119.45
1955.56
1841.48
1780.36
1762.23
1770.53
1789.07
1806.56
1817.81
1822.45
1822.61
1820.87
1819.12
1818.22
1818.29
1819.03
1820.01
1820.85
1821.26
1821.08
1820.36
1819.28
1818.1
1817.08
1816.33
1815.87
1815.6
1815.4
1815.19
1814.84
1814.2
1813.05
1811.29
1809.05
1806.79
1805.01
1803.93
1803.34
1803.04
1802.54
1784.54
1780.49
1758.32
1755.92
1835.77
2026.45
2290.25
2549.23
2737.33
2833.97
2861.52
2859.32
2856.21
2856.47
2842.38
2788.24
2676.94
2510.82
2312.2
2114.55
1949.43
1835.9
1776.53
1760.41
1770.25
1789.6
1807.29
1818.46
1822.99
1823.08
1821.23
1819.19
1817.78
1817.19
1817.28
1817.82
1818.56
1819.23
1819.61
1819.56
1819.07
1818.29
1817.43
1816.65
1816.03
1815.55
1815.18
1814.9
1814.69
1814.46
1814.01
1813.08
1811.51
1809.44
1807.28
1805.47
1804.22
1803.35
1802.78
1801.91
1784.74
1767.1
1753.78
1821.34
2012.08
2287.12
2557.15
2748.09
2839.95
2860.52
2853.94
2850.7
2854.06
2844.05
2792.77
2681.73
2513.24
2310.83
2109.72
1942.88
1829.72
1772.18
1758.22
1769.68
1789.76
1807.52
1818.52
1823
1823.26
1821.69
1819.82
1818.3
1817.29
1816.72
1816.54
1816.7
1817.11
1817.58
1817.92
1817.99
1817.78
1817.37
1816.88
1816.39
1815.92
1815.45
1815
1814.63
1814.38
1814.19
1813.85
1813.07
1811.66
1809.74
1807.68
1805.87
1804.45
1803.31
1802.49
1801.26
1778.74
1755.35
1804.95
1994.68
2283.83
2566.89
2759.89
2845.19
2857.96
2847.31
2844.63
2851.6
2846.03
2797.95
2687.55
2516.92
2310.67
2105.78
1936.75
1823.55
1767.57
1755.69
1768.75
1789.56
1807.33
1818.08
1822.44
1822.89
1821.73
1820.31
1819.08
1818.03
1817.11
1816.36
1815.87
1815.7
1815.82
1816.1
1816.38
1816.55
1816.6
1816.56
1816.45
1816.26
1815.96
1815.52
1815.01
1814.55
1814.22
1814
1813.69
1812.98
1811.69
1809.92
1807.97
1806.15
1804.57
1803.18
1802.1
1800.54
1765.42
1786.49
1971.54
2280.48
2580.4
2774.07
2849.69
2853.16
2838.89
2837.74
2848.91
2847.95
2803.19
2693.65
2521.17
2311.33
2102.82
1931.61
1818.21
1763.49
1753.32
1767.67
1789.02
1806.73
1817.21
1821.44
1822.06
1821.31
1820.39
1819.57
1818.74
1817.8
1816.79
1815.88
1815.23
1814.9
1814.85
1814.98
1815.19
1815.43
1815.68
1815.94
1816.14
1816.19
1816.02
1815.63
1815.09
1814.55
1814.14
1813.85
1813.49
1812.81
1811.61
1809.97
1808.15
1806.33
1804.59
1802.94
1801.62
1799.71
1766.65
1937.32
2276.07
2600.26
2792.4
2853.66
2845.87
2828.53
2830.02
2845.93
2849.67
2808.24
2699.6
2525.34
2312
2100.09
1927.1
1813.86
1760.53
1751.86
1767.06
1788.47
1805.8
1815.92
1820.08
1820.93
1820.62
1820.17
1819.74
1819.17
1818.32
1817.25
1816.17
1815.26
1814.66
1814.35
1814.27
1814.33
1814.5
1814.77
1815.14
1815.55
1815.91
1816.09
1815.99
1815.63
1815.09
1814.53
1814.06
1813.69
1813.26
1812.55
1811.42
1809.93
1808.23
1806.42
1804.55
1802.65
1801.06
1798.78
1863.61
2267.99
2631.26
2816.46
2856.26
2835.77
2816.82
2821.97
2842.69
2850.99
2812.99
2705.42
2529.3
2312.24
2096.84
1922.33
1809.84
1758.48
1751.57
1767.44
1788.46
1804.93
1814.38
1818.38
1819.56
1819.8
1819.88
1819.84
1819.46
1818.65
1817.53
1816.33
1815.3
1814.57
1814.17
1814.03
1814.06
1814.17
1814.35
1814.64
1815.02
1815.43
1815.76
1815.89
1815.76
1815.4
1814.9
1814.37
1813.9
1813.48
1812.98
1812.23
1811.15
1809.79
1808.24
1806.47
1804.48
1802.35
1800.52
1797.85
2211.67
2685.84
2846.52
2853.04
2821.5
2805.1
2814.98
2839.48
2851.57
2817.2
2711.21
2533.35
2312.18
2092.86
1916.76
1805.39
1756.61
1751.98
1768.73
1789.22
1804.49
1812.88
1816.47
1817.91
1818.81
1819.59
1820.06
1819.93
1819.15
1817.9
1816.49
1815.24
1814.35
1813.88
1813.77
1813.9
1814.13
1814.4
1814.69
1815
1815.31
1815.57
1815.68
1815.59
1815.31
1814.89
1814.43
1813.98
1813.58
1813.18
1812.64
1811.86
1810.81
1809.58
1808.18
1806.48
1804.42
1802.09
1800.04
1796.98
2856.07
2864.23
2827.44
2800.73
2795.99
2811.05
2836.71
2851
2820.47
2716.91
2537.7
2312.14
2088.39
1910.45
1800.35
1754.49
1752.5
1770.4
1790.46
1804.46
1811.6
1814.54
1816.02
1817.48
1819.05
1820.24
1820.62
1820.05
1818.75
1817.09
1815.49
1814.24
1813.5
1813.28
1813.45
1813.87
1814.39
1814.89
1815.34
1815.7
1815.9
1815.9
1815.67
1815.23
1814.68
1814.13
1813.67
1813.33
1813.06
1812.74
1812.22
1811.43
1810.42
1809.32
1808.07
1806.48
1804.39
1801.91
1799.68
1796.25
2791.41
2788.47
2790.2
2797.27
2811.38
2833.79
2848.9
2822.73
2722.51
2542.27
2312.05
2083.49
1903.62
1794.97
1752.29
1753.05
1772.08
1791.72
1804.51
1810.48
1812.71
1814.05
1815.83
1818.01
1819.97
1821.08
1821.08
1820.08
1818.41
1816.53
1814.81
1813.57
1812.92
1812.85
1813.24
1813.9
1814.69
1815.46
1816.11
1816.54
1816.65
1816.37
1815.75
1814.89
1813.97
1813.19
1812.67
1812.4
1812.29
1812.12
1811.68
1810.94
1809.99
1809.01
1807.92
1806.46
1804.4
1801.83
1799.48
1795.71
2799.29
2803.52
2803.59
2809.74
2827.89
2845.17
2824.82
2728.57
2547.04
2311.51
2077.77
1896.14
1789.45
1750.35
1753.93
1773.88
1792.85
1804.38
1809.28
1810.95
1812.16
1814.06
1816.56
1819.01
1820.8
1821.58
1821.29
1820.08
1818.31
1816.35
1814.6
1813.34
1812.7
1812.68
1813.16
1813.98
1814.98
1815.99
1816.84
1817.36
1817.39
1816.89
1815.9
1814.62
1813.31
1812.22
1811.53
1811.26
1811.26
1811.26
1810.98
1810.35
1809.52
1808.68
1807.76
1806.44
1804.46
1801.85
1799.42
1795.34
2799.75
2800.44
2803.11
2820.1
2841.18
2827.9
2735.99
2552.34
2310.21
2070.58
1887.47
1783.58
1748.79
1755.4
1776.06
1794.02
1804.05
1807.89
1809.16
1810.4
1812.45
1815.06
1817.67
1819.8
1821.17
1821.67
1821.27
1820.09
1818.39
1816.51
1814.79
1813.52
1812.85
1812.8
1813.28
1814.16
1815.29
1816.46
1817.45
1818.04
1818.03
1817.34
1816.08
1814.44
1812.75
1811.32
1810.37
1809.99
1810.03
1810.16
1810.08
1809.64
1809
1808.32
1807.58
1806.42
1804.54
1801.94
1799.45
1795.08
2799.57
2800.79
2813.42
2836.75
2831.25
2744.93
2558.85
2308.47
2061.62
1877.02
1776.88
1747.35
1757.4
1778.65
1795.3
1803.63
1806.36
1807.3
1808.7
1811.02
1813.79
1816.42
1818.58
1820.17
1821.15
1821.46
1821.07
1820.02
1818.49
1816.76
1815.15
1813.93
1813.26
1813.18
1813.64
1814.54
1815.71
1816.95
1817.99
1818.58
1818.5
1817.69
1816.21
1814.31
1812.31
1810.54
1809.29
1808.69
1808.65
1808.85
1808.94
1808.76
1808.38
1807.92
1807.36
1806.36
1804.61
1802.04
1799.52
1794.88
2798.6
2806.13
2829.4
2833.44
2755.47
2567.56
2307.17
2051.18
1864.61
1768.98
1745.67
1759.59
1781.37
1796.52
1803.06
1804.71
1805.39
1807.01
1809.66
1812.68
1815.43
1817.62
1819.22
1820.33
1820.97
1821.11
1820.69
1819.73
1818.37
1816.83
1815.41
1814.33
1813.75
1813.73
1814.23
1815.17
1816.36
1817.59
1818.58
1819.06
1818.85
1817.89
1816.25
1814.15
1811.91
1809.86
1808.31
1807.45
1807.23
1807.39
1807.62
1807.7
1807.62
1807.45
1807.09
1806.26
1804.66
1802.16
1799.65
1794.79
2799.27
2819.89
2834.22
2768.19
2579.34
2306.94
2039.69
1850.64
1760.21
1743.81
1761.76
1783.87
1797.33
1802.12
1802.86
1803.41
1805.28
1808.24
1811.53
1814.49
1816.85
1818.58
1819.76
1820.47
1820.77
1820.64
1820.08
1819.13
1817.89
1816.55
1815.35
1814.49
1814.11
1814.27
1814.94
1815.99
1817.24
1818.43
1819.29
1819.59
1819.17
1818
1816.18
1813.91
1811.47
1809.21
1807.42
1806.31
1805.88
1805.93
1806.21
1806.52
1806.79
1806.96
1806.85
1806.21
1804.8
1802.43
1799.98
1795
2806.19
2832.13
2783.48
2595.25
2307.94
2027.02
1835.64
1751.64
1742.7
1764.27
1786.05
1797.54
1800.68
1800.76
1801.38
1803.54
1806.76
1810.22
1813.39
1816.01
1818.02
1819.42
1820.26
1820.58
1820.47
1819.99
1819.2
1818.16
1817
1815.84
1814.89
1814.3
1814.21
1814.66
1815.59
1816.85
1818.21
1819.38
1820.12
1820.2
1819.54
1818.13
1816.09
1813.63
1811.03
1808.6
1806.66
1805.38
1804.78
1804.71
1804.99
1805.49
1806.08
1806.6
1806.79
1806.38
1805.19
1803.01
1800.69
1795.67
2820.42
2801.7
2617.66
2310.27
2011.93
1819.36
1744.39
1743.79
1768.03
1788.25
1797.23
1798.87
1798.65
1799.56
1802.04
1805.42
1808.95
1812.22
1815.05
1817.36
1819.09
1820.18
1820.64
1820.52
1819.95
1819.05
1817.97
1816.82
1815.69
1814.71
1814.01
1813.74
1813.98
1814.77
1816.01
1817.53
1819.05
1820.28
1820.95
1820.9
1820.05
1818.45
1816.22
1813.58
1810.82
1808.27
1806.23
1804.85
1804.15
1804.01
1804.28
1804.9
1805.75
1806.59
1807.07
1806.9
1805.93
1803.96
1801.79
1796.79
2819.86
2651.62
2314.09
1991.48
1800.23
1738.97
1748.25
1773.9
1790.84
1796.57
1796.9
1796.86
1798.35
1801.18
1804.62
1808.12
1811.4
1814.34
1816.85
1818.84
1820.2
1820.87
1820.85
1820.22
1819.15
1817.81
1816.42
1815.11
1814
1813.19
1812.76
1812.82
1813.44
1814.59
1816.18
1817.98
1819.69
1821.03
1821.74
1821.68
1820.8
1819.15
1816.85
1814.12
1811.26
1808.61
1806.47
1805.02
1804.24
1804.03
1804.28
1804.95
1805.93
1806.97
1807.66
1807.66
1806.85
1805.04
1803.01
1798
2722.95
2321.36
1959.58
1775.67
1735.8
1756.58
1781.72
1793.53
1795.44
1794.76
1795.36
1797.74
1801.04
1804.57
1808.01
1811.28
1814.3
1816.94
1819.09
1820.62
1821.47
1821.6
1821.02
1819.84
1818.24
1816.45
1814.71
1813.22
1812.1
1811.46
1811.33
1811.77
1812.8
1814.35
1816.29
1818.37
1820.29
1821.78
1822.62
1822.67
1821.91
1820.36
1818.14
1815.45
1812.57
1809.85
1807.6
1806
1805.07
1804.72
1804.86
1805.48
1806.46
1807.53
1808.26
1808.31
1807.56
1805.82
1803.88
1798.83
2374.1
1903.2
1744.05
1738.1
1769.4
1789.95
1794.95
1793.34
1792.25
1793.78
1797.11
1800.99
1804.76
1808.31
1811.68
1814.84
1817.65
1819.95
1821.63
1822.62
1822.9
1822.45
1821.33
1819.64
1817.56
1815.35
1813.29
1811.62
1810.5
1810.03
1810.24
1811.11
1812.59
1814.57
1816.85
1819.17
1821.26
1822.85
1823.79
1823.98
1823.36
1821.98
1819.91
1817.32
1814.49
1811.74
1809.36
1807.55
1806.35
1805.72
1805.64
1806.08
1806.93
1807.88
1808.51
1808.48
1807.69
1805.95
1804.05
1798.97
1728.21
1723.64
1761.44
1788.12
1795.42
1792.95
1789.81
1789.54
1791.96
1795.79
1800.03
1804.17
1808.09
1811.79
1815.24
1818.32
1820.89
1822.82
1824.04
1824.54
1824.33
1823.42
1821.88
1819.81
1817.41
1814.92
1812.66
1810.89
1809.83
1809.59
1810.17
1811.52
1813.49
1815.88
1818.44
1820.9
1823
1824.56
1825.44
1825.59
1824.97
1823.61
1821.59
1819.05
1816.24
1813.47
1810.99
1808.99
1807.52
1806.6
1806.24
1806.45
1807.1
1807.86
1808.31
1808.13
1807.23
1805.44
1803.53
1798.47
1790.99
1797.33
1795.68
1790.08
1786.23
1785.64
1787.37
1790.25
1793.75
1797.76
1802.11
1806.55
1810.81
1814.71
1818.18
1821.13
1823.46
1825.1
1826.01
1826.17
1825.64
1824.44
1822.66
1820.4
1817.85
1815.27
1812.95
1811.21
1810.3
1810.34
1811.35
1813.19
1815.64
1818.4
1821.16
1823.64
1825.61
1826.93
1827.55
1827.42
1826.55
1824.97
1822.76
1820.08
1817.18
1814.35
1811.82
1809.74
1808.15
1807.09
1806.59
1806.66
1807.16
1807.74
1808
1807.62
1806.54
1804.6
1802.59
1797.52
1780.91
1779.21
1779.4
1781.03
1783.63
1786.26
1788.74
1791.42
1794.8
1799.01
1803.75
1808.56
1813.05
1817.03
1820.46
1823.31
1825.5
1826.97
1827.67
1827.63
1826.88
1825.5
1823.57
1821.22
1818.61
1816
1813.69
1812.01
1811.25
1811.57
1812.99
1815.3
1818.21
1821.33
1824.27
1826.73
1828.54
1829.6
1829.88
1829.39
1828.15
1826.21
1823.67
1820.71
1817.6
1814.63
1812.02
1809.91
1808.34
1807.31
1806.87
1806.99
1807.47
1807.94
1808
1807.35
1805.97
1803.71
1801.39
1796.12
1777.36
1778.37
1780.32
1782.29
1784.41
1786.64
1789.17
1792.26
1796.11
1800.72
1805.77
1810.8
1815.43
1819.47
1822.86
1825.59
1827.61
1828.86
1829.32
1829.01
1827.99
1826.35
1824.2
1821.68
1818.94
1816.23
1813.86
1812.19
1811.52
1812.07
1813.83
1816.58
1819.93
1823.41
1826.59
1829.15
1830.93
1831.88
1831.99
1831.3
1829.85
1827.68
1824.9
1821.73
1818.42
1815.27
1812.53
1810.33
1808.71
1807.72
1807.38
1807.6
1808.14
1808.55
1808.4
1807.43
1805.6
1802.8
1799.86
1794.07
1772.99
1775.06
1777.83
1780.67
1783.75
1786.94
1790.26
1793.9
1798.14
1803.05
1808.38
1813.66
1818.47
1822.55
1825.86
1828.38
1830.1
1831
1831.06
1830.31
1828.86
1826.81
1824.3
1821.45
1818.46
1815.54
1813.02
1811.26
1810.62
1811.33
1813.38
1816.53
1820.31
1824.2
1827.7
1830.49
1832.4
1833.41
1833.56
1832.89
1831.44
1829.27
1826.48
1823.26
1819.91
1816.69
1813.87
1811.57
1809.88
1808.87
1808.56
1808.85
1809.39
1809.71
1809.33
1807.97
1805.57
1802.04
1798.13
1791.33
1767.48
1771.54
1775.98
1780.15
1784.31
1788.37
1792.39
1796.58
1801.24
1806.48
1812.08
1817.54
1822.38
1826.28
1829.17
1831.11
1832.14
1832.3
1831.62
1830.17
1828.05
1825.41
1822.4
1819.17
1815.89
1812.83
1810.28
1808.64
1808.24
1809.31
1811.82
1815.48
1819.78
1824.15
1828.06
1831.14
1833.24
1834.32
1834.47
1833.74
1832.2
1829.93
1827.07
1823.8
1820.41
1817.18
1814.32
1812.01
1810.37
1809.51
1809.46
1810.06
1810.87
1811.29
1810.8
1809.05
1805.96
1801.45
1796.08
1787.66
)
;

boundaryField
{
    bottomwall
    {
        type            calculated;
        value           nonuniform List<scalar> 
60
(
1783.41
1797.36
1805.42
1810.52
1813.93
1816.29
1818.01
1819.35
1820.47
1821.5
1822.55
1823.64
1824.73
1825.75
1826.65
1827.47
1828.25
1829.05
1829.91
1830.84
1831.8
1832.75
1833.58
1834.19
1834.54
1834.74
1835.13
1836.15
1838.03
1840.33
1841.65
1839.8
1832.75
1820.18
1805.14
1794.86
1800.12
1832.9
1902.88
2014.07
2162.88
2338.29
2524.25
2703.2
2859.58
2981.9
3063.28
3100.57
3093.07
3041.68
2948.93
2819.7
2662.04
2487.33
2309.37
2142.36
1998.17
1884.69
1802.58
1741.49
)
;
    }
    topwall
    {
        type            calculated;
        value           nonuniform List<scalar> 
60
(
1766.69