/*--------------------------------*- C++ -*----------------------------------*\
| =========                 |                                                 |
| \\      /  F ield         | OpenFOAM: The Open Source CFD Toolbox           |
|  \\    /   O peration     | Version:  2406                                  |
|   \\  /    A nd           | Website:  www.openfoam.com                      |
|    \\/     M anipulation  |                                                 |
\*---------------------------------------------------------------------------*/
FoamFile
{
    version     2.0;
    format      ascii;
    arch        "LSB;label=32;scalar=64";
    class       volScalarField;
    location    "10000";
    object      ILambda_13_0;
}
// * * * * * * * * * * * * * * * * * * * * * * * * * * * * * * * * * * * * * //

dimensions      [1 0 -3 0 0 0 0];

internalField   nonuniform List<scalar> 
3600
(
139.27
139.283
139.291
139.3
139.308
139.316
139.324
139.331
139.338
139.344
139.351
139.357
139.363
139.37
139.377
139.385
139.394
139.405
139.416
139.429
139.444
139.459
139.475
139.491
139.507
139.522
139.535
139.547
139.556
139.564
139.569
139.572
139.575
139.578
139.582
139.59
139.603
139.621
139.646
139.677
139.713
139.751
139.79
139.824
139.849
139.861
139.856
139.832
139.786
139.718
139.629
139.523
139.4
139.265
139.119
138.966
138.811
138.664
138.54
138.457
139.246
139.257
139.264
139.273
139.281
139.29
139.299
139.308
139.316
139.323
139.33
139.337
139.343
139.349
139.354
139.36
139.366
139.373
139.38
139.389
139.4
139.412
139.426
139.441
139.457
139.474
139.491
139.508
139.524
139.539
139.55
139.559
139.564
139.567
139.567
139.566
139.565
139.567
139.572
139.585
139.605
139.634
139.672
139.717
139.766
139.816
139.86
139.894
139.913
139.911
139.886
139.838
139.767
139.676
139.565
139.438
139.293
139.126
138.936
138.721
139.237
139.246
139.252
139.259
139.267
139.275
139.284
139.293
139.301
139.31
139.318
139.326
139.333
139.34
139.346
139.352
139.357
139.363
139.37
139.377
139.385
139.394
139.404
139.416
139.43
139.445
139.461
139.477
139.494
139.511
139.527
139.541
139.553
139.562
139.569
139.572
139.574
139.574
139.574
139.575
139.581
139.592
139.611
139.637
139.672
139.713
139.759
139.804
139.844
139.873
139.886
139.879
139.849
139.796
139.721
139.629
139.525
139.411
139.29
139.161
139.226
139.234
139.239
139.245
139.252
139.259
139.267
139.275
139.284
139.293
139.301
139.31
139.318
139.325
139.333
139.339
139.345
139.351
139.357
139.362
139.369
139.376
139.384
139.393
139.404
139.416
139.43
139.445
139.461
139.478
139.495
139.511
139.527
139.541
139.553
139.562
139.568
139.571
139.572
139.571
139.571
139.573
139.579
139.591
139.611
139.639
139.676
139.72
139.767
139.815
139.857
139.888
139.901
139.893
139.859
139.8
139.718
139.616
139.502
139.379
139.218
139.225
139.229
139.234
139.239
139.245
139.252
139.259
139.267
139.275
139.284
139.293
139.302
139.31
139.318
139.326
139.333
139.34
139.346
139.351
139.357
139.363
139.369
139.376
139.384
139.393
139.404
139.416
139.43
139.445
139.461
139.478
139.496
139.512
139.528
139.542
139.554
139.563
139.569
139.572
139.572
139.571
139.571
139.572
139.578
139.589
139.609
139.637
139.674
139.718
139.767
139.816
139.859
139.891
139.906
139.898
139.864
139.804
139.72
139.617
139.21
139.217
139.22
139.225
139.229
139.234
139.239
139.245
139.252
139.259
139.267
139.276
139.285
139.293
139.302
139.311
139.319
139.326
139.333
139.34
139.346
139.351
139.357
139.363
139.369
139.376
139.384
139.394
139.404
139.417
139.43
139.446
139.462
139.479
139.496
139.513
139.529
139.543
139.555
139.564
139.57
139.572
139.573
139.572
139.571
139.572
139.577
139.588
139.608
139.637
139.674
139.719
139.769
139.819
139.863
139.895
139.91
139.901
139.866
139.804
139.201
139.209
139.212
139.216
139.22
139.225
139.229
139.234
139.239
139.245
139.252
139.26
139.268
139.276
139.285
139.294
139.303
139.311
139.319
139.327
139.334
139.34
139.346
139.352
139.357
139.363
139.369
139.376
139.384
139.394
139.405
139.417
139.431
139.446
139.463
139.48
139.497
139.514
139.53
139.544
139.556
139.565
139.57
139.573
139.573
139.571
139.57
139.571
139.576
139.587
139.607
139.636
139.674
139.72
139.771
139.822
139.868
139.901
139.916
139.909
139.19
139.199
139.203
139.208
139.212
139.216
139.22
139.225
139.229
139.234
139.239
139.246
139.252
139.26
139.268
139.276
139.285
139.294
139.303
139.312
139.32
139.327
139.334
139.34
139.346
139.352
139.357
139.363
139.369
139.376
139.385
139.394
139.405
139.417
139.431
139.447
139.463
139.48
139.498
139.515
139.531
139.545
139.557
139.566
139.571
139.574
139.573
139.571
139.57
139.57
139.574
139.586
139.605
139.635
139.674
139.721
139.773
139.825
139.872
139.908
139.179
139.189
139.193
139.199
139.204
139.208
139.213
139.217
139.221
139.225
139.229
139.234
139.239
139.246
139.253
139.26
139.268
139.277
139.286
139.295
139.304
139.312
139.32
139.328
139.334
139.341
139.347
139.352
139.358
139.363
139.369
139.377
139.385
139.394
139.405
139.418
139.432
139.447
139.464
139.481
139.499
139.516
139.532
139.546
139.558
139.567
139.572
139.574
139.574
139.571
139.569
139.569
139.573
139.584
139.604
139.634
139.673
139.722
139.775
139.83
139.166
139.177
139.182
139.188
139.194
139.199
139.204
139.208
139.213
139.217
139.221
139.225
139.229
139.234
139.24
139.246
139.253
139.26
139.269
139.277
139.286
139.295
139.304
139.313
139.321
139.328
139.335
139.341
139.347
139.352
139.358
139.363
139.37
139.377
139.385
139.394
139.405
139.418
139.432
139.448
139.464
139.482
139.499
139.517
139.533
139.547
139.559
139.568
139.573
139.575
139.574
139.571
139.569
139.568
139.572
139.583
139.603
139.633
139.673
139.723
139.153
139.164
139.17
139.176
139.183
139.189
139.194
139.199
139.204
139.209
139.213
139.217
139.221
139.225
139.229
139.234
139.24
139.246
139.253
139.261
139.269
139.278
139.287
139.296
139.305
139.313
139.321
139.328
139.335
139.341
139.347
139.352
139.358
139.363
139.37
139.377
139.385
139.395
139.406
139.418
139.433
139.448
139.465
139.482
139.5
139.518
139.534
139.548
139.56
139.569
139.574
139.575
139.574
139.571
139.568
139.567
139.571
139.581
139.601
139.631
139.141
139.151
139.157
139.164
139.17
139.177
139.183
139.189
139.194
139.2
139.204
139.209
139.213
139.217
139.221
139.225
139.229
139.234
139.24
139.246
139.253
139.261
139.269
139.278
139.287
139.296
139.305
139.314
139.321
139.329
139.335
139.342
139.347
139.353
139.358
139.364
139.37
139.377
139.385
139.395
139.406
139.419
139.433
139.449
139.466
139.483
139.501
139.518
139.535
139.549
139.561
139.57
139.575
139.576
139.575
139.571
139.568
139.566
139.569
139.578
139.128
139.138
139.144
139.151
139.157
139.164
139.17
139.177
139.183
139.189
139.195
139.2
139.205
139.209
139.213
139.217
139.221
139.225
139.229
139.234
139.24
139.246
139.253
139.261
139.269
139.278
139.287
139.297
139.305
139.314
139.322
139.329
139.336
139.342
139.347
139.353
139.358
139.364
139.37
139.377
139.385
139.395
139.406
139.419
139.433
139.449
139.466
139.484
139.502
139.519
139.536
139.55
139.562
139.571
139.576
139.577
139.575
139.571
139.567
139.564
139.116
139.126
139.131
139.138
139.144
139.151
139.157
139.164
139.171
139.177
139.183
139.189
139.195
139.2
139.205
139.209
139.213
139.217
139.221
139.225
139.229
139.234
139.24
139.246
139.253
139.261
139.27
139.279
139.288
139.297
139.306
139.314
139.322
139.33
139.336
139.342
139.348
139.353
139.358
139.364
139.37
139.377
139.385
139.395
139.406
139.419
139.434
139.45
139.467
139.485
139.503
139.52
139.537
139.551
139.563
139.572
139.576
139.578
139.575
139.571
139.107
139.114
139.119
139.126
139.132
139.138
139.145
139.151
139.158
139.164
139.171
139.177
139.184
139.19
139.195
139.2
139.205
139.209
139.213
139.217
139.221
139.225
139.229
139.234
139.24
139.246
139.254
139.262
139.27
139.279
139.288
139.297
139.306
139.315
139.323
139.33
139.336
139.342
139.348
139.353
139.358
139.364
139.37
139.377
139.386
139.395
139.407
139.42
139.434
139.45
139.467
139.485
139.503
139.521
139.538
139.552
139.564
139.573
139.577
139.578
139.102
139.104
139.109
139.114
139.12
139.126
139.132
139.138
139.145
139.151
139.158
139.165
139.171
139.178
139.184
139.19
139.196
139.201
139.205
139.21
139.214
139.217
139.221
139.225
139.23
139.234
139.24
139.247
139.254
139.262
139.27
139.279
139.289
139.298
139.307
139.315
139.323
139.33
139.337
139.343
139.348
139.353
139.358
139.364
139.37
139.377
139.386
139.396
139.407
139.42
139.435
139.451
139.468
139.486
139.504
139.522
139.538
139.553
139.565
139.574
139.105
139.1
139.102
139.105
139.11
139.115
139.12
139.126
139.133
139.139
139.145
139.152
139.158
139.165
139.171
139.178
139.184
139.19
139.196
139.201
139.206
139.21
139.214
139.217
139.221
139.225
139.23
139.235
139.24
139.247
139.254
139.262
139.271
139.28
139.289
139.298
139.307
139.316
139.324
139.331
139.337
139.343
139.348
139.353
139.358
139.364
139.37
139.377
139.386
139.396
139.407
139.42
139.435
139.451
139.469
139.487
139.505
139.523
139.539
139.554
139.121
139.104
139.102
139.101
139.102
139.105
139.11
139.115
139.121
139.127
139.133
139.139
139.145
139.152
139.158
139.165
139.172
139.178
139.185
139.191
139.196
139.201
139.206
139.21
139.214
139.218
139.221
139.225
139.23
139.235
139.24
139.247
139.254
139.262
139.271
139.28
139.29
139.299
139.308
139.316
139.324
139.331
139.337
139.343
139.348
139.353
139.358
139.364
139.37
139.377
139.386
139.396
139.408
139.421
139.436
139.452
139.469
139.487
139.506
139.524
139.147
139.122
139.113
139.105
139.101
139.101
139.103
139.106
139.111
139.116
139.121
139.127
139.133
139.139
139.146
139.152
139.159
139.165
139.172
139.179
139.185
139.191
139.196
139.201
139.206
139.21
139.214
139.218
139.221
139.225
139.23
139.235
139.24
139.247
139.254
139.263
139.271
139.281
139.29
139.299
139.308
139.317
139.325
139.332
139.338
139.343
139.349
139.353
139.359
139.364
139.37
139.378
139.386
139.396
139.408
139.421
139.436
139.452
139.47
139.488
139.177
139.153
139.136
139.122
139.111
139.104
139.101
139.101
139.103
139.107
139.111
139.116
139.122
139.128
139.133
139.14
139.146
139.152
139.159
139.166
139.172
139.179
139.185
139.191
139.197
139.202
139.206
139.21
139.214
139.218
139.221
139.225
139.23
139.235
139.24
139.247
139.255
139.263
139.272
139.281
139.291
139.3
139.309
139.317
139.325
139.332
139.338
139.344
139.349
139.354
139.359
139.364
139.37
139.378
139.386
139.396
139.408
139.421
139.436
139.453
139.193
139.186
139.167
139.151
139.134
139.12
139.11
139.104
139.101
139.101
139.103
139.107
139.112
139.117
139.122
139.128
139.134
139.14
139.146
139.153
139.159
139.166
139.173
139.179
139.186
139.191
139.197
139.202
139.207
139.211
139.214
139.218
139.221
139.225
139.23
139.235
139.241
139.247
139.255
139.263
139.272
139.282
139.291
139.3
139.309
139.318
139.325
139.332
139.338
139.344
139.349
139.354
139.359
139.364
139.37
139.378
139.386
139.397
139.408
139.422
139.172
139.202
139.192
139.182
139.165
139.148
139.131
139.118
139.109
139.103
139.101
139.101
139.104
139.108
139.112
139.117
139.123
139.128
139.134
139.14
139.146
139.153
139.159
139.166
139.173
139.179
139.186
139.192
139.197
139.202
139.207
139.211
139.214
139.218
139.221
139.225
139.23
139.235
139.241
139.247
139.255
139.264
139.273
139.282
139.292
139.301
139.31
139.318
139.326
139.333
139.339
139.344
139.349
139.354
139.359
139.364
139.37
139.378
139.387
139.397
139.096
139.175
139.188
139.198
139.192
139.179
139.162
139.145
139.129
139.116
139.108
139.103
139.101
139.102
139.104
139.108
139.113
139.118
139.123
139.128
139.134
139.14
139.146
139.153
139.16
139.166
139.173
139.18
139.186
139.192
139.198
139.203
139.207
139.211
139.215
139.218
139.222
139.225
139.23
139.235
139.241
139.248
139.255
139.264
139.273
139.282
139.292
139.301
139.31
139.319
139.326
139.333
139.339
139.344
139.349
139.354
139.359
139.364
139.371
139.378
138.971
139.088
139.133
139.173
139.193
139.198
139.191
139.177
139.159
139.142
139.126
139.115
139.107
139.102
139.101
139.102
139.105
139.109
139.113
139.118
139.123
139.129
139.134
139.14
139.147
139.153
139.16
139.167
139.173
139.18
139.186
139.192
139.198
139.203
139.207
139.211
139.215
139.218
139.222
139.225
139.23
139.235
139.241
139.248
139.256
139.264
139.273
139.283
139.293
139.302
139.311
139.319
139.327
139.333
139.339
139.344
139.349
139.354
139.359
139.364
138.836
138.946
139.021
139.089
139.143
139.177
139.195
139.197
139.189
139.174
139.156
139.139
139.124
139.113
139.106
139.102
139.101
139.102
139.105
139.109
139.114
139.118
139.124
139.129
139.135
139.141
139.147
139.153
139.16
139.167
139.174
139.18
139.187
139.193
139.198
139.203
139.207
139.211
139.215
139.218
139.222
139.225
139.23
139.235
139.241
139.248
139.256
139.264
139.274
139.283
139.293
139.303
139.311
139.32
139.327
139.334
139.339
139.345
139.349
139.354
138.772
138.799
138.878
138.954
139.033
139.099
139.15
139.182
139.197
139.197
139.187
139.171
139.153
139.136
139.122
139.112
139.105
139.102
139.101
139.103
139.106
139.11
139.114
139.119
139.124
139.129
139.135
139.141
139.147
139.154
139.16
139.167
139.174
139.181
139.187
139.193
139.199
139.203
139.208
139.211
139.215
139.218
139.222
139.225
139.23
139.235
139.241
139.248
139.256
139.265
139.274
139.284
139.294
139.303
139.312
139.32
139.328
139.334
139.34
139.345
138.882
138.737
138.776
138.814
138.888
138.967
139.044
139.109
139.157
139.186
139.198
139.196
139.185
139.168
139.15
139.134
139.12
139.11
139.104
139.102
139.101
139.103
139.106
139.11
139.114
139.119
139.124
139.129
139.135
139.141
139.147
139.154
139.161
139.168
139.174
139.181
139.188
139.193
139.199
139.204
139.208
139.212
139.215
139.218
139.222
139.225
139.23
139.235
139.241
139.248
139.256
139.265
139.275
139.284
139.294
139.304
139.313
139.321
139.328
139.334
139.255
138.873
138.815
138.759
138.775
138.826
138.9
138.981
139.056
139.119
139.163
139.189
139.199
139.195
139.182
139.165
139.147
139.131
139.118
139.109
139.104
139.102
139.102
139.104
139.107
139.11
139.115
139.119
139.124
139.13
139.135
139.141
139.148
139.154
139.161
139.168
139.175
139.181
139.188
139.194
139.199
139.204
139.208
139.212
139.215
139.218
139.222
139.225
139.23
139.235
139.241
139.248
139.257
139.265
139.275
139.285
139.295
139.304
139.313
139.321
139.929
139.297
139.101
138.899
138.8
138.763
138.782
138.837
138.913
138.994
139.068
139.128
139.17
139.193
139.199
139.193
139.179
139.162
139.144
139.129
139.117
139.108
139.104
139.102
139.102
139.104
139.107
139.111
139.115
139.12
139.125
139.13
139.136
139.141
139.148
139.154
139.161
139.168
139.175
139.182
139.188
139.194
139.199
139.204
139.208
139.212
139.215
139.218
139.222
139.225
139.23
139.235
139.241
139.249
139.257
139.266
139.275
139.285
139.295
139.305
140.865
140.038
139.693
139.326
139.068
138.891
138.794
138.766
138.789
138.849
138.926
139.007
139.08
139.137
139.175
139.195
139.199
139.191
139.177
139.159
139.141
139.127
139.115
139.108
139.103
139.102
139.102
139.104
139.107
139.111
139.115
139.12
139.125
139.13
139.136
139.142
139.148
139.155
139.161
139.168
139.175
139.182
139.189
139.194
139.2
139.204
139.208
139.212
139.215
139.218
139.222
139.225
139.23
139.235
139.241
139.249
139.257
139.266
139.276
139.286
141.951
141.037
140.577
140.068
139.649
139.305
139.049
138.88
138.79
138.769
138.798
138.861
138.94
139.02
139.091
139.146
139.181
139.197
139.199
139.189
139.173
139.156
139.139
139.125
139.114
139.107
139.103
139.102
139.103
139.105
139.108
139.111
139.116
139.12
139.125
139.13
139.136
139.142
139.148
139.155
139.162
139.169
139.176
139.183
139.189
139.195
139.2
139.205
139.209
139.212
139.215
139.218
139.222
139.225
139.23
139.235
139.241
139.249
139.257
139.267
143.036
142.162
141.653
141.068
140.53
140.039
139.619
139.28
139.031
138.869
138.787
138.773
138.807
138.874
138.954
139.034
139.103
139.154
139.185
139.199
139.198
139.187
139.17
139.153
139.136
139.123
139.113
139.106
139.103
139.102
139.103
139.105
139.108
139.112
139.116
139.121
139.125
139.131
139.136
139.142
139.148
139.155
139.162
139.169
139.176
139.183
139.189
139.195
139.2
139.205
139.209
139.212
139.215
139.218
139.222
139.225
139.23
139.235
139.242
139.249
143.986
143.251
142.77
142.192
141.613
141.039
140.496
140.006
139.589
139.256
139.013
138.859
138.785
138.777
138.817
138.887
138.968
139.047
139.114
139.161
139.19
139.2
139.197
139.184
139.167
139.149
139.134
139.121
139.112
139.106
139.103
139.102
139.103
139.105
139.108
139.112
139.116
139.121
139.126
139.131
139.136
139.142
139.149
139.155
139.162
139.169
139.176
139.183
139.19
139.196
139.201
139.205
139.209
139.212
139.215
139.218
139.222
139.225
139.23
139.235
144.727
144.173
143.777
143.279
142.742
142.17
141.583
141.006
140.462
139.973
139.558
139.231
138.996
138.85
138.784
138.783
138.828
138.901
138.983
139.061
139.124
139.169
139.193
139.201
139.195
139.181
139.164
139.146
139.131
139.119
139.111
139.106
139.103
139.103
139.104
139.106
139.109
139.112
139.117
139.121
139.126
139.131
139.137
139.142
139.149
139.155
139.162
139.17
139.177
139.184
139.19
139.196
139.201
139.205
139.209
139.212
139.215
139.218
139.221
139.225
145.254
144.866
144.577
144.196
143.761
143.266
142.722
142.145
141.554
140.973
140.427
139.939
139.528
139.206
138.979
138.841
138.784
138.79
138.84
138.915
138.998
139.074
139.135
139.175
139.196
139.201
139.193
139.178
139.161
139.144
139.129
139.118
139.11
139.105
139.103
139.103
139.104
139.106
139.109
139.113
139.117
139.121
139.126
139.131
139.137
139.143
139.149
139.156
139.163
139.17
139.177
139.184
139.19
139.196
139.201
139.206
139.209
139.213
139.215
139.218
145.619
145.346
145.15
144.884
144.568
144.191
143.751
143.252
142.703
142.119
141.523
140.939
140.391
139.905
139.497
139.182
138.962
138.833
138.784
138.797
138.853
138.931
139.013
139.087
139.144
139.181
139.199
139.2
139.19
139.175
139.157
139.141
139.127
139.117
139.11
139.105
139.103
139.103
139.104
139.106
139.109
139.113
139.117
139.122
139.126
139.131
139.137
139.143
139.149
139.156
139.163
139.17
139.177
139.184
139.191
139.197
139.202
139.206
139.21
139.213
145.886
145.678
145.54
145.357
145.143
144.881
144.564
144.185
143.742
143.238
142.683
142.094
141.492
140.904
140.355
139.87
139.467
139.158
138.946
138.827
138.786
138.806
138.866
138.946
139.029
139.1
139.154
139.187
139.2
139.199
139.188
139.172
139.154
139.138
139.126
139.116
139.109
139.105
139.103
139.103
139.104
139.107
139.11
139.114
139.118
139.122
139.127
139.132
139.137
139.143
139.149
139.156
139.163
139.171
139.178
139.185
139.191
139.197
139.202
139.206
146.099
145.929
145.82
145.683
145.532
145.354
145.14
144.879
144.561
144.18
143.733
143.223
142.662
142.067
141.46
140.868
140.318
139.834
139.436
139.134
138.931
138.821
138.789
138.816
138.881
138.963
139.044
139.113
139.163
139.191
139.201
139.197
139.185
139.168
139.151
139.136
139.124
139.115
139.109
139.105
139.103
139.103
139.104
139.107
139.11
139.114
139.118
139.122
139.127
139.132
139.137
139.143
139.149
139.156
139.164
139.171
139.178
139.185
139.192
139.197
146.266
146.139
146.043
145.931
145.81
145.677
145.526
145.35
145.137
144.876
144.558
144.175
143.724
143.209
142.642
142.04
141.428
140.832
140.28
139.798
139.404
139.11
138.916
138.816
138.793
138.827
138.896
138.979
139.059
139.125
139.171
139.195
139.202
139.195
139.182
139.165
139.148
139.134
139.123
139.114
139.109
139.105
139.103
139.103
139.105
139.107
139.111
139.114
139.118
139.122
139.127
139.132
139.137
139.143
139.15
139.157
139.164
139.171
139.179
139.186
146.365
146.303
146.227
146.137
146.034
145.922
145.801
145.669
145.52
145.346
145.134
144.874
144.555
144.17
143.715
143.195
142.621
142.013
141.394
140.794
140.241
139.761
139.373
139.086
138.903
138.812
138.798
138.839
138.912
138.996
139.075
139.137
139.178
139.198
139.201
139.193
139.178
139.162
139.146
139.133
139.122
139.114
139.108
139.105
139.103
139.103
139.105
139.108
139.111
139.115
139.119
139.123
139.127
139.132
139.137
139.143
139.15
139.157
139.164
139.172
146.371
146.393
146.354
146.3
146.222
146.13
146.025
145.913
145.792
145.662
145.515
145.342
145.132
144.873
144.553
144.165
143.706
143.18
142.6
141.985
141.36
140.756
140.202
139.724
139.341
139.063
138.89
138.81
138.805
138.853
138.93
139.014
139.09
139.148
139.184
139.2
139.2
139.19
139.175
139.159
139.144
139.131
139.121
139.113
139.108
139.105
139.103
139.103
139.105
139.108
139.111
139.115
139.119
139.123
139.127
139.132
139.137
139.143
139.15
139.157
146.271
146.379
146.391
146.389
146.355
146.296
146.217
146.122
146.016
145.903
145.784
145.654
145.509
145.338
145.13
144.872
144.551
144.161
143.698
143.166
142.578
141.956
141.325
140.716
140.161
139.686
139.309
139.04
138.878
138.809
138.813
138.868
138.948
139.032
139.105
139.158
139.19
139.201
139.198
139.187
139.172
139.156
139.142
139.13
139.12
139.113
139.107
139.104
139.103
139.104
139.105
139.108
139.112
139.115
139.119
139.123
139.127
139.132
139.137
139.143
146.088
146.256
146.319
146.376
146.398
146.391
146.354
146.293
146.21
146.114
146.007
145.894
145.775
145.647
145.503
145.335
145.128
144.871
144.55
144.158
143.69
143.152
142.557
141.926
141.288
140.676
140.119
139.647
139.277
139.018
138.867
138.809
138.823
138.884
138.967
139.05
139.119
139.168
139.194
139.202
139.196
139.184
139.168
139.153
139.14
139.129
139.12
139.112
139.107
139.104
139.103
139.104
139.106
139.109
139.112
139.116
139.119
139.123
139.127
139.132
145.871
146.051
146.151
146.253
146.331
146.382
146.403
146.393
146.353
146.289
146.204
146.105
145.998
145.884
145.766
145.639
145.498
145.331
145.127
144.871
144.55
144.154
143.682
143.137
142.534
141.896
141.251
140.633
140.076
139.607
139.245
138.997
138.857
138.811
138.835
138.902
138.986
139.068
139.133
139.176
139.197
139.201
139.193
139.18
139.165
139.151
139.139
139.128
139.119
139.112
139.106
139.104
139.103
139.104
139.106
139.109
139.113
139.116
139.12
139.123
145.683
145.823
145.93
146.049
146.162
146.262
146.339
146.389
146.408
146.395
146.352
146.285
146.197
146.097
145.988
145.874
145.757
145.631
145.492
145.328
145.126
144.871
144.55
144.152
143.675
143.123
142.512
141.864
141.212
140.59
140.032
139.567
139.213
138.976
138.849
138.815
138.849
138.921
139.007
139.086
139.146
139.183
139.199
139.199
139.19
139.177
139.163
139.15
139.138
139.127
139.118
139.111
139.106
139.103
139.103
139.104
139.107
139.11
139.113
139.116
145.579
145.638
145.721
145.822
145.938
146.057
146.172
146.272
146.348
146.396
146.412
146.396
146.351
146.28
146.191
146.088
145.978
145.864
145.747
145.624
145.487
145.325
145.125
144.872
144.55
144.15
143.668
143.109
142.489
141.832
141.172
140.545
139.986
139.525
139.18
138.956
138.843
138.822
138.864
138.942
139.028
139.103
139.158
139.189
139.2
139.197
139.187
139.174
139.161
139.149
139.137
139.127
139.117
139.11
139.105
139.103
139.103
139.104
139.107
139.11
145.585
145.551
145.585
145.638
145.722
145.827
145.945
146.067
146.182
146.281
146.357
146.403
146.416
146.397
146.349
146.276
146.184
146.079
145.968
145.854
145.738
145.616
145.481
145.322
145.125
144.873
144.552
144.149
143.662
143.095
142.465
141.798
141.13
140.498
139.939
139.483
139.148
138.937
138.839
138.83
138.882
138.964
139.049
139.12
139.168
139.193
139.199
139.194
139.183
139.171
139.159
139.148
139.137
139.126
139.116
139.109
139.104
139.103
139.103
139.105
145.694
145.582
145.561
145.553
145.581
145.639
145.725
145.832
145.952
146.076
146.192
146.291
146.366
146.41
146.42
146.399
146.347
146.271
146.176
146.07
145.958
145.843
145.728
145.607
145.475
145.32
145.125
144.875
144.554
144.149
143.656
143.081
142.441
141.764
141.086
140.449
139.89
139.44
139.116
138.919
138.837
138.842
138.903
138.987
139.071
139.136
139.176
139.195
139.197
139.191
139.18
139.17
139.159
139.147
139.136
139.125
139.115
139.108
139.104
139.102
145.864
145.714
145.647
145.585
145.552
145.549
145.578
145.638
145.727
145.837
145.96
146.086
146.203
146.302
146.375
146.416
146.424
146.399
146.345
146.266
146.169
146.061
145.947
145.833
145.717
145.599
145.469
145.317
145.126
144.878
144.557
144.15
143.651
143.068
142.416
141.728
141.041
140.398
139.839
139.396
139.084
138.904
138.837
138.856
138.925
139.012
139.092
139.15
139.183
139.195
139.194
139.187
139.178
139.168
139.158
139.147
139.135
139.124
139.114
139.107
146.042
145.9
145.811
145.717
145.637
145.578
145.545
145.544
145.575
145.638
145.73
145.843
145.969
146.096
146.213
146.312
146.383
146.423
146.428
146.4
146.342
146.261
146.162
146.052
145.937
145.822
145.707
145.59
145.463
145.314
145.127
144.882
144.561
144.152
143.647
143.054
142.391
141.69
140.993
140.344
139.786
139.35
139.053
138.89
138.841
138.874
138.951
139.038
139.112
139.162
139.187
139.194
139.191
139.184
139.177
139.168
139.158
139.146
139.134
139.122
146.168
146.082
145.997
145.901
145.802
145.709
145.63
145.571
145.539
145.539
145.572
145.638
145.733
145.849
145.977
146.106
146.224
146.322
146.392
146.429
146.431
146.4
146.34
146.255
146.154
146.042
145.926
145.81
145.696
145.581
145.457
145.312
145.128
144.886
144.567
144.155
143.645
143.041
142.366
141.651
140.942
140.287
139.73
139.304
139.022
138.879
138.849
138.896
138.979
139.065
139.131
139.171
139.188
139.191
139.187
139.182
139.176
139.168
139.158
139.146
146.192
146.201
146.145
146.079
145.991
145.895
145.795
145.702
145.622
145.563
145.532
145.533
145.569
145.638
145.736
145.856
145.986
146.117
146.236
146.333
146.401
146.435
146.434
146.4
146.337
146.25
146.146
146.033
145.915
145.799
145.685
145.571
145.45
145.309
145.13
144.891
144.573
144.16
143.643
143.029
142.339
141.61
140.889
140.227
139.671
139.256
138.993
138.871
138.862
138.922
139.01
139.091
139.148
139.177
139.187
139.187
139.184
139.181
139.177
139.169
146.076
146.208
146.204
146.193
146.144
146.073
145.985
145.888
145.788
145.694
145.614
145.556
145.525
145.528
145.566
145.638
145.74
145.863
145.996
146.128
146.247
146.343
146.409
146.441
146.437
146.4
146.334
146.245
146.139
146.023
145.904
145.787
145.673
145.561
145.443
145.306
145.132
144.897
144.582
144.166
143.643
143.018
142.313
141.567
140.831
140.162
139.609
139.207
138.965
138.868
138.881
138.954
139.043
139.116
139.16
139.179
139.183
139.183
139.183
139.182
145.795
146.065
146.13
146.194
146.208
146.189
146.14
146.068
145.98
145.882
145.781
145.687
145.606
145.548
145.518
145.523
145.563
145.639
145.744
145.87
146.006
146.14
146.259
146.354
146.417
146.446
146.439
146.399
146.331
146.239
146.131
146.014
145.893
145.775
145.661
145.551
145.436
145.303
145.134
144.904
144.591
144.175
143.645
143.007
142.285
141.521
140.77
140.092
139.543
139.156
138.94
138.871
138.907
138.991
139.077
139.138
139.167
139.176
139.179
139.182
145.341
145.753
145.892
146.047
146.14
146.194
146.207
146.186
146.136
146.063
145.974
145.876
145.774
145.679
145.598
145.54
145.511
145.517
145.56
145.639
145.748
145.878
146.017
146.152
146.271
146.364
146.425
146.451
146.441
146.399
146.328
146.234
146.124
146.005
145.882
145.762
145.649
145.539
145.427
145.3
145.136
144.912
144.603
144.186
143.65
142.999
142.258
141.472
140.703
140.016
139.472
139.105
138.919
138.883
138.942
139.034
139.11
139.152
139.166
139.171
144.711
145.269
145.479
145.727
145.909
146.051
146.145
146.195
146.206
146.183
146.132
146.059
145.969
145.87
145.768
145.672
145.59
145.531
145.503
145.511
145.557
145.639
145.753
145.887
146.028
146.165
146.283
146.374
146.432
146.455
146.442
146.398
146.325
146.229
146.117
145.995
145.871
145.75
145.635
145.527
145.418
145.295
145.138
144.921
144.616
144.2
143.657
142.992
142.23
141.42
140.628
139.931
139.393
139.052
138.905
138.909
138.991
139.081
139.135
139.154
143.889
144.615
144.891
145.23
145.5
145.733
145.919
146.057
146.148
146.196
146.204
146.18
146.128
146.054
145.964
145.864
145.761
145.664
145.582
145.523
145.495
145.504
145.553
145.64
145.758
145.896
146.041
146.178
146.295
146.384
146.439
146.458
146.443
146.396
146.322
146.224
146.11
145.986
145.86
145.737
145.622
145.514
145.408
145.29
145.14
144.93
144.632
144.218
143.67
142.99
142.203
141.363
140.545
139.834
139.306
139
138.906
138.956
139.055
139.122
142.842
143.773
144.132
144.561
144.916
145.235
145.511
145.744
145.929
146.064
146.151
146.196
146.203
146.178
146.125
146.051
145.96
145.859
145.755
145.658
145.574
145.514
145.487
145.497
145.55
145.641
145.764
145.906
146.054
146.191
146.307
146.393
146.444
146.461
146.444
146.395
146.319
146.22
146.104
145.978
145.849
145.724
145.608
145.501
145.397
145.283
145.14
144.94
144.65
144.24
143.688
142.992
142.178
141.301
140.448
139.719
139.206
138.956
138.941
139.047
141.561
142.681
143.178
143.714
144.165
144.569
144.928
145.248
145.526
145.758
145.94
146.072
146.156
146.199
146.204
146.178
146.124
146.049
145.957
145.855
145.751
145.652
145.567
145.506
145.477
145.489
145.545
145.641
145.769
145.915
146.065
146.203
146.317
146.4
146.45
146.464
146.446
146.396
146.319
146.218
146.099
145.97
145.84
145.713
145.596
145.487
145.384
145.274
145.138
144.948
144.669
144.267
143.717
143.009
142.166
141.242
140.335
139.574
139.09
138.959
140.166
141.272
141.984
142.654
143.238
143.747
144.193
144.59
144.949
145.271
145.551
145.783
145.962
146.09
146.171
146.211
146.214
146.186
146.13
146.052
145.959
145.856
145.749
145.647
145.558
145.493
145.461
145.472
145.529
145.63
145.765
145.919
146.075
146.216
146.331
146.414
146.462
146.475
146.455
146.404
146.325
146.221
146.099
145.967
145.833
145.703
145.582
145.471
145.366
145.26
145.133
144.958
144.699
144.318
143.787
143.086
142.22
141.227
140.196
139.27
)
;

boundaryField
{
    bottomwall
    {
        type            opaque;
        refValue        uniform 0;
        refGradient     uniform 0;
        valueFraction   uniform 0;
        source          uniform 0;
        value           nonuniform List<scalar> 
60
(
139.27
139.283
139.291
139.3
139.308
139.316
139.324
139.331
139.338
139.344
139.351
139.357
139.363
139.37
139.377
139.385
139.394
139.405
139.416
139.429
139.444
139.459
139.475
139.491
139.507
139.522
139.535
139.547
139.556
139.564
139.569
139.572
139.575
139.578
139.582
139.59
139.603
139.621
139.646
139.677
139.713
139.751
139.79
139.824
139.849
139.861
139.856
139.832
139.786
139.718
139.629
139.523