/*--------------------------------*- C++ -*----------------------------------*\
| =========                 |                                                 |
| \\      /  F ield         | OpenFOAM: The Open Source CFD Toolbox           |
|  \\    /   O peration     | Version:  2406                                  |
|   \\  /    A nd           | Website:  www.openfoam.com                      |
|    \\/     M anipulation  |                                                 |
\*---------------------------------------------------------------------------*/
FoamFile
{
    version     2.0;
    format      ascii;
    arch        "LSB;label=32;scalar=64";
    class       volScalarField;
    location    "10000";
    object      ILambda_6_0;
}
// * * * * * * * * * * * * * * * * * * * * * * * * * * * * * * * * * * * * * //

dimensions      [1 0 -3 0 0 0 0];

internalField   nonuniform List<scalar> 
3600
(
139.006
139.038
139.067
139.094
139.119
139.144
139.173
139.208
139.247
139.29
139.333
139.372
139.401
139.417
139.418
139.403
139.376
139.338
139.294
139.248
139.206
139.169
139.14
139.119
139.107
139.101
139.1
139.103
139.108
139.115
139.123
139.132
139.142
139.154
139.169
139.187
139.209
139.234
139.263
139.295
139.328
139.36
139.391
139.419
139.442
139.459
139.469
139.471
139.465
139.451
139.431
139.403
139.371
139.336
139.298
139.26
139.223
139.187
139.158
139.116
139.104
139.131
139.154
139.177
139.204
139.239
139.282
139.329
139.375
139.415
139.44
139.449
139.437
139.408
139.364
139.312
139.256
139.203
139.157
139.122
139.098
139.085
139.081
139.084
139.091
139.101
139.112
139.122
139.132
139.142
139.153
139.167
139.184
139.205
139.23
139.259
139.291
139.326
139.361
139.396
139.427
139.453
139.472
139.484
139.488
139.482
139.467
139.445
139.416
139.381
139.342
139.301
139.259
139.218
139.18
139.146
139.116
139.09
139.071
139.051
139.149
139.168
139.192
139.225
139.267
139.315
139.363
139.404
139.433
139.443
139.433
139.405
139.363
139.311
139.257
139.205
139.162
139.128
139.106
139.094
139.09
139.093
139.1
139.108
139.117
139.125
139.134
139.142
139.152
139.165
139.18
139.2
139.224
139.253
139.285
139.319
139.353
139.387
139.418
139.444
139.464
139.476
139.48
139.476
139.463
139.442
139.415
139.382
139.345
139.306
139.266
139.227
139.19
139.156
139.126
139.101
139.081
139.065
139.054
139.047
139.188
139.219
139.26
139.309
139.36
139.405
139.437
139.45
139.442
139.414
139.371
139.317
139.261
139.207
139.162
139.127
139.104
139.091
139.088
139.091
139.098
139.106
139.115
139.124
139.132
139.141
139.151
139.163
139.179
139.199
139.223
139.251
139.283
139.317
139.352
139.386
139.418
139.444
139.465
139.478
139.483
139.479
139.467
139.446
139.419
139.386
139.348
139.308
139.268
139.228
139.19
139.156
139.125
139.1
139.079
139.063
139.052
139.045
139.042
139.046
139.25
139.301
139.355
139.404
139.439
139.455
139.448
139.421
139.376
139.321
139.262
139.207
139.16
139.125
139.101
139.089
139.086
139.09
139.098
139.107
139.117
139.125
139.134
139.142
139.151
139.163
139.178
139.197
139.221
139.249
139.28
139.315
139.35
139.384
139.416
139.443
139.464
139.478
139.484
139.48
139.468
139.448
139.42
139.387
139.35
139.31
139.269
139.229
139.191
139.157
139.126
139.1
139.079
139.063
139.052
139.046
139.043
139.044
139.047
139.059
139.348
139.402
139.442
139.461
139.456
139.428
139.383
139.325
139.265
139.207
139.159
139.123
139.099
139.087
139.085
139.09
139.098
139.108
139.118
139.126
139.134
139.142
139.151
139.162
139.177
139.195
139.219
139.246
139.278
139.312
139.348
139.382
139.415
139.442
139.464
139.478
139.484
139.481
139.47
139.45
139.423
139.39
139.352
139.312
139.271
139.231
139.193
139.158
139.127
139.101
139.08
139.063
139.052
139.045
139.043
139.044
139.047
139.054
139.061
139.078
139.445
139.467
139.464
139.437
139.389
139.33
139.267
139.207
139.157
139.12
139.097
139.085
139.084
139.089
139.098
139.109
139.118
139.127
139.135
139.143
139.151
139.162
139.175
139.194
139.217
139.244
139.275
139.31
139.345
139.38
139.413
139.441
139.464
139.479
139.485
139.483
139.471
139.452
139.425
139.392
139.354
139.314
139.273
139.232
139.194
139.159
139.128
139.101
139.08
139.064
139.052
139.045
139.042
139.043
139.047
139.053
139.062
139.072
139.082
139.103
139.476
139.446
139.397
139.335
139.269
139.207
139.155
139.118
139.094
139.083
139.083
139.089
139.099
139.109
139.12
139.128
139.136
139.143
139.151
139.161
139.174
139.192
139.214
139.242
139.273
139.307
139.343
139.378
139.412
139.44
139.463
139.479
139.486
139.484
139.473
139.454
139.427
139.394
139.357
139.316
139.275
139.234
139.195
139.16
139.128
139.102
139.08
139.064
139.052
139.045
139.042
139.043
139.047
139.053
139.061
139.072
139.083
139.096
139.108
139.132
139.407
139.34
139.271
139.206
139.153
139.115
139.091
139.081
139.081
139.088
139.099
139.11
139.121
139.129
139.137
139.143
139.151
139.16
139.173
139.19
139.212
139.239
139.27
139.305
139.341
139.376
139.41
139.439
139.463
139.479
139.487
139.485
139.475
139.456
139.429
139.396
139.359
139.318
139.277
139.236
139.197
139.161
139.129
139.102
139.08
139.064
139.052
139.045
139.042
139.043
139.046
139.053
139.061
139.071
139.083
139.095
139.109
139.124
139.137
139.164
139.273
139.206
139.151
139.112
139.088
139.079
139.08
139.088
139.099
139.111
139.122
139.13
139.137
139.144
139.151
139.16
139.172
139.189
139.21
139.237
139.268
139.302
139.338
139.374
139.408
139.438
139.462
139.479
139.487
139.487
139.477
139.458
139.431
139.399
139.361
139.32
139.279
139.237
139.198
139.162
139.13
139.103
139.081
139.064
139.052
139.045
139.042
139.042
139.046
139.052
139.061
139.071
139.082
139.095
139.109
139.123
139.138
139.155
139.169
139.197
139.147
139.108
139.085
139.077
139.079
139.088
139.1
139.112
139.123
139.132
139.138
139.144
139.151
139.159
139.171
139.187
139.208
139.235
139.265
139.3
139.336
139.372
139.407
139.437
139.462
139.479
139.488
139.488
139.478
139.46
139.434
139.401
139.363
139.323
139.28
139.239
139.199
139.163
139.131
139.103
139.081
139.064
139.052
139.045
139.042
139.042
139.046
139.052
139.06
139.07
139.082
139.094
139.108
139.123
139.138
139.154
139.17
139.188
139.203
139.231
139.08
139.074
139.078
139.088
139.1
139.113
139.124
139.133
139.139
139.145
139.151
139.159
139.17
139.186
139.206
139.232
139.263
139.297
139.333
139.37
139.405
139.436
139.461
139.479
139.489
139.489
139.48
139.462
139.436
139.403
139.366
139.325
139.282
139.241
139.201
139.164
139.131
139.104
139.081
139.064
139.052
139.045
139.041
139.042
139.046
139.052
139.06
139.07
139.081
139.094
139.107
139.122
139.137
139.153
139.17
139.187
139.204
139.222
139.237
139.264
139.075
139.087
139.101
139.114
139.125
139.134
139.14
139.145
139.151
139.158
139.169
139.184
139.204
139.23
139.26
139.294
139.331
139.368
139.403
139.435
139.461
139.479
139.49
139.49
139.482
139.464
139.438
139.406
139.368
139.327
139.284
139.242
139.202
139.165
139.132
139.104
139.082
139.064
139.052
139.045
139.041
139.042
139.045
139.051
139.06
139.07
139.081
139.093
139.107
139.121
139.137
139.152
139.169
139.186
139.203
139.221
139.238
139.255
139.27
139.293
139.101
139.115
139.127
139.135
139.141
139.146
139.151
139.158
139.168
139.183
139.202
139.228
139.258
139.292
139.328
139.366
139.401
139.434
139.46
139.479
139.49
139.491
139.483
139.466
139.44
139.408
139.37
139.329
139.286
139.244
139.203
139.166
139.133
139.105
139.082
139.064
139.052
139.044
139.041
139.041
139.045
139.051
139.059
139.069
139.081
139.093
139.106
139.121
139.136
139.152
139.168
139.185
139.203
139.22
139.237
139.254
139.271
139.286
139.299
139.318
139.128
139.136
139.142
139.146
139.151
139.157
139.167
139.181
139.2
139.225
139.255
139.289
139.326
139.363
139.399
139.432
139.459
139.479
139.491
139.493
139.485
139.468
139.443
139.41
139.372
139.331
139.288
139.246
139.205
139.167
139.134
139.105
139.082
139.064
139.052
139.044
139.041
139.041
139.045
139.051
139.059
139.069
139.08
139.093
139.106
139.12
139.135
139.151
139.167
139.184
139.202
139.219
139.237
139.254
139.27
139.285
139.299
139.312
139.322
139.337
139.143
139.147
139.151
139.157
139.166
139.18
139.198
139.223
139.252
139.286
139.323
139.361
139.398
139.431
139.459
139.479
139.491
139.494
139.487
139.47
139.445
139.413
139.375
139.333
139.29
139.247
139.206
139.168
139.135
139.106
139.082
139.065
139.052
139.044
139.041
139.041
139.044
139.05
139.059
139.068
139.08
139.092
139.105
139.12
139.135
139.15
139.167
139.184
139.201
139.218
139.236
139.253
139.269
139.285
139.299
139.312
139.323
139.333
139.34
139.351
139.151
139.157
139.165
139.178
139.197
139.221
139.25
139.284
139.32
139.358
139.396
139.429
139.458
139.479
139.492
139.495
139.488
139.472
139.447
139.415
139.377
139.336
139.292
139.249
139.208
139.169
139.135
139.106
139.083
139.065
139.052
139.044
139.04
139.041
139.044
139.05
139.058
139.068
139.079
139.092
139.105
139.119
139.134
139.15
139.166
139.183
139.2
139.218
139.235
139.252
139.269
139.284
139.299
139.312
139.323
139.333
139.341
139.348
139.353
139.362
139.164
139.177
139.195
139.218
139.247
139.281
139.318
139.356
139.393
139.428
139.457
139.479
139.492
139.496
139.49
139.474
139.45
139.417
139.38
139.338
139.294
139.251
139.209
139.17
139.136
139.107
139.083
139.065
139.052
139.044
139.04
139.04
139.044
139.05
139.058
139.068
139.079
139.091
139.104
139.118
139.133
139.149
139.165
139.182
139.199
139.217
139.234
139.251
139.268
139.284
139.298
139.311
139.323
139.332
139.341
139.347
139.353
139.359
139.363
139.373
139.193
139.216
139.245
139.278
139.315
139.353
139.391
139.426
139.456
139.479
139.493
139.497
139.492
139.476
139.452
139.42
139.382
139.34
139.296
139.253
139.21
139.172
139.137
139.107
139.083
139.065
139.052
139.044
139.04
139.04
139.043
139.049
139.058
139.067
139.078
139.091
139.104
139.118
139.133
139.148
139.164
139.181
139.198
139.216
139.233
139.251
139.267
139.283
139.298
139.311
139.323
139.332
139.341
139.347
139.353
139.358
139.363
139.369
139.374
139.384
139.242
139.275
139.312
139.351
139.389
139.425
139.455
139.479
139.494
139.499
139.493
139.478
139.454
139.422
139.384
139.342
139.298
139.254
139.212
139.173
139.138
139.108
139.084
139.065
139.052
139.044
139.04
139.04
139.043
139.049
139.057
139.067
139.078
139.09
139.103
139.117
139.132
139.148
139.164
139.18
139.198
139.215
139.233
139.25
139.267
139.283
139.297
139.311
139.322
139.332
139.341
139.347
139.353
139.358
139.363
139.368
139.374
139.379
139.386
139.39
139.309
139.348
139.387
139.423
139.454
139.478
139.494
139.5
139.495
139.48
139.457
139.425
139.387
139.345
139.301
139.256
139.213
139.174
139.139
139.108
139.084
139.065
139.052
139.043
139.04
139.04
139.043
139.049
139.057
139.067
139.078
139.09
139.103
139.117
139.131
139.147
139.163
139.18
139.197
139.214
139.232
139.249
139.266
139.282
139.297
139.31
139.322
139.332
139.341
139.348
139.353
139.358
139.362
139.367
139.372
139.378
139.384
139.388
139.393
139.379
139.385
139.421
139.453
139.478
139.494
139.501
139.497
139.483
139.459
139.427
139.389
139.347
139.303
139.258
139.215
139.175
139.139
139.109
139.084
139.065
139.052
139.043
139.039
139.039
139.043
139.049
139.057
139.066
139.077
139.089
139.102
139.116
139.131
139.146
139.162
139.179
139.196
139.213
139.231
139.248
139.265
139.281
139.296
139.31
139.322
139.332
139.341
139.348
139.353
139.358
139.362
139.366
139.371
139.376
139.382
139.387
139.389
139.385
139.382
139.334
139.452
139.478
139.495
139.502
139.498
139.485
139.461
139.43
139.392
139.35
139.305
139.26
139.216
139.176
139.14
139.11
139.085
139.065
139.052
139.043
139.039
139.039
139.042
139.048
139.056
139.066
139.077
139.089
139.102
139.116
139.13
139.146
139.161
139.178
139.195
139.213
139.23
139.248
139.265
139.281
139.296
139.31
139.322
139.332
139.341
139.348
139.353
139.358
139.362
139.366
139.37
139.375
139.38
139.385
139.387
139.385
139.377
139.354
139.333
139.241
139.496
139.503
139.5
139.487
139.464
139.432
139.394
139.352
139.307
139.262
139.218
139.177
139.141
139.11
139.085
139.065
139.052
139.043
139.039
139.039
139.042
139.048
139.056
139.066
139.077
139.089
139.101
139.115
139.13
139.145
139.161
139.177
139.194
139.212
139.229
139.247
139.264
139.28
139.295
139.309
139.321
139.332
139.341
139.348
139.353
139.358
139.361
139.365
139.369
139.373
139.378
139.383
139.386
139.385
139.377
139.358
139.328
139.279
139.23
139.099
139.503
139.489
139.466
139.435
139.397
139.354
139.309
139.264
139.219
139.178
139.142
139.111
139.085
139.065
139.051
139.043
139.039
139.039
139.042
139.048
139.056
139.065
139.076
139.088
139.101
139.115
139.129
139.144
139.16
139.176
139.194
139.211
139.229
139.246
139.263
139.279
139.295
139.309
139.321
139.332
139.341
139.348
139.353
139.358
139.361
139.365
139.368
139.372
139.377
139.381
139.384
139.383
139.377
139.36
139.331
139.288
139.228
139.152
139.074
138.935
139.47
139.438
139.4
139.357
139.311
139.265
139.221
139.18
139.143
139.111
139.085
139.066
139.051
139.043
139.038
139.038
139.041
139.047
139.055
139.065
139.076
139.088
139.101
139.114
139.128
139.144
139.159
139.176
139.193
139.21
139.228
139.245
139.262
139.279
139.294
139.308
139.321
139.332
139.341
139.348
139.353
139.358
139.361
139.364
139.367
139.371
139.375
139.379
139.382
139.382
139.376
139.362
139.335
139.293
139.236
139.163
139.077
138.987
138.897
138.806
139.403
139.359
139.314
139.267
139.223
139.181
139.144
139.112
139.086
139.066
139.051
139.042
139.038
139.038
139.041
139.047
139.055
139.065
139.075
139.087
139.1
139.114
139.128
139.143
139.159
139.175
139.192
139.209
139.227
139.244
139.262
139.278
139.294
139.308
139.32
139.331
139.34
139.348
139.353
139.358
139.361
139.364
139.367
139.37
139.373
139.377
139.38
139.381
139.376
139.363
139.338
139.299
139.244
139.173
139.089
138.998
138.906
138.835
138.766
138.798
139.316
139.269
139.224
139.182
139.144
139.112
139.086
139.066
139.051
139.042
139.038
139.038
139.041
139.047
139.055
139.064
139.075
139.087
139.1
139.113
139.127
139.142
139.158
139.174
139.191
139.208
139.226
139.244
139.261
139.277
139.293
139.307
139.32
139.331
139.34
139.348
139.353
139.358
139.361
139.364
139.366
139.369
139.372
139.376
139.379
139.379
139.375
139.364
139.341
139.304
139.251
139.183
139.1
139.01
138.919
138.84
138.782
138.776
138.773
138.997
139.226
139.183
139.145
139.113
139.086
139.066
139.051
139.042
139.038
139.037
139.041
139.046
139.054
139.064
139.075
139.087
139.099
139.113
139.127
139.142
139.157
139.173
139.19
139.208
139.225
139.243
139.26
139.277
139.293
139.307
139.32
139.331
139.34
139.348
139.354
139.358
139.361
139.363
139.365
139.368
139.371
139.374
139.377
139.378
139.374
139.364
139.343
139.309
139.259
139.192
139.111
139.021
138.93
138.849
138.79
138.769
138.795
138.902
139.009
139.465
139.146
139.113
139.087
139.066
139.051
139.042
139.037
139.037
139.04
139.046
139.054
139.064
139.074
139.086
139.099
139.112
139.126
139.141
139.156
139.173
139.189
139.207
139.224
139.242
139.259
139.276
139.292
139.306
139.319
139.331
139.34
139.348
139.354
139.358
139.361
139.363
139.365
139.367
139.369
139.372
139.375
139.376
139.373
139.364
139.345
139.313
139.266
139.202
139.123
139.034
138.942
138.858
138.796
138.77
138.794
138.882
139.036
139.29
139.531
140.208
139.086
139.066
139.051
139.042
139.037
139.037
139.04
139.046
139.054
139.063
139.074
139.086
139.098
139.112
139.126
139.14
139.156
139.172
139.189
139.206
139.223
139.241
139.259
139.275
139.291
139.306
139.319
139.33
139.34
139.348
139.354
139.358
139.361
139.363
139.365
139.366
139.368
139.371
139.373
139.374
139.372
139.364
139.347
139.317
139.272
139.211
139.134
139.046
138.954
138.869
138.803
138.773
138.791
138.872
139.024
139.256
139.562
139.965
140.334
141.171
139.05
139.041
139.037
139.037
139.04
139.045
139.053
139.063
139.074
139.085
139.098
139.111
139.125
139.14
139.155
139.171
139.188
139.205
139.222
139.24
139.258
139.275
139.291
139.306
139.319
139.33
139.34
139.348
139.354
139.358
139.361
139.363
139.365
139.366
139.367
139.369
139.371
139.372
139.371
139.364
139.348
139.321
139.279
139.22
139.145
139.058
138.966
138.879
138.811
138.775
138.788
138.863
139.01
139.236
139.541
139.923
140.367
140.886
141.347
142.248
139.036
139.036
139.039
139.045
139.053
139.063
139.073
139.085
139.098
139.111
139.125
139.139
139.154
139.17
139.187
139.204
139.222
139.239
139.257
139.274
139.29
139.305
139.318
139.33
139.34
139.348
139.354
139.358
139.361
139.363
139.364
139.365
139.366
139.368
139.369
139.37
139.369
139.363
139.349
139.324
139.285
139.228
139.156
139.071
138.979
138.89
138.819
138.779
138.786
138.855
138.995
139.216
139.517
139.895
140.341
140.843
141.38
141.957
142.453
143.317
139.039
139.045
139.053
139.062
139.073
139.085
139.097
139.11
139.124
139.138
139.154
139.17
139.186
139.203
139.221
139.238
139.256
139.273
139.29
139.305
139.318
139.33
139.34
139.348
139.354
139.358
139.361
139.363
139.364
139.365
139.366
139.367
139.368
139.369
139.368
139.362
139.35
139.327
139.29
139.237
139.167
139.083
138.992
138.902
138.827
138.783
138.785
138.847
138.981
139.196
139.492
139.867
140.312
140.813
141.355
141.919
142.484
143.051
143.524
144.271
139.052
139.062
139.073
139.084
139.097
139.11
139.123
139.138
139.153
139.169
139.185
139.202
139.22
139.238
139.255
139.272
139.289
139.304
139.318
139.33
139.339
139.347
139.354
139.358
139.361
139.363
139.364
139.365
139.365
139.366
139.366
139.367
139.366
139.361
139.35
139.329
139.295
139.245
139.178
139.096
139.005
138.914
138.837
138.788
138.784
138.839
138.967
139.176
139.467
139.839
140.282
140.783
141.326
141.892
142.462
143.021
143.55
144.05
144.456
145.04
139.072
139.084
139.096
139.109
139.123
139.137
139.152
139.168
139.184
139.201
139.219
139.237
139.254
139.272
139.288
139.304
139.317
139.329
139.339
139.347
139.354
139.358
139.361
139.363
139.364
139.364
139.365
139.365
139.365
139.365
139.364
139.36
139.35
139.331
139.3
139.252
139.188
139.108
139.018
138.927
138.847
138.793
138.783
138.832
138.954
139.156
139.443
139.811
140.252
140.753
141.297
141.865
142.439
143
143.534
144.029
144.475
144.874
145.188
145.596
139.096
139.109
139.122
139.137
139.152
139.167
139.184
139.201
139.218
139.236
139.253
139.271
139.288
139.303
139.317
139.329
139.339
139.347
139.354
139.358
139.361
139.363
139.364
139.364
139.364
139.364
139.364
139.363
139.362
139.359
139.35
139.333
139.304
139.26
139.198
139.121
139.032
138.94
138.857
138.8
138.784
138.826
138.94
139.136
139.418
139.782
140.222
140.723
141.268
141.838
142.415
142.979
143.516
144.014
144.464
144.86
145.2
145.485
145.703
145.944
139.122
139.136
139.151
139.167
139.183
139.2
139.217
139.235
139.253
139.27
139.287
139.302
139.317
139.329
139.339
139.347
139.354
139.358
139.361
139.363
139.364
139.364
139.364
139.363
139.363
139.362
139.36
139.357
139.349
139.334
139.307
139.266
139.208
139.133
139.046
138.954
138.869
138.807
138.785
138.82
138.927
139.117
139.393
139.754
140.191
140.692
141.239
141.811
142.391
142.958
143.498
143.999
144.451
144.85
145.192
145.477
145.708
145.884
146.012
146.109
139.15
139.166
139.182
139.199
139.216
139.234
139.252
139.269
139.286
139.302
139.316
139.329
139.339
139.347
139.354
139.358
139.361
139.363
139.364
139.364
139.364
139.363
139.362
139.361
139.359
139.355
139.348
139.334
139.31
139.272
139.217
139.146
139.06
138.968
138.881
138.815
138.787
138.815
138.915
139.097
139.367
139.725
140.16
140.661
141.209
141.784
142.366
142.937
143.481
143.984
144.439
144.839
145.183
145.471
145.703
145.882
146.012
146.093
146.143
146.124
139.181
139.198
139.215
139.233
139.251
139.268
139.285
139.301
139.316
139.328
139.339
139.347
139.354
139.358
139.361
139.363
139.364
139.364
139.363
139.363
139.361
139.36
139.357
139.354
139.347
139.335
139.313
139.278
139.226
139.158
139.074
138.982
138.894
138.823
138.789
138.81
138.902
139.078
139.342
139.695
140.129
140.629
141.179
141.757
142.342
142.916
143.463
143.969
144.426
144.829
145.175
145.464
145.697
145.878
146.01
146.095
146.14
146.143
146.128
146.028
139.215
139.232
139.25
139.267
139.285
139.301
139.315
139.328
139.339
139.347
139.354
139.358
139.361
139.363
139.363
139.364
139.363
139.362
139.361
139.359
139.356
139.352
139.346
139.334
139.314
139.282
139.235
139.17
139.088
138.997
138.907
138.833
138.793
138.807
138.891
139.058
139.317
139.665
140.097
140.597
141.148
141.729
142.318
142.896
143.446
143.955
144.414
144.819
145.166
145.457
145.692
145.875
146.008
146.096
146.142
146.149
146.125
146.07
146.009
145.871
139.249
139.267
139.284
139.3
139.315
139.328
139.339
139.347
139.354
139.358
139.361
139.362
139.363
139.363
139.363
139.362
139.36
139.358
139.355
139.35
139.344
139.333
139.316
139.287
139.242
139.181
139.103
139.013
138.922
138.844
138.798
138.804
138.879
139.039
139.291
139.635
140.064
140.565
141.118
141.701
142.294
142.875
143.428
143.94
144.402
144.809
145.158
145.45
145.687
145.871
146.007
146.096
146.144
146.153
146.13
146.079
146.007
145.92
145.836
145.707
139.283
139.299
139.314
139.328
139.339
139.348
139.354
139.358
139.361
139.362
139.363
139.363
139.363
139.362
139.36
139.357
139.354
139.349
139.342
139.332
139.316
139.29
139.249
139.192
139.117
139.029
138.937
138.856
138.804
138.802
138.869
139.02
139.265
139.604
140.031
140.532
141.086
141.673
142.269
142.854
143.411
143.926
144.39
144.798
145.149
145.443
145.681
145.867
146.005
146.096
146.146
146.157
146.136
146.086
146.014
145.928
145.836
145.747
145.668
145.594
139.314
139.327
139.339
139.348
139.354
139.358
139.361
139.362
139.363
139.363
139.362
139.362
139.36
139.357
139.353
139.348
139.341
139.331
139.316
139.292
139.255
139.202
139.131
139.045
138.953
138.869
138.811
138.801
138.859
139.001
139.239
139.573
139.997
140.498
141.054
141.644
142.245
142.834
143.394
143.912
144.378
144.788
145.141
145.436
145.676
145.863
146.002
146.096
146.147
146.161
146.141
146.093
146.022
145.936
145.843
145.751
145.669
145.609
145.562
145.575
139.339
139.348
139.354
139.359
139.361
139.362
139.362
139.362
139.362
139.361
139.36
139.357
139.353
139.347
139.34
139.33
139.316
139.294
139.261
139.212
139.145
139.062
138.97
138.883
138.819
138.801
138.85
138.983
139.213
139.541
139.963
140.463
141.022
141.616
142.22
142.813
143.377
143.898
144.366
144.778
145.132
145.428
145.67
145.859
146
146.095
146.149
146.165
146.146
146.099
146.029
145.943
145.85
145.756
145.673
145.607
145.565
145.557
145.562
145.666
139.355
139.359
139.361
139.362
139.362
139.362
139.361
139.361
139.36
139.357
139.353
139.347
139.339
139.328
139.315
139.295
139.265
139.22
139.158
139.078
138.988
138.898
138.829
138.803
138.841
138.965
139.186
139.509
139.928
140.428
140.989
141.587
142.195
142.793
143.36
143.884
144.355
144.768
145.123
145.421
145.664
145.855
145.997
146.095
146.151
146.168
146.152
146.106
146.037
145.951
145.857
145.762
145.676
145.608
145.564
145.549
145.566
145.619
145.679
145.849
139.362
139.362
139.362
139.361
139.361
139.36
139.359
139.357
139.353
139.347
139.338
139.327
139.313
139.295
139.268
139.228
139.17
139.095
139.006
138.915
138.841
138.806
138.834
138.947
139.159
139.475
139.891
140.392
140.956
141.557
142.171
142.773
143.344
143.87
144.343
144.758
145.115
145.413
145.658
145.85
145.995
146.094
146.152
146.171
146.157
146.113
146.044
145.959
145.864
145.768
145.68
145.609
145.562
145.544
145.56
145.607
145.683
145.785
145.886
146.074
139.362
139.361
139.36
139.36
139.359
139.357
139.353
139.347
139.338
139.326
139.312
139.294
139.27
139.234
139.182
139.111
139.025
138.934
138.854
138.811
138.828
138.929
139.132
139.441
139.854
140.355
140.921
141.528
142.146
142.753
143.328
143.857
144.332
144.748
145.106
145.406
145.651
145.845
145.992
146.093
146.153
146.175
146.162
146.119
146.052
145.967
145.871
145.774
145.684
145.61
145.56
145.54
145.552
145.598
145.673
145.773
145.889
146.012
146.124
146.276
139.359
139.359
139.358
139.357
139.354
139.348
139.338
139.326
139.311
139.293
139.27
139.238
139.192
139.127
139.045
138.954
138.87
138.818
138.823
138.913
139.104
139.406
139.815
140.316
140.886
141.498
142.122
142.733
143.312
143.844
144.321
144.738
145.097
145.398
145.645
145.84
145.989
146.092
146.154
146.178
146.167
146.126
146.06
145.975
145.879
145.78
145.688
145.612
145.559
145.535
145.545
145.589
145.663
145.763
145.88
146.003
146.125
146.234
146.323
146.397
139.357
139.356
139.354
139.348
139.339
139.326
139.31
139.291
139.27
139.241
139.2
139.142
139.065
138.975
138.888
138.827
138.82
138.896
139.076
139.37
139.775
140.277
140.85
141.467
142.097
142.714
143.297
143.832
144.31
144.728
145.087
145.389
145.638
145.835
145.985
146.091
146.155
146.181
146.172
146.132
146.067
145.983
145.887
145.787
145.693
145.614
145.557
145.531
145.538
145.58
145.653
145.753
145.87
145.996
146.119
146.231
146.323
146.385
146.428
146.405
139.354
139.349
139.34
139.327
139.31
139.29
139.268
139.242
139.206
139.155
139.085
138.998
138.908
138.839
138.82
138.881
139.048
139.332
139.733
140.235
140.813
141.437
142.074
142.696
143.283
143.82
144.299
144.718
145.078
145.381
145.63
145.83
145.982
146.09
146.156
146.183
146.176
146.138
146.075
145.991
145.895
145.794
145.698
145.616
145.557
145.527
145.531
145.57
145.643
145.742
145.861
145.988
146.114
146.228
146.322
146.389
146.426
146.426
146.412
146.3
139.342
139.329
139.311
139.289
139.266
139.241
139.21
139.166
139.104
139.022
138.932
138.855
138.822
138.867
139.019
139.293
139.689
140.192
140.775
141.406
142.05
142.678
143.269
143.808
144.288
144.708
145.068
145.372
145.623
145.824
145.978
146.088
146.156
146.186
146.181
146.144
146.082
145.999
145.903
145.802
145.704
145.619
145.556
145.523
145.524
145.561
145.632
145.731
145.851
145.98
146.108
146.224
146.321
146.39
146.428
146.433
146.407
146.347
146.281
146.112
139.313
139.29
139.265
139.239
139.211
139.175
139.121
139.047
138.958
138.874
138.828
138.856
138.99
139.251
139.642
140.146
140.735
141.374
142.027
142.662
143.257
143.798
144.278
144.697
145.058
145.362
145.615
145.818
145.975
146.087
146.157
146.189
146.185
146.15
146.089
146.007
145.911
145.809
145.71
145.622
145.556
145.519
145.516
145.551
145.621
145.72
145.84
145.971
146.102
146.221
146.32
146.391
146.432
146.439
146.413
146.356
146.275
146.171
146.073
145.886
139.266
139.237
139.209
139.178
139.136
139.072
138.988
138.899
138.839
138.847
138.961
139.208
139.591
140.097
140.694
141.343
142.005
142.647
143.246
143.788
144.268
144.687
145.047
145.352
145.606
145.812
145.971
146.086
146.158
146.192
146.189
146.156
146.096
146.015
145.92
145.817
145.716
145.626
145.556
145.515
145.509
145.541
145.609
145.708
145.83
145.963
146.095
146.217
146.319
146.393
146.435
146.443
146.419
146.363
146.282
146.18
146.066
145.942
145.838
145.659
139.207
139.177
139.144
139.095
139.02
138.93
138.856
138.841
138.933
139.161
139.536
140.044
140.65
141.311
141.984
142.634
143.236
143.779
144.258
144.676
145.035
145.342
145.597
145.805
145.967
146.084
146.159
146.194
146.194
146.161
146.103
146.023
145.928
145.826
145.723
145.631
145.558
145.513
145.502
145.531
145.597
145.696
145.819
145.954
146.089
146.214
146.318
146.394
146.438
146.448
146.425
146.37
146.289
146.186
146.07
145.947
145.826
145.702
145.613
145.435
139.145
139.11
139.053
138.969
138.883
138.843
138.905
139.111
139.476
139.986
140.603
141.278
141.965
142.623
143.229
143.772
144.249
144.664
145.023
145.33
145.588
145.799
145.963
146.083
146.16
146.197
146.198
146.167
146.109
146.03
145.936
145.834
145.731
145.636
145.56
145.51
145.496
145.521
145.585
145.684
145.807
145.945
146.083
146.21
146.317
146.395
146.441
146.453
146.43
146.377
146.295
146.193
146.076
145.95
145.824
145.702
145.592
145.473
145.403
145.157
139.08
139.016
138.925
138.856
138.881
139.056
139.407
139.92
140.551
141.246
141.948
142.617
143.226
143.766
144.239
144.651
145.009
145.317
145.578
145.792
145.96
146.083
146.162
146.2
146.202
146.172
146.115
146.037
145.944
145.842
145.739
145.642
145.562
145.509
145.49
145.51
145.572
145.67
145.795
145.935
146.077
146.207
146.316
146.396
146.444
146.457
146.436
146.383
146.303
146.2
146.081
145.954
145.825
145.7
145.582
145.47
145.365
145.223
145.139
144.696
138.991
138.895
138.866
138.996
139.326
139.844
140.495
141.214
141.936
142.615
143.227
143.763
144.23
144.637
144.993
145.303
145.567
145.785
145.957
146.082
146.163
146.203
146.206
146.176
146.12
146.043
145.951
145.85
145.746
145.649
145.566
145.508
145.484
145.5
145.559
145.656
145.783
145.926
146.071
146.204
146.316
146.398
146.447
146.461
146.441
146.39
146.31
146.207
146.088
145.959
145.828
145.699
145.577
145.462
145.351
145.228
145.084
144.853
144.671
143.882
138.887
138.932
139.226
139.753
140.436
141.187
141.933
142.623
143.234
143.764
144.223
144.623
144.977
145.289
145.558
145.781
145.956
146.084
146.166
146.207
146.21
146.181
146.125
146.048
145.956
145.855
145.752
145.653
145.568
145.507
145.479
145.491
145.546
145.643
145.771
145.918
146.067
146.204
146.318
146.402
146.451
146.466
146.447
146.396
146.317
146.214
146.094
145.964
145.831
145.701
145.576
145.459
145.345
145.225
145.08
144.883
144.61
144.201
143.792
142.606
139.016
139.622
140.389
141.197
141.967
142.659
143.26
143.775
144.22
144.613
144.966
145.283
145.559
145.789
145.967
146.095
146.177
146.216
146.219
146.189
146.132
146.054
145.961
145.858
145.753
145.652
145.563
145.497
145.464
145.472
145.527
145.626
145.76
145.914
146.07
146.212
146.329
146.413
146.462
146.476
146.457
146.406
146.326
146.222
146.1
145.968
145.833
145.701
145.576
145.459
145.348
145.234
145.1
144.919
144.658
144.285
143.776
143.104
142.333
140.978
)
;

boundaryField
{
    bottomwall
    {
        type            opaque;
        refValue        uniform 0;
        refGradient     uniform 0;
        valueFraction   uniform 0;
        source          uniform 0;
        value           nonuniform List<scalar> 
60
(
139.006
139.038
139.067
139.094
139.119
139.144
139.173
139.208
139.247
139.29
139.333
139.372
139.401
139.417
139.418
139.403
139.376
139.338
139.294
139.248
139.206
139.169
139.14
139.119
139.107
139.101
139.1
139.103
139.108
139.115
139.123
139.132
139.142
139.154
139.169
139.187
139.209
139.234
139.263
139.295
139.328
139.36
139.391
139.419
139.442
139.459
139.469
139.471
139.465
139.451
139.431