/*--------------------------------*- C++ -*----------------------------------*\
| =========                 |                                                 |
| \\      /  F ield         | OpenFOAM: The Open Source CFD Toolbox           |
|  \\    /   O peration     | Version:  2406                                  |
|   \\  /    A nd           | Website:  www.openfoam.com                      |
|    \\/     M anipulation  |                                                 |
\*---------------------------------------------------------------------------*/
FoamFile
{
    version     2.0;
    format      ascii;
    arch        "LSB;label=32;scalar=64";
    class       volScalarField;
    location    "10000";
    object      ILambda_12_0;
}
// * * * * * * * * * * * * * * * * * * * * * * * * * * * * * * * * * * * * * //

dimensions      [1 0 -3 0 0 0 0];

internalField   nonuniform List<scalar> 
3600
(
140.352
139.516
139.286
139.065
138.982
138.971
139.005
139.055
139.1
139.129
139.141
139.139
139.13
139.121
139.116
139.117
139.124
139.134
139.147
139.16
139.172
139.184
139.194
139.204
139.213
139.223
139.233
139.245
139.258
139.273
139.289
139.304
139.318
139.332
139.344
139.357
139.372
139.39
139.412
139.438
139.467
139.496
139.522
139.542
139.555
139.564
139.574
139.595
139.633
139.691
139.76
139.822
139.853
139.826
139.726
139.551
139.31
139.025
138.734
138.498
141.33
140.229
139.795
139.372
139.12
138.988
138.955
138.981
139.035
139.087
139.125
139.142
139.143
139.134
139.123
139.115
139.113
139.117
139.127
139.139
139.153
139.166
139.178
139.189
139.198
139.207
139.216
139.225
139.236
139.249
139.264
139.279
139.295
139.31
139.324
139.336
139.348
139.36
139.375
139.395
139.42
139.449
139.481
139.511
139.535
139.55
139.556
139.558
139.567
139.594
139.647
139.726
139.813
139.882
139.9
139.844
139.705
139.488
139.196
138.825
141.985
140.836
140.297
139.751
139.367
139.118
138.992
138.961
138.987
139.039
139.09
139.126
139.142
139.143
139.134
139.123
139.116
139.114
139.119
139.129
139.141
139.154
139.167
139.179
139.19
139.2
139.209
139.218
139.228
139.239
139.251
139.266
139.281
139.297
139.312
139.326
139.339
139.351
139.364
139.379
139.399
139.423
139.452
139.483
139.513
139.538
139.555
139.563
139.566
139.575
139.599
139.647
139.719
139.799
139.86
139.87
139.805
139.664
139.463
139.224
142.717
141.562
140.934
140.273
139.75
139.361
139.114
138.99
138.961
138.989
139.042
139.093
139.128
139.143
139.142
139.133
139.122
139.115
139.114
139.119
139.128
139.141
139.154
139.167
139.179
139.19
139.199
139.208
139.217
139.227
139.238
139.251
139.265
139.281
139.297
139.312
139.326
139.338
139.35
139.363
139.378
139.398
139.422
139.451
139.483
139.513
139.538
139.554
139.562
139.565
139.573
139.597
139.646
139.721
139.806
139.873
139.885
139.816
139.66
139.44
143.392
142.314
141.647
140.913
140.273
139.745
139.357
139.111
138.989
138.961
138.991
139.044
139.095
139.13
139.144
139.142
139.132
139.121
139.114
139.113
139.119
139.128
139.141
139.154
139.167
139.179
139.19
139.2
139.209
139.217
139.227
139.238
139.251
139.265
139.281
139.297
139.312
139.326
139.339
139.351
139.363
139.378
139.397
139.422
139.451
139.483
139.514
139.539
139.556
139.563
139.565
139.571
139.593
139.641
139.716
139.803
139.874
139.892
139.826
139.669
143.987
143.044
142.388
141.632
140.913
140.268
139.74
139.352
139.108
138.988
138.962
138.993
139.047
139.098
139.131
139.145
139.142
139.132
139.121
139.114
139.113
139.119
139.129
139.141
139.154
139.167
139.179
139.19
139.2
139.209
139.217
139.227
139.238
139.251
139.265
139.281
139.297
139.312
139.326
139.339
139.351
139.363
139.378
139.397
139.421
139.45
139.482
139.514
139.54
139.557
139.565
139.566
139.571
139.591
139.638
139.712
139.802
139.877
139.898
139.835
144.475
143.703
143.105
142.379
141.634
140.91
140.264
139.735
139.348
139.104
138.987
138.963
138.995
139.05
139.1
139.133
139.145
139.142
139.131
139.12
139.113
139.113
139.118
139.129
139.141
139.154
139.167
139.179
139.19
139.2
139.209
139.217
139.227
139.238
139.25
139.265
139.281
139.297
139.313
139.327
139.339
139.351
139.363
139.378
139.397
139.421
139.45
139.482
139.514
139.541
139.558
139.566
139.567
139.57
139.588
139.633
139.708
139.801
139.881
139.913
144.851
144.257
143.75
143.1
142.382
141.633
140.908
140.259
139.73
139.343
139.101
138.986
138.964
138.998
139.052
139.102
139.135
139.146
139.142
139.131
139.119
139.113
139.113
139.118
139.129
139.141
139.154
139.167
139.179
139.19
139.2
139.209
139.217
139.227
139.238
139.25
139.265
139.281
139.297
139.313
139.327
139.339
139.351
139.363
139.377
139.396
139.42
139.45
139.482
139.514
139.541
139.56
139.567
139.568
139.569
139.586
139.629
139.704
139.8
139.89
145.124
144.691
144.292
143.749
143.105
142.384
141.632
140.905
140.254
139.724
139.338
139.098
138.985
138.965
139
139.055
139.105
139.136
139.147
139.142
139.13
139.119
139.112
139.112
139.118
139.129
139.141
139.155
139.167
139.179
139.19
139.2
139.209
139.217
139.227
139.237
139.25
139.265
139.281
139.297
139.313
139.327
139.339
139.351
139.363
139.377
139.396
139.42
139.449
139.482
139.514
139.542
139.561
139.569
139.569
139.569
139.584
139.626
139.701
139.802
145.316
145.009
144.717
144.292
143.754
143.108
142.386
141.632
140.902
140.25
139.719
139.334
139.095
138.984
138.966
139.002
139.058
139.107
139.138
139.147
139.142
139.13
139.118
139.112
139.112
139.118
139.129
139.141
139.155
139.168
139.18
139.19
139.2
139.209
139.217
139.227
139.237
139.25
139.265
139.281
139.297
139.313
139.327
139.34
139.351
139.363
139.377
139.396
139.42
139.449
139.482
139.514
139.543
139.562
139.57
139.57
139.569
139.581
139.622
139.698
145.451
145.23
145.028
144.716
144.297
143.758
143.112
142.388
141.631
140.899
140.245
139.713
139.329
139.092
138.983
138.967
139.005
139.061
139.11
139.139
139.148
139.142
139.129
139.117
139.111
139.112
139.118
139.129
139.141
139.155
139.168
139.18
139.19
139.2
139.209
139.217
139.226
139.237
139.25
139.265
139.281
139.298
139.313
139.327
139.34
139.351
139.363
139.377
139.395
139.419
139.448
139.481
139.515
139.543
139.563
139.572
139.571
139.569
139.579
139.616
145.557
145.382
145.246
145.026
144.72
144.301
143.763
143.116
142.39
141.631
140.896
140.24
139.708
139.324
139.088
138.982
138.968
139.007
139.064
139.112
139.141
139.149
139.141
139.128
139.117
139.111
139.112
139.118
139.129
139.142
139.155
139.168
139.18
139.191
139.2
139.209
139.217
139.226
139.237
139.25
139.265
139.281
139.298
139.313
139.328
139.34
139.351
139.363
139.377
139.395
139.419
139.448
139.481
139.515
139.544
139.565
139.573
139.572
139.568
139.574
145.654
145.492
145.396
145.242
145.029
144.723
144.306
143.768
143.12
142.392
141.63
140.893
140.235
139.702
139.319
139.085
138.981
138.969
139.01
139.067
139.115
139.143
139.149
139.141
139.128
139.116
139.11
139.111
139.118
139.129
139.142
139.155
139.168
139.18
139.191
139.2
139.209
139.217
139.226
139.237
139.25
139.265
139.281
139.298
139.314
139.328
139.34
139.351
139.363
139.377
139.395
139.418
139.448
139.481
139.515
139.545
139.566
139.575
139.573
139.566
145.753
145.587
145.507
145.391
145.243
145.03
144.727
144.31
143.773
143.124
142.394
141.63
140.89
140.23
139.697
139.314
139.082
138.98
138.97
139.012
139.07
139.117
139.144
139.149
139.141
139.127
139.115
139.11
139.111
139.118
139.129
139.142
139.155
139.168
139.18
139.191
139.2
139.209
139.217
139.226
139.237
139.249
139.264
139.281
139.298
139.314
139.328
139.34
139.351
139.363
139.376
139.394
139.418
139.447
139.48
139.515
139.545
139.567
139.576
139.574
145.862
145.683
145.602
145.501
145.391
145.243
145.032
144.73
144.315
143.778
143.128
142.396
141.63
140.887
140.225
139.691
139.309
139.079
138.979
138.972
139.015
139.073
139.12
139.146
139.15
139.14
139.126
139.115
139.109
139.111
139.118
139.129
139.142
139.155
139.168
139.18
139.191
139.2
139.209
139.217
139.226
139.237
139.249
139.264
139.281
139.298
139.314
139.328
139.34
139.351
139.363
139.376
139.394
139.418
139.447
139.48
139.514
139.545
139.568
139.578
145.977
145.789
145.698
145.596
145.5
145.389
145.243
145.034
144.733
144.319
143.783
143.132
142.398
141.629
140.883
140.22
139.685
139.303
139.075
138.978
138.973
139.018
139.076
139.123
139.147
139.15
139.14
139.126
139.114
139.109
139.111
139.118
139.129
139.142
139.155
139.168
139.18
139.191
139.2
139.209
139.217
139.226
139.236
139.249
139.264
139.281
139.298
139.314
139.328
139.341
139.351
139.363
139.376
139.394
139.417
139.446
139.48
139.514
139.546
139.57
146.095
145.905
145.804
145.693
145.595
145.498
145.388
145.243
145.036
144.737
144.324
143.788
143.137
142.401
141.629
140.88
140.214
139.679
139.298
139.072
138.977
138.975
139.021
139.079
139.125
139.148
139.151
139.14
139.125
139.113
139.109
139.111
139.118
139.129
139.142
139.155
139.168
139.18
139.191
139.201
139.209
139.217
139.226
139.236
139.249
139.264
139.281
139.298
139.314
139.329
139.341
139.352
139.363
139.376
139.394
139.417
139.446
139.479
139.514
139.547
146.207
146.028
145.919
145.8
145.692
145.593
145.496
145.387
145.243
145.037
144.74
144.329
143.793
143.141
142.403
141.628
140.877
140.209
139.672
139.293
139.069
138.977
138.976
139.024
139.083
139.128
139.15
139.151
139.139
139.124
139.113
139.108
139.111
139.119
139.129
139.142
139.155
139.168
139.18
139.191
139.201
139.209
139.217
139.226
139.236
139.249
139.264
139.281
139.298
139.315
139.329
139.341
139.352
139.362
139.376
139.393
139.417
139.446
139.479
139.515
146.306
146.15
146.039
145.916
145.799
145.69
145.591
145.494
145.385
145.243
145.039
144.743
144.333
143.798
143.145
142.405
141.628
140.873
140.203
139.666
139.287
139.066
138.976
138.978
139.027
139.086
139.13
139.151
139.151
139.138
139.123
139.112
139.108
139.111
139.119
139.13
139.142
139.155
139.168
139.18
139.191
139.201
139.209
139.217
139.226
139.236
139.249
139.264
139.281
139.298
139.315
139.329
139.341
139.352
139.362
139.376
139.393
139.416
139.445
139.479
146.383
146.262
146.157
146.038
145.915
145.798
145.689
145.589
145.492
145.384
145.243
145.04
144.747
144.338
143.803
143.15
142.408
141.627
140.87
140.198
139.66
139.282
139.062
138.975
138.98
139.03
139.089
139.133
139.152
139.151
139.138
139.122
139.111
139.108
139.111
139.119
139.13
139.142
139.155
139.168
139.18
139.191
139.201
139.209
139.217
139.226
139.236
139.248
139.264
139.281
139.299
139.315
139.329
139.341
139.352
139.362
139.375
139.393
139.416
139.445
146.432
146.356
146.265
146.157
146.037
145.915
145.796
145.687
145.587
145.49
145.383
145.243
145.042
144.75
144.343
143.809
143.155
142.411
141.627
140.867
140.192
139.653
139.276
139.059
138.975
138.982
139.034
139.093
139.135
139.154
139.151
139.137
139.122
139.111
139.107
139.111
139.119
139.13
139.142
139.155
139.168
139.18
139.191
139.201
139.209
139.217
139.225
139.235
139.248
139.264
139.281
139.299
139.315
139.33
139.342
139.352
139.362
139.375
139.392
139.415
146.45
146.425
146.354
146.266
146.157
146.037
145.914
145.795
145.685
145.585
145.488
145.381
145.242
145.043
144.754
144.348
143.814
143.159
142.413
141.627
140.863
140.186
139.646
139.27
139.055
138.974
138.984
139.037
139.096
139.138
139.155
139.151
139.136
139.121
139.11
139.107
139.111
139.119
139.13
139.142
139.155
139.168
139.18
139.192
139.201
139.209
139.217
139.225
139.235
139.248
139.263
139.281
139.299
139.316
139.33
139.342
139.352
139.362
139.375
139.392
146.433
146.464
146.419
146.357
146.266
146.157
146.037
145.914
145.794
145.684
145.583
145.486
145.38
145.242
145.045
144.757
144.353
143.82
143.164
142.416
141.626
140.859
140.18
139.64
139.265
139.052
138.974
138.986
139.04
139.1
139.141
139.156
139.151
139.136
139.12
139.11
139.107
139.111
139.119
139.13
139.142
139.155
139.168
139.181
139.192
139.201
139.21
139.217
139.225
139.235
139.248
139.263
139.281
139.299
139.316
139.33
139.342
139.352
139.362
139.374
146.382
146.469
146.453
146.423
146.357
146.266
146.157
146.037
145.913
145.793
145.682
145.581
145.484
145.378
145.242
145.046
144.76
144.358
143.826
143.169
142.419
141.626
140.856
140.174
139.633
139.259
139.049
138.974
138.988
139.044
139.103
139.143
139.157
139.151
139.135
139.119
139.109
139.107
139.111
139.119
139.13
139.142
139.155
139.168
139.181
139.192
139.202
139.21
139.217
139.225
139.235
139.248
139.263
139.281
139.299
139.316
139.33
139.342
139.352
139.362
146.298
146.436
146.454
146.458
146.422
146.357
146.267
146.157
146.037
145.912
145.792
145.68
145.579
145.482
145.377
145.241
145.047
144.764
144.363
143.831
143.174
142.422
141.626
140.852
140.168
139.626
139.253
139.045
138.973
138.99
139.048
139.107
139.146
139.158
139.151
139.134
139.118
139.108
139.106
139.111
139.119
139.13
139.142
139.155
139.168
139.181
139.192
139.202
139.21
139.217
139.225
139.235
139.247
139.263
139.281
139.299
139.316
139.331
139.342
139.352
146.187
146.368
146.419
146.459
146.457
146.423
146.357
146.267
146.157
146.036
145.912
145.791
145.679
145.577
145.48
145.375
145.241
145.049
144.767
144.368
143.837
143.18
142.425
141.625
140.848
140.161
139.618
139.246
139.042
138.973
138.993
139.052
139.111
139.148
139.159
139.15
139.133
139.117
139.108
139.106
139.111
139.119
139.13
139.142
139.155
139.168
139.181
139.192
139.202
139.21
139.217
139.225
139.234
139.247
139.263
139.281
139.299
139.317
139.331
139.342
146.058
146.268
146.35
146.424
146.459
146.458
146.423
146.358
146.267
146.157
146.036
145.911
145.79
145.677
145.575
145.478
145.373
145.24
145.05
144.77
144.373
143.843
143.185
142.428
141.625
140.844
140.155
139.611
139.24
139.039
138.973
138.996
139.056
139.114
139.151
139.16
139.15
139.132
139.116
139.107
139.106
139.111
139.119
139.13
139.142
139.155
139.168
139.181
139.192
139.202
139.21
139.217
139.225
139.234
139.247
139.263
139.281
139.299
139.317
139.331
145.92
146.141
146.249
146.354
146.424
146.459
146.459
146.424
146.358
146.267
146.157
146.036
145.911
145.789
145.676
145.573
145.475
145.372
145.24
145.051
144.774
144.379
143.85
143.191
142.431
141.625
140.84
140.148
139.603
139.234
139.035
138.973
138.998
139.06
139.118
139.153
139.161
139.15
139.131
139.116
139.107
139.106
139.111
139.12
139.13
139.142
139.155
139.168
139.181
139.192
139.202
139.21
139.217
139.225
139.234
139.247
139.263
139.281
139.3
139.317
145.785
146
146.125
146.253
146.355
146.425
146.46
146.459
146.424
146.358
146.267
146.158
146.036
145.91
145.788
145.674
145.571
145.473
145.37
145.239
145.052
144.777
144.384
143.856
143.196
142.434
141.624
140.836
140.141
139.595
139.227
139.032
138.973
139.001
139.064
139.122
139.155
139.161
139.149
139.13
139.115
139.107
139.106
139.111
139.12
139.13
139.142
139.155
139.168
139.181
139.193
139.202
139.21
139.217
139.224
139.234
139.246
139.262
139.281
139.3
145.667
145.854
145.986
146.128
146.254
146.355
146.425
146.46
146.459
146.424
146.359
146.268
146.158
146.036
145.91
145.787
145.673
145.569
145.471
145.368
145.238
145.053
144.78
144.389
143.862
143.202
142.438
141.624
140.832
140.134
139.587
139.221
139.028
138.974
139.005
139.068
139.126
139.158
139.162
139.148
139.129
139.114
139.106
139.106
139.111
139.12
139.13
139.142
139.155
139.168
139.181
139.193
139.203
139.21
139.217
139.224
139.234
139.246
139.262
139.281
145.575
145.718
145.845
145.988
146.128
146.254
146.356
146.426
146.461
146.46
146.425
146.359
146.268
146.158
146.036
145.909
145.786
145.671
145.567
145.469
145.366
145.237
145.054
144.784
144.395
143.869
143.208
142.442
141.624
140.828
140.126
139.579
139.214
139.025
138.974
139.008
139.073
139.13
139.16
139.162
139.148
139.128
139.113
139.106
139.106
139.111
139.12
139.13
139.142
139.155
139.168
139.181
139.193
139.203
139.211
139.217
139.224
139.233
139.246
139.262
145.517
145.605
145.714
145.845
145.988
146.129
146.255
146.357
146.427
146.462
146.46
146.425
146.359
146.268
146.158
146.036
145.909
145.785
145.67
145.565
145.467
145.364
145.236
145.055
144.787
144.4
143.875
143.214
142.445
141.624
140.823
140.119
139.571
139.207
139.022
138.975
139.012
139.078
139.134
139.162
139.163
139.147
139.127
139.112
139.105
139.106
139.112
139.12
139.13
139.142
139.155
139.168
139.181
139.193
139.203
139.211
139.217
139.224
139.233
139.245
145.498
145.524
145.606
145.712
145.845
145.988
146.129
146.256
146.358
146.428
146.462
146.461
146.425
146.359
146.268
146.158
146.035
145.908
145.784
145.668
145.563
145.464
145.362
145.235
145.056
144.79
144.405
143.882
143.221
142.449
141.624
140.819
140.111
139.562
139.2
139.018
138.976
139.015
139.082
139.138
139.164
139.163
139.146
139.126
139.111
139.105
139.106
139.112
139.12
139.13
139.142
139.155
139.168
139.181
139.193
139.203
139.211
139.217
139.224
139.232
145.517
145.483
145.53
145.603
145.712
145.845
145.989
146.13
146.257
146.358
146.428
146.463
146.461
146.426
146.36
146.269
146.158
146.035
145.908
145.783
145.667
145.561
145.462
145.36
145.234
145.057
144.793
144.411
143.889
143.227
142.453
141.624
140.814
140.103
139.553
139.193
139.015
138.977
139.019
139.087
139.142
139.166
139.163
139.145
139.125
139.111
139.105
139.106
139.112
139.12
139.13
139.142
139.155
139.168
139.181
139.194
139.203
139.211
139.217
139.223
145.57
145.483
145.492
145.526
145.602
145.711
145.845
145.989
146.131
146.257
146.359
146.429
146.463
146.462
146.426
146.36
146.269
146.158
146.035
145.908
145.782
145.665
145.559
145.46
145.358
145.233
145.057
144.796
144.416
143.896
143.234
142.458
141.624
140.809
140.095
139.544
139.186
139.012
138.978
139.024
139.093
139.146
139.168
139.163
139.144
139.124
139.11
139.105
139.106
139.112
139.121
139.13
139.142
139.154
139.168
139.182
139.194
139.204
139.211
139.217
145.649
145.521
145.495
145.488
145.525
145.601
145.711
145.844
145.989
146.131
146.258
146.36
146.43
146.464
146.462
146.426
146.36
146.269
146.158
146.035
145.907
145.781
145.664
145.557
145.457
145.356
145.232
145.058
144.799
144.422
143.903
143.241
142.462
141.624
140.805
140.086
139.534
139.179
139.009
138.979
139.028
139.098
139.15
139.17
139.163
139.143
139.123
139.109
139.105
139.106
139.112
139.121
139.13
139.142
139.154
139.168
139.182
139.194
139.204
139.211
145.745
145.59
145.534
145.491
145.488
145.524
145.6
145.71
145.844
145.989
146.132
146.259
146.361
146.43
146.464
146.462
146.427
146.361
146.269
146.158
146.035
145.907
145.781
145.662
145.555
145.455
145.353
145.231
145.058
144.802
144.428
143.91
143.248
142.467
141.624
140.8
140.078
139.524
139.171
139.005
138.981
139.033
139.103
139.154
139.172
139.163
139.142
139.122
139.109
139.104
139.107
139.113
139.121
139.13
139.142
139.154
139.168
139.182
139.194
139.204
145.848
145.682
145.604
145.531
145.49
145.486
145.523
145.599
145.71
145.844
145.989
146.132
146.26
146.362
146.431
146.465
146.463
146.427
146.361
146.269
146.158
146.035
145.906
145.78
145.661
145.553
145.453
145.351
145.229
145.059
144.805
144.433
143.918
143.255
142.472
141.624
140.795
140.069
139.514
139.163
139.002
138.982
139.038
139.109
139.158
139.173
139.162
139.141
139.121
139.108
139.104
139.107
139.113
139.121
139.13
139.141
139.154
139.168
139.182
139.195
145.95
145.787
145.696
145.601
145.531
145.489
145.485
145.522
145.598
145.709
145.844
145.99
146.133
146.261
146.362
146.432
146.465
146.463
146.427
146.361
146.27
146.159
146.035
145.906
145.779
145.66
145.551
145.45
145.349
145.227
145.059
144.808
144.439
143.926
143.263
142.477
141.625
140.789
140.059
139.504
139.155
138.999
138.985
139.043
139.115
139.162
139.174
139.162
139.139
139.119
139.108
139.104
139.107
139.113
139.121
139.13
139.141
139.154
139.168
139.182
146.044
145.896
145.799
145.694
145.602
145.53
145.489
145.484
145.52
145.597
145.708
145.844
145.99
146.134
146.261
146.363
146.432
146.466
146.464
146.428
146.361
146.27
146.159
146.035
145.906
145.778
145.658
145.549
145.448
145.346
145.226
145.059
144.81
144.444
143.933
143.271
142.482
141.625
140.784
140.049
139.493
139.147
138.996
138.987
139.049
139.12
139.165
139.175
139.161
139.138
139.118
139.107
139.104
139.107
139.113
139.121
139.13
139.141
139.154
139.168
146.121
145.999
145.904
145.798
145.694
145.601
145.53
145.488
145.483
145.519
145.596
145.707
145.843
145.99
146.134
146.262
146.364
146.433
146.466
146.464
146.428
146.362
146.27
146.159
146.035
145.905
145.778
145.657
145.547
145.446
145.344
145.224
145.059
144.813
144.45
143.941
143.279
142.488
141.626
140.779
140.039
139.482
139.139
138.994
138.99
139.055
139.126
139.169
139.176
139.16
139.137
139.117
139.107
139.104
139.107
139.113
139.121
139.13
139.141
139.154
146.176
146.09
146.004
145.904
145.798
145.694
145.601
145.529
145.487
145.482
145.518
145.595
145.707
145.843
145.991
146.135
146.263
146.365
146.434
146.467
146.464
146.428
146.362
146.27
146.159
146.035
145.905
145.777
145.656
145.545
145.443
145.341
145.222
145.059
144.815
144.456
143.949
143.288
142.494
141.626
140.773
140.029
139.47
139.13
138.991
138.993
139.061
139.132
139.173
139.177
139.159
139.135
139.117
139.106
139.104
139.107
139.114
139.121
139.13
139.141
146.204
146.163
146.09
146.005
145.904
145.798
145.694
145.601
145.529
145.486
145.481
145.517
145.594
145.706
145.843
145.991
146.136
146.264
146.366
146.434
146.467
146.465
146.429
146.362
146.27
146.159
146.035
145.905
145.776
145.655
145.544
145.441
145.339
145.22
145.058
144.818
144.461
143.958
143.297
142.5
141.627
140.767
140.018
139.458
139.121
138.989
138.997
139.068
139.139
139.176
139.177
139.158
139.134
139.116
139.106
139.104
139.108
139.114
139.122
139.13
146.2
146.211
146.157
146.092
146.004
145.905
145.798
145.694
145.601
145.528
145.485
145.479
145.515
145.593
145.705
145.843
145.991
146.136
146.265
146.366
146.435
146.468
146.465
146.429
146.363
146.271
146.159
146.035
145.904
145.775
145.654
145.542
145.439
145.337
145.218
145.058
144.82
144.467
143.966
143.306
142.507
141.628
140.761
140.006
139.445
139.112
138.986
139.001
139.075
139.145
139.179
139.178
139.157
139.133
139.115
139.106
139.104
139.108
139.114
139.121
146.158
146.231
146.199
146.161
146.091
146.005
145.905
145.799
145.694
145.601
145.528
145.484
145.478
145.514
145.592
145.705
145.843
145.992
146.137
146.266
146.367
146.436
146.468
146.466
146.429
146.363
146.271
146.159
146.035
145.904
145.775
145.652
145.54
145.437
145.334
145.216
145.057
144.822
144.472
143.974
143.315
142.514
141.63
140.755
139.994
139.432
139.103
138.984
139.006
139.083
139.151
139.182
139.177
139.156
139.132
139.114
139.105
139.104
139.108
139.115
146.074
146.215
146.212
146.205
146.159
146.092
146.005
145.905
145.799
145.695
145.601
145.527
145.483
145.477
145.513
145.59
145.704
145.843
145.992
146.138
146.267
146.368
146.436
146.469
146.466
146.429
146.363
146.271
146.159
146.034
145.904
145.774
145.651
145.539
145.434
145.332
145.214
145.056
144.824
144.477
143.983
143.325
142.522
141.631
140.749
139.982
139.418
139.094
138.983
139.011
139.091
139.157
139.184
139.177
139.154
139.131
139.114
139.105
139.104
139.109
145.944
146.16
146.19
146.219
146.203
146.16
146.092
146.005
145.905
145.799
145.695
145.601
145.527
145.482
145.476
145.511
145.589
145.703
145.842
145.993
146.139
146.267
146.369
146.437
146.469
146.466
146.43
146.363
146.271
146.16
146.034
145.903
145.773
145.65
145.537
145.432
145.329
145.212
145.055
144.825
144.483
143.992
143.336
142.53
141.633
140.742
139.968
139.403
139.084
138.982
139.017
139.1
139.164
139.186
139.176
139.153
139.13
139.113
139.104
139.104
145.766
146.059
146.128
146.199
146.217
146.204
146.16
146.092
146.005
145.906
145.8
145.695
145.601
145.526
145.481
145.474
145.51
145.588
145.702
145.842
145.993
146.139
146.268
146.37
146.437
146.47
146.466
146.43
146.364
146.272
146.16
146.034
145.903
145.773
145.649
145.535
145.43
145.327
145.209
145.054
144.827
144.488
144.001
143.346
142.539
141.635
140.735
139.954
139.387
139.074
138.981
139.024
139.109
139.169
139.187
139.175
139.152
139.13
139.112
139.103
145.54
145.91
146.021
146.139
146.197
146.218
146.203
146.16
146.092
146.005
145.906
145.8
145.695
145.6
145.526
145.48
145.473
145.509
145.587
145.702
145.842
145.993
146.14
146.269
146.37
146.438
146.47
146.467
146.43
146.364
146.272
146.16
146.034
145.903
145.772
145.648
145.534
145.428
145.324
145.207
145.053
144.828
144.493
144.01
143.358
142.548
141.638
140.728
139.939
139.371
139.063
138.981
139.033
139.118
139.175
139.188
139.174
139.152
139.129
139.11
145.267
145.712
145.866
146.033
146.136
146.197
146.218
146.203
146.16
146.092
146.006
145.906
145.8
145.695
145.6
145.525
145.48
145.472
145.507
145.586
145.701
145.842
145.994
146.141
146.27
146.371
146.439
146.47
146.467
146.431
146.364
146.272
146.16
146.034
145.902
145.771
145.647
145.532
145.426
145.322
145.205
145.051
144.828
144.497
144.019
143.369
142.558
141.641
140.721
139.923
139.353
139.053
138.982
139.042
139.128
139.18
139.188
139.173
139.151
139.128
144.951
145.465
145.661
145.88
146.031
146.137
146.197
146.218
146.203
146.16
146.092
146.006
145.906
145.8
145.696
145.6
145.525
145.479
145.47
145.506
145.584
145.7
145.842
145.994
146.142
146.271
146.372
146.439
146.471
146.467
146.431
146.365
146.273
146.16
146.034
145.902
145.77
145.646
145.531
145.424
145.319
145.202
145.049
144.829
144.502
144.028
143.382
142.569
141.645
140.713
139.905
139.334
139.042
138.984
139.053
139.138
139.183
139.187
139.172
139.151
144.593
145.175
145.407
145.676
145.877
146.032
146.137
146.197
146.218
146.203
146.16
146.092
146.006
145.907
145.801
145.696
145.6
145.524
145.478
145.469
145.504
145.583
145.699
145.842
145.995
146.143
146.272
146.373
146.44
146.471
146.468
146.431
146.365
146.273
146.16
146.034
145.901
145.77
145.645
145.53
145.423
145.317
145.2
145.047
144.829
144.506
144.037
143.394
142.581
141.65
140.706
139.887
139.313
139.031
138.988
139.066
139.149
139.185
139.185
139.173
144.19
144.845
145.109
145.424
145.672
145.879
146.033
146.138
146.197
146.218
146.203
146.16
146.092
146.006
145.907
145.801
145.696
145.6
145.524
145.477
145.468
145.503
145.582
145.699
145.842
145.996
146.144
146.273
146.374
146.44
146.471
146.468
146.432
146.365
146.273
146.16
146.034
145.901
145.769
145.644
145.528
145.421
145.315
145.197
145.046
144.829
144.509
144.045
143.408
142.595
141.656
140.698
139.866
139.29
139.019
138.994
139.08
139.158
139.186
139.184
143.736
144.476
144.769
145.128
145.419
145.674
145.879
146.033
146.138
146.197
146.217
146.203
146.16
146.093
146.006
145.907
145.801
145.696
145.601
145.524
145.476
145.466
145.501
145.58
145.698
145.842
145.996
146.145
146.274
146.374
146.441
146.472
146.468
146.432
146.366
146.273
146.161
146.034
145.9
145.768
145.643
145.527
145.419
145.313
145.195
145.044
144.828
144.512
144.054
143.421
142.61
141.663
140.69
139.843
139.264
139.008
139.003
139.098
139.167
139.183
143.221
144.064
144.389
144.79
145.121
145.421
145.675
145.88
146.034
146.138
146.197
146.217
146.203
146.16
146.093
146.006
145.907
145.802
145.697
145.601
145.523
145.475
145.465
145.499
145.579
145.697
145.842
145.997
146.146
146.275
146.375
146.441
146.472
146.468
146.432
146.366
146.274
146.161
146.034
145.9
145.768
145.642
145.525
145.417
145.311
145.193
145.042
144.828
144.514
144.061
143.435
142.626
141.672
140.682
139.817
139.235
138.997
139.017
139.118
139.171
142.634
143.596
143.966
144.412
144.783
145.122
145.421
145.676
145.881
146.034
146.138
146.197
146.217
146.203
146.16
146.093
146.006
145.907
145.802
145.697
145.601
145.523
145.474
145.464
145.498
145.577
145.696
145.842
145.997
146.147
146.276
146.376
146.442
146.472
146.469
146.433
146.366
146.274
146.161
146.033
145.9
145.767
145.641
145.524
145.416
145.309
145.191
145.04
144.827
144.516
144.068
143.45
142.644
141.684
140.674
139.787
139.201
138.988
139.039
139.141
141.971
143.056
143.492
143.99
144.405
144.782
145.121
145.421
145.676
145.882
146.035
146.138
146.197
146.217
146.204
146.16
146.093
146.007
145.908
145.802
145.697
145.601
145.523
145.473
145.462
145.496
145.576
145.695
145.842
145.998
146.148
146.277
146.377
146.442
146.473
146.469
146.433
146.367
146.275
146.161
146.033
145.899
145.766
145.64
145.523
145.414
145.307
145.189
145.038
144.825
144.516
144.074
143.464
142.665
141.7
140.667
139.75
139.159
138.983
139.079
141.247
142.425
142.954
143.514
143.986
144.405
144.781
145.12
145.421
145.678
145.883
146.035
146.138
146.197
146.218
146.204
146.161
146.093
146.007
145.908
145.803
145.698
145.601
145.522
145.472
145.461
145.494
145.574
145.694
145.841
145.999
146.149
146.278
146.377
146.443
146.473
146.469
146.433
146.368
146.275
146.161
146.033
145.899
145.766
145.639
145.521
145.412
145.305
145.187
145.037
144.824
144.516
144.078
143.477
142.689
141.723
140.663
139.705
139.105
138.999
140.507
141.693
142.341
142.971
143.514
143.987
144.404
144.78
145.12
145.422
145.679
145.884
146.036
146.139
146.198
146.219
146.205
146.161
146.094
146.007
145.909
145.803
145.698
145.601
145.522
145.471
145.459
145.492
145.572
145.693
145.841
145.999
146.15
146.279
146.378
146.443
146.474
146.47
146.434
146.369
146.276
146.162
146.033
145.899
145.765
145.638
145.52
145.41
145.303
145.186
145.036
144.824
144.516
144.081
143.49
142.717
141.757
140.669
139.644
139.023
139.826
140.87
141.647
142.355
142.979
143.521
143.991
144.406
144.781
145.122
145.426
145.684
145.889
146.041
146.143
146.202
146.222
146.207
146.164
146.096
146.009
145.91
145.804
145.699
145.601
145.521
145.468
145.454
145.487
145.567
145.689
145.839
145.999
146.151
146.282
146.381
146.446
146.476
146.473
146.437
146.371
146.279
146.164
146.034
145.899
145.765
145.637
145.518
145.407
145.3
145.184
145.038
144.828
144.522
144.088
143.505
142.754
141.82
140.71
139.493
)
;

boundaryField
{
    bottomwall
    {
        type            opaque;
        refValue        uniform 0;
        refGradient     uniform 0;
        valueFraction   uniform 0;
        source          uniform 0;
        value           nonuniform List<scalar> 
60
(
140.352
139.516
139.286
139.065
138.982
138.971
139.005
139.055
139.1
139.129
139.141
139.139
139.13
139.121
139.116
139.117
139.124
139.134
139.147
139.16
139.172
139.184
139.194
139.204
139.213
139.223
139.233
139.245
139.258
139.273
139.289
139.304
139.318
139.332
139.344
139.357
139.372
139.39
139.412
139.438
139.467
139.496
139.522
139.542
139.555
139.564
139.574
139.595
139.633
139.691
139.76
139.822
139.853
139.826
139.726
139.551
139.31