/*--------------------------------*- C++ -*----------------------------------*\
| =========                 |                                                 |
| \\      /  F ield         | OpenFOAM: The Open Source CFD Toolbox           |
|  \\    /   O peration     | Version:  2406                                  |
|   \\  /    A nd           | Website:  www.openfoam.com                      |
|    \\/     M anipulation  |                                                 |
\*---------------------------------------------------------------------------*/
FoamFile
{
    version     2.0;
    format      ascii;
    arch        "LSB;label=32;scalar=64";
    class       volScalarField;
    location    "10000";
    object      ILambda_5_0;
}
// * * * * * * * * * * * * * * * * * * * * * * * * * * * * * * * * * * * * * //

dimensions      [1 0 -3 0 0 0 0];

internalField   nonuniform List<scalar> 
3600
(
138.995
139.005
139.015
139.025
139.035
139.044
139.054
139.063
139.072
139.08
139.088
139.096
139.104
139.111
139.119
139.126
139.134
139.142
139.15
139.159
139.168
139.177
139.188
139.199
139.21
139.222
139.235
139.248
139.262
139.276
139.29
139.304
139.318
139.332
139.346
139.359
139.371
139.382
139.392
139.401
139.409
139.415
139.419
139.423
139.424
139.424
139.422
139.419
139.414
139.408
139.4
139.391
139.381
139.37
139.358
139.345
139.331
139.317
139.304
139.281
139.094
139.104
139.113
139.121
139.129
139.137
139.143
139.15
139.157
139.163
139.17
139.177
139.185
139.193
139.202
139.212
139.223
139.235
139.247
139.261
139.275
139.29
139.305
139.32
139.336
139.351
139.367
139.381
139.395
139.408
139.419
139.43
139.438
139.445
139.45
139.454
139.455
139.454
139.451
139.446
139.439
139.43
139.42
139.408
139.394
139.38
139.364
139.347
139.33
139.312
139.294
139.276
139.258
139.241
139.224
139.207
139.192
139.177
139.164
139.145
139.143
139.149
139.154
139.16
139.166
139.172
139.178
139.186
139.194
139.204
139.214
139.226
139.238
139.251
139.266
139.281
139.296
139.312
139.328
139.344
139.359
139.374
139.388
139.402
139.413
139.424
139.433
139.439
139.444
139.447
139.448
139.447
139.444
139.439
139.432
139.423
139.412
139.4
139.386
139.371
139.356
139.339
139.322
139.305
139.287
139.27
139.252
139.236
139.219
139.204
139.189
139.175
139.162
139.151
139.14
139.131
139.122
139.115
139.109
139.102
139.18
139.187
139.195
139.204
139.214
139.225
139.238
139.251
139.265
139.281
139.297
139.313
139.329
139.346
139.362
139.378
139.393
139.407
139.419
139.43
139.439
139.446
139.451
139.454
139.455
139.454
139.45
139.445
139.437
139.428
139.416
139.403
139.389
139.373
139.357
139.34
139.322
139.304
139.286
139.268
139.25
139.232
139.216
139.2
139.185
139.171
139.158
139.146
139.135
139.126
139.118
139.111
139.105
139.1
139.096
139.093
139.091
139.09
139.089
139.09
139.235
139.248
139.263
139.278
139.295
139.312
139.329
139.346
139.363
139.379
139.395
139.409
139.422
139.434
139.443
139.451
139.456
139.459
139.46
139.458
139.455
139.448
139.44
139.43
139.418
139.404
139.389
139.373
139.355
139.337
139.319
139.3
139.281
139.262
139.244
139.226
139.209
139.193
139.178
139.164
139.151
139.14
139.129
139.12
139.112
139.106
139.1
139.096
139.092
139.09
139.089
139.088
139.088
139.089
139.09
139.092
139.094
139.096
139.098
139.103
139.327
139.346
139.364
139.381
139.397
139.413
139.427
139.439
139.449
139.457
139.462
139.465
139.466
139.464
139.46
139.453
139.444
139.433
139.42
139.406
139.389
139.372
139.354
139.335
139.316
139.296
139.277
139.257
139.239
139.22
139.203
139.187
139.172
139.158
139.145
139.134
139.123
139.115
139.107
139.101
139.096
139.092
139.089
139.087
139.086
139.086
139.087
139.088
139.09
139.092
139.094
139.097
139.1
139.103
139.105
139.108
139.111
139.114
139.117
139.121
139.431
139.444
139.455
139.463
139.469
139.472
139.472
139.47
139.465
139.458
139.448
139.436
139.423
139.407
139.39
139.372
139.352
139.332
139.312
139.292
139.272
139.252
139.232
139.214
139.197
139.18
139.165
139.151
139.138
139.127
139.117
139.109
139.102
139.096
139.092
139.088
139.086
139.085
139.084
139.085
139.086
139.087
139.09
139.092
139.095
139.098
139.101
139.104
139.107
139.11
139.113
139.116
139.119
139.121
139.124
139.126
139.129
139.131
139.133
139.136
139.48
139.477
139.472
139.464
139.453
139.44
139.425
139.408
139.39
139.371
139.35
139.329
139.308
139.287
139.266
139.246
139.226
139.207
139.189
139.173
139.158
139.144
139.132
139.121
139.111
139.103
139.097
139.092
139.088
139.085
139.083
139.082
139.083
139.083
139.085
139.087
139.09
139.092
139.096
139.099
139.102
139.105
139.109
139.112
139.115
139.118
139.121
139.123
139.126
139.128
139.13
139.133
139.134
139.136
139.138
139.14
139.142
139.144
139.146
139.15
139.428
139.41
139.39
139.37
139.348
139.326
139.304
139.282
139.26
139.239
139.219
139.2
139.182
139.165
139.15
139.136
139.124
139.114
139.105
139.098
139.092
139.087
139.084
139.081
139.08
139.08
139.081
139.082
139.084
139.087
139.09
139.093
139.097
139.1
139.104
139.107
139.111
139.114
139.117
139.12
139.123
139.126
139.128
139.13
139.132
139.134
139.136
139.138
139.14
139.142
139.144
139.146
139.148
139.15
139.153
139.156
139.159
139.163
139.166
139.173
139.299
139.276
139.253
139.232
139.211
139.192
139.173
139.157
139.142
139.129
139.117
139.107
139.099
139.092
139.086
139.082
139.08
139.078
139.078
139.078
139.08
139.082
139.084
139.087
139.091
139.094
139.098
139.102
139.105
139.109
139.113
139.116
139.119
139.122
139.125
139.128
139.13
139.132
139.134
139.136
139.138
139.14
139.141
139.143
139.145
139.147
139.149
139.151
139.154
139.157
139.16
139.164
139.168
139.172
139.177
139.182
139.188
139.195
139.2
139.213
139.164
139.148
139.133
139.121
139.109
139.1
139.092
139.086
139.081
139.078
139.076
139.075
139.076
139.077
139.079
139.081
139.084
139.088
139.092
139.095
139.099
139.103
139.107
139.111
139.115
139.118
139.121
139.124
139.127
139.13
139.132
139.134
139.136
139.138
139.14
139.141
139.143
139.144
139.146
139.148
139.15
139.152
139.155
139.158
139.161
139.164
139.168
139.173
139.178
139.183
139.189
139.196
139.203
139.21
139.218
139.227
139.236
139.245
139.254
139.271
139.085
139.08
139.076
139.074
139.073
139.073
139.074
139.076
139.078
139.081
139.085
139.089
139.093
139.097
139.101
139.105
139.109
139.113
139.117
139.121
139.124
139.127
139.129
139.132
139.134
139.136
139.138
139.14
139.141
139.143
139.144
139.146
139.147
139.149
139.151
139.153
139.156
139.159
139.162
139.165
139.169
139.174
139.179
139.184
139.19
139.197
139.204
139.212
139.22
139.228
139.237
139.247
139.257
139.267
139.278
139.289
139.3
139.312
139.322
139.341
139.072
139.075
139.078
139.082
139.086
139.09
139.094
139.099
139.103
139.108
139.112
139.116
139.12
139.123
139.126
139.129
139.132
139.134
139.136
139.138
139.14
139.141
139.143
139.144
139.145
139.147
139.149
139.15
139.152
139.154
139.157
139.16
139.163
139.166
139.17
139.175
139.18
139.185
139.191
139.198
139.205
139.213
139.221
139.23
139.239
139.249
139.259
139.269
139.28
139.291
139.302
139.314
139.326
139.337
139.349
139.361
139.372
139.384
139.394
139.411
139.096
139.101
139.106
139.11
139.114
139.118
139.122
139.125
139.129
139.131
139.134
139.136
139.138
139.14
139.141
139.143
139.144
139.145
139.147
139.148
139.15
139.151
139.153
139.155
139.158
139.16
139.164
139.167
139.171
139.176
139.181
139.186
139.193
139.199
139.206
139.214
139.222
139.231
139.24
139.25
139.26
139.271
139.282
139.293
139.304
139.316
139.328
139.34
139.351
139.363
139.375
139.386
139.398
139.409
139.419
139.429
139.439
139.448
139.455
139.467
139.125
139.128
139.131
139.134
139.136
139.138
139.14
139.142
139.143
139.144
139.146
139.147
139.148
139.149
139.151
139.152
139.154
139.156
139.159
139.161
139.165
139.168
139.172
139.177
139.182
139.188
139.194
139.2
139.208
139.216
139.224
139.233
139.242
139.252
139.262
139.273
139.284
139.295
139.307
139.318
139.33
139.342
139.354
139.366
139.377
139.389
139.4
139.411
139.422
139.432
139.441
139.45
139.458
139.466
139.472
139.478
139.484
139.488
139.491
139.494
139.142
139.143
139.145
139.146
139.147
139.148
139.149
139.15
139.152
139.153
139.155
139.157
139.159
139.162
139.165
139.169
139.173
139.178
139.183
139.189
139.195
139.202
139.209
139.217
139.225
139.234
139.244
139.254
139.264
139.275
139.286
139.297
139.309
139.32
139.332
139.344
139.356
139.368
139.38
139.391
139.403
139.414
139.424
139.434
139.443
139.452
139.46
139.468
139.475
139.48
139.485
139.489
139.493
139.495
139.496
139.497
139.496
139.494
139.492
139.486
139.15
139.151
139.153
139.154
139.156
139.158
139.16
139.163
139.166
139.17
139.174
139.179
139.184
139.19
139.196
139.203
139.21
139.218
139.227
139.236
139.245
139.255
139.266
139.277
139.288
139.299
139.311
139.323
139.335
139.347
139.359
139.371
139.382
139.394
139.405
139.416
139.427
139.437
139.446
139.455
139.463
139.47
139.477
139.482
139.487
139.491
139.494
139.496
139.497
139.497
139.497
139.495
139.492
139.488
139.484
139.478
139.472
139.464
139.457
139.442
139.161
139.164
139.167
139.171
139.175
139.18
139.185
139.191
139.197
139.204
139.211
139.22
139.228
139.237
139.247
139.257
139.268
139.278
139.29
139.301
139.313
139.325
139.337
139.349
139.361
139.373
139.385
139.397
139.408
139.419
139.429
139.439
139.448
139.457
139.465
139.472
139.479
139.484
139.489
139.493
139.496
139.497
139.498
139.498
139.497
139.495
139.492
139.488
139.483
139.477
139.471
139.463
139.455
139.446
139.436
139.425
139.414
139.402
139.392
139.372
139.186
139.192
139.198
139.205
139.213
139.221
139.23
139.239
139.249
139.259
139.269
139.28
139.292
139.303
139.315
139.327
139.339
139.352
139.364
139.376
139.388
139.399
139.41
139.421
139.432
139.441
139.451
139.459
139.467
139.474
139.481
139.486
139.491
139.494
139.497
139.499
139.499
139.499
139.498
139.495
139.492
139.488
139.483
139.477
139.47
139.462
139.453
139.444
139.434
139.423
139.412
139.4
139.388
139.375
139.362
139.349
139.336
139.321
139.31
139.287
139.231
139.24
139.25
139.26
139.271
139.282
139.294
139.305
139.317
139.329
139.342
139.354
139.366
139.378
139.39
139.402
139.413
139.424
139.434
139.444
139.453
139.462
139.47
139.477
139.483
139.488
139.492
139.496
139.498
139.5
139.5
139.5
139.498
139.496
139.492
139.488
139.482
139.476
139.469
139.461
139.452
139.442
139.432
139.421
139.41
139.398
139.385
139.372
139.359
139.346
139.332
139.318
139.304
139.29
139.277
139.263
139.249
139.235
139.224
139.203
139.296
139.308
139.32
139.332
139.344
139.356
139.369
139.381
139.393
139.404
139.415
139.426
139.437
139.446
139.456
139.464
139.472
139.479
139.485
139.49
139.494
139.497
139.5
139.501
139.501
139.501
139.499
139.496
139.492
139.488
139.482
139.475
139.468
139.46
139.45
139.441
139.43
139.419
139.407
139.395
139.382
139.369
139.356
139.342
139.329
139.315
139.301
139.287
139.273
139.259
139.245
139.232
139.219
139.206
139.193
139.181
139.169
139.158
139.148
139.132
139.371
139.383
139.395
139.407
139.418
139.429
139.439
139.449
139.458
139.466
139.474
139.481
139.487
139.492
139.496
139.499
139.501
139.502
139.502
139.501
139.499
139.496
139.492
139.487
139.481
139.475
139.467
139.458
139.449
139.439
139.428
139.417
139.405
139.392
139.38
139.366
139.353
139.339
139.325
139.311
139.297
139.283
139.269
139.255
139.241
139.228
139.215
139.202
139.189
139.177
139.166
139.154
139.144
139.133
139.124
139.114
139.106
139.098
139.091
139.08
139.442
139.452
139.461
139.469
139.476
139.483
139.489
139.494
139.498
139.501
139.502
139.503
139.503
139.502
139.5
139.497
139.492
139.487
139.481
139.474
139.466
139.457
139.447
139.437
139.426
139.414
139.402
139.39
139.377
139.363
139.35
139.336
139.322
139.308
139.293
139.279
139.265
139.251
139.237
139.224
139.211
139.198
139.185
139.173
139.162
139.151
139.14
139.13
139.12
139.111
139.103
139.095
139.087
139.081
139.074
139.069
139.064
139.059
139.055
139.05
139.491
139.496
139.499
139.502
139.504
139.504
139.504
139.503
139.5
139.497
139.492
139.487
139.48
139.473
139.465
139.456
139.446
139.435
139.424
139.412
139.4
139.387
139.374
139.36
139.346
139.332
139.318
139.304
139.29
139.275
139.261
139.247
139.234
139.22
139.207
139.194
139.182
139.17
139.158
139.147
139.137
139.127
139.117
139.108
139.1
139.092
139.085
139.078
139.072
139.067
139.062
139.057
139.053
139.05
139.047
139.044
139.042
139.041
139.04
139.039
139.505
139.503
139.501
139.497
139.492
139.486
139.48
139.472
139.463
139.454
139.444
139.433
139.422
139.41
139.397
139.384
139.371
139.357
139.343
139.329
139.314
139.3
139.286
139.271
139.257
139.243
139.23
139.216
139.203
139.19
139.178
139.166
139.154
139.143
139.133
139.123
139.114
139.105
139.097
139.089
139.082
139.076
139.07
139.064
139.06
139.055
139.052
139.048
139.046
139.043
139.042
139.04
139.039
139.039
139.038
139.039
139.039
139.04
139.041
139.043
139.479
139.471
139.462
139.453
139.442
139.431
139.419
139.407
139.394
139.381
139.368
139.354
139.34
139.325
139.311
139.296
139.282
139.268
139.253
139.239
139.226
139.212
139.199
139.186
139.174
139.162
139.151
139.14
139.13
139.12
139.111
139.102
139.094
139.086
139.08
139.073
139.067
139.062
139.058
139.054
139.05
139.047
139.044
139.042
139.041
139.039
139.039
139.038
139.038
139.038
139.039
139.04
139.041
139.043
139.044
139.046
139.048
139.051
139.053
139.057
139.417
139.405
139.392
139.378
139.364
139.35
139.336
139.322
139.307
139.293
139.278
139.264
139.249
139.235
139.222
139.208
139.195
139.182
139.17
139.158
139.147
139.136
139.126
139.116
139.107
139.099
139.091
139.084
139.077
139.071
139.065
139.06
139.056
139.052
139.048
139.046
139.043
139.041
139.04
139.039
139.038
139.038
139.038
139.038
139.039
139.04
139.041
139.043
139.045
139.047
139.049
139.051
139.054
139.057
139.059
139.062
139.066
139.069
139.072
139.078
139.333
139.318
139.303
139.289
139.274
139.26
139.245
139.231
139.218
139.204
139.191
139.178
139.166
139.155
139.143
139.133
139.123
139.113
139.104
139.096
139.088
139.081
139.074
139.068
139.063
139.058
139.054
139.05
139.047
139.044
139.042
139.04
139.039
139.038
139.037
139.037
139.038
139.038
139.039
139.04
139.042
139.043
139.045
139.047
139.049
139.052
139.055
139.057
139.06
139.063
139.067
139.07
139.073
139.077
139.08
139.084
139.088
139.092
139.095
139.102
139.241
139.227
139.213
139.2
139.187
139.174
139.162
139.151
139.14
139.129
139.119
139.11
139.101
139.093
139.085
139.078
139.072
139.066
139.061
139.056
139.052
139.049
139.046
139.043
139.041
139.039
139.038
139.037
139.037
139.037
139.037
139.038
139.039
139.04
139.042
139.044
139.046
139.048
139.05
139.053
139.055
139.058
139.061
139.064
139.068
139.071
139.074
139.078
139.082
139.085
139.089
139.093
139.097
139.101
139.105
139.109
139.113
139.118
139.122
139.129
139.158
139.147
139.136
139.126
139.116
139.107
139.098
139.09
139.083
139.076
139.069
139.064
139.059
139.054
139.05
139.047
139.044
139.042
139.04
139.038
139.037
139.037
139.037
139.037
139.037
139.038
139.039
139.041
139.042
139.044
139.046
139.048
139.051
139.053
139.056
139.059
139.062
139.065
139.069
139.072
139.076
139.079
139.083
139.087
139.09
139.094
139.098
139.102
139.106
139.111
139.115
139.119
139.124
139.128
139.133
139.137
139.142
139.147
139.151
139.159
139.095
139.087
139.08
139.073
139.067
139.062
139.057
139.052
139.049
139.046
139.043
139.041
139.039
139.038
139.037
139.036
139.036
139.037
139.037
139.038
139.039
139.041
139.043
139.044
139.047
139.049
139.052
139.054
139.057
139.06
139.063
139.066
139.07
139.073
139.077
139.08
139.084
139.088
139.092
139.096
139.1
139.104
139.108
139.112
139.116
139.121
139.125
139.129
139.134
139.139
139.143
139.148
139.153
139.158
139.163
139.168
139.173
139.178
139.183
139.191
139.055
139.051
139.047
139.044
139.042
139.04
139.038
139.037
139.036
139.036
139.036
139.036
139.037
139.038
139.04
139.041
139.043
139.045
139.047
139.05
139.052
139.055
139.058
139.061
139.064
139.067
139.071
139.074
139.078
139.082
139.085
139.089
139.093
139.097
139.101
139.105
139.109
139.113
139.118
139.122
139.126
139.131
139.135
139.14
139.145
139.149
139.154
139.159
139.164
139.169
139.174
139.179
139.185
139.19
139.195
139.201
139.206
139.212
139.216
139.225
139.037
139.036
139.036
139.035
139.036
139.036
139.037
139.038
139.04
139.041
139.043
139.046
139.048
139.05
139.053
139.056
139.059
139.062
139.065
139.069
139.072
139.075
139.079
139.083
139.086
139.09
139.094
139.098
139.102
139.106
139.11
139.115
139.119
139.123
139.128
139.132
139.137
139.141
139.146
139.151
139.156
139.161
139.166
139.171
139.176
139.181
139.186
139.191
139.197
139.202
139.208
139.213
139.219
139.224
139.23
139.235
139.241
139.246
139.251
139.26
139.037
139.038
139.04
139.042
139.044
139.046
139.049
139.051
139.054
139.057
139.06
139.063
139.066
139.07
139.073
139.077
139.08
139.084
139.088
139.092
139.095
139.099
139.103
139.108
139.112
139.116
139.12
139.125
139.129
139.134
139.138
139.143
139.147
139.152
139.157
139.162
139.167
139.172
139.177
139.182
139.188
139.193
139.198
139.204
139.209
139.214
139.22
139.226
139.231
139.237
139.242
139.248
139.253
139.259
139.264
139.27
139.275
139.28
139.285
139.293
139.049
139.052
139.055
139.058
139.061
139.064
139.067
139.071
139.074
139.078
139.081
139.085
139.089
139.093
139.097
139.101
139.105
139.109
139.113
139.117
139.122
139.126
139.13
139.135
139.14
139.144
139.149
139.154
139.159
139.163
139.168
139.173
139.179
139.184
139.189
139.194
139.2
139.205
139.21
139.216
139.221
139.227
139.233
139.238
139.244
139.249
139.255
139.26
139.266
139.271
139.276
139.281
139.287
139.292
139.296
139.301
139.306
139.31
139.314
139.32
139.068
139.072
139.075
139.079
139.083
139.086
139.09
139.094
139.098
139.102
139.106
139.11
139.114
139.119
139.123
139.127
139.132
139.136
139.141
139.146
139.15
139.155
139.16
139.165
139.17
139.175
139.18
139.185
139.19
139.196
139.201
139.207
139.212
139.217
139.223
139.228
139.234
139.24
139.245
139.251
139.256
139.262
139.267
139.272
139.278
139.283
139.288
139.293
139.298
139.303
139.307
139.311
139.316
139.32
139.324
139.327
139.331
139.334
139.337
139.341
139.091
139.095
139.099
139.103
139.107
139.112
139.116
139.12
139.124
139.129
139.133
139.138
139.142
139.147
139.152
139.157
139.161
139.166
139.171
139.176
139.182
139.187
139.192
139.197
139.203
139.208
139.213
139.219
139.224
139.23
139.236
139.241
139.247
139.252
139.258
139.263
139.269
139.274
139.279
139.284
139.289
139.294
139.299
139.304
139.308
139.313
139.317
139.321
139.325
139.328
139.332
139.335
139.338
139.341
139.343
139.346
139.348
139.35
139.352
139.354
139.117
139.121
139.126
139.13
139.135
139.139
139.144
139.148
139.153
139.158
139.163
139.168
139.173
139.178
139.183
139.188
139.193
139.199
139.204
139.209
139.215
139.22
139.226
139.231
139.237
139.243
139.248
139.254
139.259
139.265
139.27
139.275
139.281
139.286
139.291
139.296
139.301
139.305
139.31
139.314
139.318
139.322
139.326
139.33
139.333
139.336
139.339
139.342
139.344
139.347
139.349
139.351
139.353
139.354
139.356
139.357
139.358
139.359
139.36
139.361
139.145
139.15
139.155
139.159
139.164
139.169
139.174
139.179
139.184
139.19
139.195
139.2
139.206
139.211
139.216
139.222
139.227
139.233
139.238
139.244
139.25
139.255
139.261
139.266
139.271
139.277
139.282
139.287
139.292
139.297
139.302
139.307
139.311
139.316
139.32
139.324
139.327
139.331
139.334
139.337
139.34
139.343
139.346
139.348
139.35
139.352
139.353
139.355
139.356
139.358
139.359
139.36
139.36
139.361
139.362
139.362
139.363
139.363
139.363
139.363
139.176
139.181
139.186
139.191
139.196
139.202
139.207
139.212
139.218
139.223
139.229
139.234
139.24
139.245
139.251
139.256
139.262
139.267
139.273
139.278
139.283
139.289
139.294
139.299
139.303
139.308
139.313
139.317
139.321
139.325
139.329
139.332
139.336
139.339
139.342
139.344
139.347
139.349
139.351
139.353
139.354
139.356
139.357
139.358
139.359
139.36
139.361
139.361
139.362
139.362
139.363
139.363
139.363
139.363
139.363
139.363
139.363
139.363
139.363
139.362
139.209
139.214
139.219
139.225
139.23
139.236
139.241
139.247
139.252
139.258
139.263
139.269
139.274
139.28
139.285
139.29
139.295
139.3
139.305
139.309
139.314
139.318
139.322
139.326
139.33
139.333
139.337
139.34
139.343
139.345
139.348
139.35
139.352
139.353
139.355
139.356
139.358
139.359
139.359
139.36
139.361
139.361
139.362
139.362
139.363
139.363
139.363
139.363
139.363
139.363
139.363
139.363
139.363
139.362
139.362
139.361
139.361
139.36
139.36
139.359
139.243
139.248
139.254
139.259
139.265
139.27
139.276
139.281
139.286
139.291
139.296
139.301
139.306
139.311
139.315
139.32
139.324
139.328
139.331
139.335
139.338
139.341
139.344
139.346
139.349
139.351
139.353
139.354
139.356
139.357
139.358
139.359
139.36
139.361
139.361
139.362
139.362
139.362
139.363
139.363
139.363
139.363
139.363
139.363
139.363
139.363
139.363
139.362
139.362
139.361
139.361
139.36
139.359
139.359
139.358
139.357
139.357
139.357
139.356
139.357
139.277
139.282
139.288
139.293
139.298
139.303
139.307
139.312
139.317
139.321
139.325
139.329
139.332
139.336
139.339
139.342
139.345
139.347
139.35
139.352
139.354
139.355
139.357
139.358
139.359
139.36
139.36
139.361
139.361
139.362
139.362
139.362
139.362
139.363
139.363
139.363
139.363
139.363
139.363
139.363
139.363
139.362
139.362
139.361
139.361
139.36
139.359
139.359
139.358
139.357
139.356
139.355
139.354
139.354
139.354
139.354
139.354
139.354
139.355
139.356
139.309
139.313
139.318
139.322
139.326
139.33
139.334
139.337
139.34
139.343
139.346
139.349
139.351
139.353
139.355
139.356
139.357
139.358
139.359
139.36
139.361
139.361
139.362
139.362
139.362
139.362
139.362
139.362
139.362
139.362
139.362
139.362
139.362
139.362
139.362
139.362
139.362
139.361
139.361
139.36
139.359
139.358
139.357
139.356
139.355
139.354
139.353
139.352
139.351
139.35
139.35
139.35
139.35
139.35
139.35
139.35
139.349
139.348
139.347
139.34
139.335
139.338
139.342
139.345
139.347
139.35
139.352
139.354
139.355
139.357
139.358
139.359
139.36
139.361
139.361
139.362
139.362
139.362
139.362
139.362
139.362
139.362
139.362
139.362
139.362
139.362
139.362
139.362
139.362
139.362
139.361
139.361
139.361
139.36
139.359
139.358
139.357
139.356
139.355
139.353
139.352
139.35
139.349
139.348
139.346
139.345
139.345
139.344
139.344
139.343
139.342
139.341
139.339
139.337
139.333
139.327
139.319
139.308
139.298
139.267
139.353
139.355
139.356
139.358
139.359
139.36
139.361
139.361
139.362
139.362
139.362
139.362
139.362
139.362
139.362
139.362
139.362
139.362
139.361
139.361
139.361
139.361
139.361
139.361
139.361
139.361
139.36
139.36
139.359
139.358
139.357
139.356
139.355
139.353
139.351
139.349
139.347
139.346
139.344
139.342
139.34
139.339
139.338
139.337
139.335
139.334
139.332
139.33
139.326
139.322
139.315
139.306
139.294
139.28
139.261
139.238
139.212
139.179
139.15
139.082
139.361
139.362
139.362
139.362
139.362
139.362
139.362
139.362
139.362
139.361
139.361
139.361
139.361
139.361
139.361
139.36
139.36
139.36
139.36
139.36
139.36
139.359
139.359
139.358
139.357
139.356
139.355
139.353
139.351
139.349
139.347
139.344
139.342
139.339
139.337
139.334
139.332
139.33
139.329
139.327
139.325
139.322
139.319
139.315
139.31
139.302
139.292
139.279
139.263
139.244
139.219
139.191
139.158
139.12
139.078
139.031
138.981
138.927
138.879
138.791
139.362
139.362
139.362
139.361
139.361
139.361
139.36
139.36
139.36
139.36
139.36
139.359
139.359
139.359
139.359
139.359
139.358
139.358
139.357
139.356
139.355
139.353
139.351
139.349
139.346
139.343
139.34
139.337
139.334
139.331
139.328
139.325
139.322
139.32
139.317
139.314
139.311
139.308
139.303
139.297
139.288
139.278
139.264
139.247
139.226
139.2
139.17
139.135
139.096
139.052
139.003
138.952
138.898
138.842
138.787
138.733
138.683
138.638
138.6
138.565
139.36
139.359
139.359
139.359
139.359
139.359
139.358
139.358
139.358
139.358
139.358
139.357
139.356
139.355
139.354
139.353
139.351
139.349
139.346
139.343
139.34
139.336
139.332
139.328
139.324
139.32
139.317
139.313
139.31
139.306
139.303
139.299
139.295
139.289
139.283
139.274
139.263
139.249
139.231
139.209
139.182
139.15
139.114
139.073
139.027
138.977
138.924
138.869
138.814
138.759
138.706
138.659
138.617
138.585
138.564
138.556
138.563
138.592
138.619
138.742
139.357
139.357
139.357
139.357
139.357
139.356
139.356
139.355
139.354
139.352
139.351
139.348
139.346
139.343
139.34
139.336
139.331
139.327
139.322
139.317
139.312
139.308
139.303
139.299
139.294
139.29
139.286
139.281
139.275
139.268
139.259
139.248
139.233
139.215
139.192
139.164
139.132
139.094
139.052
139.005
138.954
138.9
138.844
138.788
138.734
138.684
138.639
138.603
138.577
138.564
138.567
138.587
138.627
138.687
138.77
138.877
139.005
139.167
139.309
139.649
139.355
139.354
139.353
139.352
139.35
139.348
139.346
139.343
139.339
139.336
139.331
139.326
139.321
139.316
139.31
139.304
139.298
139.292
139.287
139.281
139.276
139.271
139.266
139.26
139.253
139.244
139.232
139.218
139.199
139.176
139.148
139.115
139.077
139.033
138.985
138.933
138.878
138.822
138.767
138.714
138.666
138.625
138.594
138.576
138.573
138.587
138.622
138.678
138.757
138.861
138.989
139.144
139.323
139.526
139.751
139.999
140.261
140.553
140.801
141.298
139.345
139.342
139.339
139.335
139.331
139.326
139.321
139.315
139.308
139.302
139.295
139.288
139.281
139.274
139.268
139.262
139.256
139.25
139.243
139.236
139.228
139.217
139.202
139.185
139.162
139.135
139.101
139.063
139.019
138.97
138.917
138.861
138.805
138.75
138.698
138.653
138.617
138.592
138.582
138.59
138.618
138.668
138.742
138.842
138.968
139.122
139.302
139.508
139.739
139.993
140.266
140.557
140.862
141.178
141.5
141.827
142.151
142.482
142.757
143.24
139.32
139.314
139.308
139.301
139.293
139.286
139.278
139.269
139.261
139.254
139.246
139.239
139.232
139.226
139.219
139.211
139.2
139.188
139.171
139.15
139.123
139.091
139.053
139.009
138.959
138.906
138.85
138.793
138.739
138.689
138.646
138.615
138.597
138.597
138.616
138.659
138.726
138.82
138.943
139.094
139.275
139.483
139.719
139.979
140.261
140.562
140.879
141.208
141.544
141.884
142.223
142.558
142.885
143.2
143.501
143.786
144.051
144.304
144.507
144.824
139.276
139.267
139.258
139.249
139.24
139.231
139.222
139.214
139.207
139.2
139.192
139.183
139.172
139.158
139.139
139.115
139.085
139.048
139.005
138.956
138.902
138.846
138.789
138.735
138.686
138.646
138.619
138.609
138.618
138.651
138.71
138.796
138.913
139.061
139.24
139.449
139.688
139.955
140.246
140.558
140.888
141.231
141.583
141.938
142.293
142.643
142.983
143.31
143.62
143.912
144.182
144.43
144.655
144.858
145.038
145.196
145.335
145.457
145.552
145.687
139.217
139.208
139.198
139.189
139.18
139.172
139.164
139.155
139.144
139.13
139.11
139.084
139.05
139.01
138.962
138.909
138.852
138.794
138.739
138.691
138.653
138.63
138.627
138.647
138.694
138.77
138.878
139.02
139.196
139.405
139.647
139.919
140.219
140.543
140.886
141.245
141.614
141.988
142.361
142.728
143.085
143.426
143.749
144.049
144.325
144.575
144.799
144.996
145.167
145.315
145.441
145.547
145.636
145.71
145.773
145.826
145.872
145.912
145.944
145.994
139.154
139.145
139.136
139.127
139.117
139.104
139.085
139.059
139.025
138.981
138.93
138.873
138.814
138.757
138.706
138.669
138.648
138.651
138.681
138.742
138.837
138.969
139.139
139.346
139.59
139.868
140.177
140.513
140.872
141.248
141.636
142.03
142.424
142.812
143.188
143.547
143.885
144.197
144.482
144.736
144.959
145.152
145.315
145.45
145.56
145.648
145.718
145.772
145.816
145.851
145.88
145.907
145.932
145.957
145.983
146.009
146.036
146.063
146.086
146.128
139.091
139.081
139.067
139.046
139.015
138.971
138.918
138.858
138.796
138.74
138.697
138.675
138.679
138.716
138.791
138.907
139.065
139.266
139.51
139.793
140.113
140.464
140.841
141.238
141.649
142.066
142.483
142.894
143.292
143.672
144.028
144.356
144.652
144.913
145.139
145.329
145.484
145.606
145.699
145.765
145.811
145.841
145.859
145.871
145.879
145.887
145.898
145.913
145.933
145.958
145.986
146.018
146.05
146.082
146.112
146.138
146.161
146.179
146.194
146.214
139.022
138.993
138.946
138.886
138.82
138.762
138.723
138.717
138.752
138.835
138.97
139.158
139.397
139.684
140.016
140.385
140.785
141.208
141.648
142.094
142.541
142.979
143.402
143.804
144.179
144.523
144.831
145.102
145.333
145.524
145.675
145.788
145.864
145.91
145.929
145.928
145.915
145.894
145.872
145.855
145.844
145.844
145.855
145.876
145.907
145.947
145.991
146.037
146.081
146.121
146.154
146.177
146.189
146.191
146.184
146.169
146.15
146.122
146.108
146.039
138.921
138.856
138.811
138.812
138.878
139.018
139.234
139.521
139.87
140.268
140.705
141.168
141.647
142.132
142.615
143.087
143.539
143.965
144.358
144.715
145.031
145.304
145.534
145.72
145.864
145.966
146.031
146.062
146.062
146.037
145.994
145.939
145.882
145.828
145.786
145.76
145.754
145.767
145.799
145.846
145.904
145.969
146.035
146.098
146.153
146.196
146.225
146.235
146.228
146.203
146.162
146.107
146.042
145.968
145.889
145.803
145.711
145.586
145.501
145.133
138.896
139.147
139.53
140.012
140.559
141.138
141.724
142.297
142.845
143.362
143.845
144.291
144.695
145.053
145.362
145.62
145.828
145.987
146.1
146.17
146.2
146.196
146.162
146.104
146.028
145.94
145.848
145.76
145.684
145.629
145.602
145.609
145.648
145.716
145.807
145.91
146.017
146.118
146.206
146.277
146.325
146.349
146.346
146.316
146.262
146.186
146.095
145.991
145.88
145.766
145.65
145.531
145.403
145.256
145.07
144.826
144.505
144.065
143.605
142.559
)
;

boundaryField
{
    bottomwall
    {
        type            opaque;
        refValue        uniform 0;
        refGradient     uniform 0;
        valueFraction   uniform 0;
        source          uniform 0;
        value           nonuniform List<scalar> 
60
(
138.995
139.005
139.015
139.025
139.035
139.044
139.054
139.063
139.072
139.08
139.088
139.096
139.104
139.111
139.119
139.126
139.134
139.142
139.15
139.159
139.168
139.177
139.188
139.199
139.21
139.222
139.235
139.248
139.262
139.276
139.29
139.304
139.318
139.332
139.346
139.359
139.371
139.382
139.392
139.401
139.409
139.415
139.419
139.423
139.424
139.424
139.422
139.419
139.414
139.408
139.4
139.391
139.381
139.37
139.358
139.345