/*--------------------------------*- C++ -*----------------------------------*\
| =========                 |                                                 |
| \\      /  F ield         | OpenFOAM: The Open Source CFD Toolbox           |
|  \\    /   O peration     | Version:  2406                                  |
|   \\  /    A nd           | Website:  www.openfoam.com                      |
|    \\/     M anipulation  |                                                 |
\*---------------------------------------------------------------------------*/
FoamFile
{
    version     2.0;
    format      ascii;
    arch        "LSB;label=32;scalar=64";
    class       volScalarField;
    location    "10000";
    object      ILambda_18_0;
}
// * * * * * * * * * * * * * * * * * * * * * * * * * * * * * * * * * * * * * //

dimensions      [1 0 -3 0 0 0 0];

internalField   nonuniform List<scalar> 
3600
(
143.67
145.901
146.99
147.689
148.157
148.485
148.727
148.914
149.068
149.201
149.324
149.441
149.553
149.661
149.765
149.867
149.97
150.075
150.183
150.294
150.408
150.524
150.638
150.751
150.862
150.977
151.105
151.256
151.432
151.618
151.778
151.864
151.84
151.716
151.585
151.625
152.081
153.197
155.145
157.959
161.5
165.482
169.532
173.267
176.365
178.603
179.86
180.09
179.302
177.539
174.883
171.472
167.505
163.238
158.958
154.93
151.342
148.206
145.132
141.183
144.398
146.571
147.371
147.945
148.335
148.615
148.827
148.995
149.137
149.265
149.384
149.498
149.608
149.714
149.817
149.92
150.024
150.13
150.24
150.352
150.467
150.582
150.696
150.807
150.92
151.041
151.181
151.346
151.53
151.706
151.831
151.858
151.774
151.629
151.564
151.794
152.57
154.107
156.508
159.718
163.519
167.572
171.494
174.929
177.605
179.35
180.084
179.79
178.496
176.264
173.203
169.483
165.335
161.036
156.873
153.084
149.746
146.603
143.119
139.474
145.109
147.114
147.68
148.161
148.487
148.729
148.916
149.07
149.203
149.326
149.443
149.555
149.662
149.767
149.869
149.972
150.077
150.186
150.297
150.411
150.526
150.64
150.752
150.864
150.98
151.11
151.263
151.441
151.625
151.779
151.854
151.819
151.69
151.564
151.623
152.108
153.259
155.239
158.073
161.618
165.59
169.617
173.325
176.397
178.611
179.845
180.054
179.243
177.458
174.784
171.362
167.393
163.137
158.885
154.911
151.363
148.111
144.755
141.249
138.897
145.768
147.54
147.93
148.342
148.618
148.829
148.997
149.14
149.267
149.386
149.5
149.61
149.716
149.819
149.922
150.026
150.132
150.242
150.355
150.469
150.584
150.697
150.808
150.921
151.044
151.186
151.353
151.538
151.711
151.828
151.845
151.752
151.605
151.548
151.798
152.603
154.171
156.598
159.822
163.624
167.668
171.572
174.986
177.639
179.363
180.076
179.761
178.443
176.189
173.111
169.381
165.233
160.951
156.828
153.075
149.677
146.348
142.886
139.937
138.887
146.353
147.868
148.136
148.497
148.732
148.919
149.072
149.206
149.328
149.445
149.556
149.664
149.768
149.871
149.974
150.08
150.188
150.299
150.413
150.528
150.642
150.753
150.865
150.982
151.114
151.27
151.449
151.632
151.78
151.846
151.801
151.666
151.543
151.616
152.125
153.306
155.314
158.168
161.721
165.689
169.704
173.393
176.444
178.638
179.852
180.039
179.206
177.398
174.704
171.267
167.292
163.045
158.824
154.886
151.316
147.942
144.515
141.275
139.237
139.126
146.853
148.119
148.311
148.629
148.832
149
149.142
149.269
149.388
149.502
149.612
149.718
149.821
149.924
150.028
150.134
150.244
150.357
150.472
150.586
150.699
150.809
150.923
151.047
151.192
151.361
151.546
151.715
151.824
151.831
151.73
151.582
151.533
151.803
152.635
154.232
156.683
159.922
163.726
167.761
171.649
175.044
177.677
179.381
180.073
179.736
178.395
176.119
173.023
169.282
165.136
160.877
156.788
153.038
149.566
146.143
142.773
140.103
139.022
139.428
147.272
148.315
148.461
148.743
148.921
149.075
149.208
149.331
149.447
149.558
149.666
149.77
149.873
149.976
150.082
150.19
150.302
150.415
150.53
150.643
150.755
150.866
150.984
151.118
151.277
151.457
151.638
151.78
151.838
151.783
151.643
151.523
151.61
152.143
153.353
155.388
158.261
161.823
165.787
169.789
173.461
176.492
178.666
179.86
180.025
179.169
177.339
174.624
171.172
167.193
162.96
158.769
154.849
151.24
147.781
144.353
141.298
139.412
139.114
139.691
147.617
148.471
148.593
148.844
149.001
149.145
149.272
149.391
149.504
149.614
149.719
149.823
149.926
150.03
150.137
150.247
150.359
150.474
150.588
150.7
150.811
150.925
151.05
151.197
151.369
151.553
151.719
151.82
151.817
151.708
151.559
151.519
151.808
152.668
154.293
156.768
160.021
163.827
167.853
171.726
175.101
177.715
179.399
180.07
179.71
178.347
176.049
172.934
169.183
165.044
160.808
156.744
152.982
149.444
145.978
142.701
140.208
139.139
139.347
139.857
147.899
148.599
148.71
148.933
149.076
149.211
149.333
149.449
149.56
149.668
149.772
149.875
149.978
150.084
150.192
150.304
150.418
150.532
150.645
150.756
150.867
150.987
151.123
151.284
151.465
151.644
151.78
151.828
151.765
151.62
151.503
151.605
152.162
153.4
155.463
158.355
161.924
165.885
169.874
173.528
176.54
178.694
179.867
180.011
179.132
177.279
174.543
171.077
167.097
162.88
158.715
154.799
151.149
147.633
144.231
141.316
139.537
139.159
139.591
139.909
148.13
148.709
148.814
149.013
149.146
149.275
149.393
149.506
149.615
149.721
149.825
149.928
150.032
150.139
150.249
150.362
150.476
150.59
150.701
150.812
150.926
151.054
151.203
151.376
151.56
151.722
151.815
151.803
151.687
151.537
151.506
151.815
152.701
154.355
156.853
160.119
163.927
167.945
171.802
175.159
177.753
179.416
180.066
179.684
178.298
175.978
172.845
169.086
164.956
160.743
156.694
152.911
149.321
145.839
142.647
140.285
139.236
139.333
139.768
139.868
148.32
148.805
148.907
149.087
149.212
149.336
149.451
149.562
149.67
149.774
149.877
149.98
150.086
150.195
150.306
150.42
150.534
150.646
150.757
150.869
150.989
151.128
151.291
151.473
151.649
151.779
151.818
151.746
151.597
151.485
151.601
152.182
153.448
155.537
158.448
162.025
165.982
169.959
173.595
176.587
178.721
179.874
179.996
179.094
177.217
174.462
170.982
167.004
162.804
158.659
154.739
151.05
147.498
144.131
141.33
139.632
139.208
139.543
139.848
139.776
148.479
148.892
148.992
149.155
149.275
149.396
149.508
149.617
149.723
149.826
149.929
150.034
150.141
150.251
150.364
150.478
150.591
150.702
150.813
150.928
151.058
151.209
151.384
151.567
151.724
151.81
151.788
151.665
151.515
151.494
151.823
152.736
154.418
156.939
160.218
164.027
168.037
171.878
175.216
177.79
179.433
180.062
179.657
178.248
175.905
172.755
168.992
164.871
160.678
156.637
152.831
149.201
145.718
142.604
140.345
139.315
139.333
139.709
139.842
139.679
148.614
148.972
149.069
149.22
149.337
149.454
149.564
149.671
149.776
149.879
149.982
150.088
150.197
150.309
150.422
150.536
150.648
150.758
150.87
150.992
151.133
151.298
151.48
151.654
151.778
151.808
151.727
151.574
151.467
151.598
152.203
153.498
155.612
158.541
162.125
166.078
170.043
173.662
176.635
178.748
179.88
179.98
179.055
177.155
174.379
170.889
166.913
162.73
158.599
154.671
150.948
147.374
144.047
141.34
139.707
139.251
139.509
139.797
139.781
139.609
148.73
149.045
149.142
149.283
149.396
149.511
149.619
149.725
149.828
149.931
150.036
150.143
150.254
150.366
150.48
150.593
150.704
150.814
150.931
151.062
151.216
151.392
151.574
151.726
151.804
151.773
151.643
151.493
151.483
151.831
152.771
154.481
157.024
160.316
164.127
168.128
171.954
175.273
177.827
179.45
180.057
179.63
178.196
175.832
172.666
168.899
164.789
160.612
156.574
152.745
149.085
145.611
142.568
140.392
139.379
139.338
139.661
139.81
139.703
139.573
148.832
149.115
149.21
149.343
149.455
149.567
149.673
149.778
149.881
149.984
150.09
150.199
150.311
150.424
150.538
150.649
150.759
150.872
150.995
151.138
151.305
151.488
151.659
151.776
151.797
151.708
151.551
151.449
151.596
152.225
153.547
155.688
158.634
162.226
166.174
170.127
173.728
176.682
178.775
179.885
179.964
179.015
177.092
174.297
170.797
166.826
162.657
158.536
154.597
150.845
147.26
143.974
141.348
139.768
139.288
139.485
139.753
139.772
139.637
139.564
148.923
149.18
149.274
149.402
149.512
149.621
149.727
149.83
149.933
150.038
150.145
150.256
150.369
150.482
150.595
150.705
150.816
150.933
151.066
151.222
151.4
151.58
151.728
151.797
151.757
151.621
151.472
151.472
151.841
152.807
154.544
157.11
160.414
164.226
168.218
172.029
175.33
177.864
179.466
180.052
179.601
178.144
175.758
172.578
168.808
164.709
160.545
156.506
152.655
148.973
145.514
142.536
140.431
139.433
139.345
139.623
139.78
139.711
139.594
139.567
149.006
149.243
149.336
149.46
149.568
149.675
149.779
149.883
149.986
150.092
150.201
150.313
150.427
150.54
150.651
150.761
150.874
150.998
151.143
151.312
151.495
151.663
151.774
151.786
151.688
151.529
151.432
151.595
152.248
153.598
155.763
158.728
162.325
166.27
170.21
173.795
176.728
178.801
179.891
179.946
178.974
177.028
174.214
170.706
166.74
162.585
158.47
154.518
150.742
147.152
143.909
141.355
139.819
139.32
139.467
139.715
139.76
139.653
139.573
139.566
149.082
149.304
149.396
149.516
149.623
149.729
149.832
149.935
150.04
150.148
150.258
150.371
150.484
150.596
150.706
150.817
150.935
151.07
151.229
151.407
151.587
151.729
151.79
151.741
151.599
151.452
151.463
151.852
152.844
154.608
157.195
160.512
164.325
168.309
172.105
175.386
177.9
179.481
180.045
179.572
178.091
175.683
172.49
168.719
164.631
160.477
156.434
152.562
148.865
145.426
142.507
140.463
139.478
139.353
139.593
139.754
139.715
139.61
139.564
139.554
149.153
149.364
149.455
149.572
149.677
149.781
149.885
149.989
150.095
150.204
150.316
150.429
150.541
150.652
150.762
150.876
151.002
151.149
151.32
151.503
151.667
151.771
151.774
151.668
151.507
151.416
151.595
152.272
153.649
155.839
158.82
162.425
166.366
170.293
173.861
176.775
178.827
179.895
179.928
178.932
176.963
174.132
170.617
166.656
162.512
158.4
154.435
150.64
147.052
143.851
141.359
139.861
139.349
139.455
139.685
139.748
139.665
139.583
139.556
139.53
149.22
149.421
149.512
149.626
149.73
149.834
149.937
150.042
150.15
150.261
150.373
150.486
150.598
150.707
150.818
150.938
151.075
151.235
151.415
151.593
151.73
151.783
151.725
151.577
151.432
151.454
151.863
152.882
154.673
157.281
160.609
164.423
168.399
172.179
175.443
177.936
179.497
180.039
179.541
178.037
175.608
172.403
168.632
164.552
160.406
156.357
152.468
148.762
145.345
142.481
140.49
139.517
139.361
139.569
139.731
139.715
139.623
139.566
139.544
139.499
149.284
149.478
149.568
149.68
149.783
149.887
149.991
150.097
150.206
150.318
150.431
150.543
150.653
150.763
150.878
151.005
151.155
151.327
151.51
151.671
151.767
151.762
151.649
151.485
151.401
151.596
152.297
153.701
155.916
158.913
162.524
166.461
170.376
173.926
176.821
178.853
179.899
179.909
178.89
176.898
174.05
170.529
166.573
162.438
158.327
154.349
150.539
146.958
143.797
141.362
139.898
139.374
139.446
139.659
139.736
139.673
139.592
139.553
139.523
139.465
149.346
149.534
149.623
149.733
149.836
149.939
150.044
150.152
150.263
150.375
150.488
150.599
150.709
150.82
150.941
151.079
151.242
151.423
151.598
151.73
151.775
151.708
151.556
151.412
151.446
151.876
152.921
154.738
157.367
160.706
164.521
168.488
172.254
175.498
177.972
179.511
180.031
179.51
177.982
175.534
172.317
168.547
164.474
160.333
156.278
152.374
148.662
145.27
142.457
140.513
139.55
139.369
139.55
139.71
139.713
139.632
139.569
139.537
139.495
139.432
149.405
149.589
149.677
149.786
149.888
149.993
150.099
150.208
150.32
150.433
150.545
150.655
150.764
150.88
151.009
151.161
151.335
151.517
151.674
151.763
151.749
151.629
151.463
151.386
151.598
152.323
153.754
155.992
159.006
162.623
166.555
170.459
173.992
176.867
178.878
179.903
179.89
178.846
176.832
173.969
170.443
166.492
162.363
158.251
154.261
150.44
146.868
143.746
141.363
139.929
139.397
139.44
139.637
139.724
139.677
139.599
139.551
139.517
139.464
139.404
149.464
149.643
149.731
149.839
149.941
150.047
150.155
150.265
150.378
150.49
150.601
150.71
150.822
150.943
151.084
151.249
151.43
151.603
151.73
151.766
151.691
151.534
151.393
151.439
151.89
152.961
154.803
157.453
160.803
164.619
168.577
172.328
175.554
178.008
179.526
180.022
179.478
177.926
175.459
172.232
168.462
164.396
160.258
156.196
152.279
148.565
145.199
142.433
140.532
139.579
139.378
139.534
139.692
139.71
139.639
139.573
139.533
139.491
139.434
139.383
149.52
149.696
149.784
149.891
149.995
150.101
150.211
150.322
150.435
150.546
150.656
150.766
150.882
151.013
151.167
151.342
151.523
151.677
151.759
151.736
151.609
151.442
151.372
151.601
152.349
153.807
156.069
159.099
162.721
166.649
170.541
174.057
176.912
178.903
179.906
179.869
178.801
176.766
173.888
170.357
166.41
162.287
158.173
154.172
150.342
146.783
143.699
141.363
139.956
139.417
139.436
139.619
139.713
139.68
139.605
139.551
139.512
139.462
139.407
139.367
149.576
149.749
149.836
149.944
150.049
150.157
150.267
150.38
150.492
150.602
150.711
150.823
150.947
151.089
151.256
151.437
151.608
151.729
151.757
151.674
151.512
151.374
151.432
151.904
153.001
154.869
157.539
160.9
164.716
168.666
172.402
175.61
178.043
179.539
180.013
179.445
177.87
175.384
172.148
168.379
164.318
160.182
156.112
152.184
148.472
145.132
142.411
140.548
139.605
139.386
139.522
139.676
139.705
139.644
139.576
139.53
139.487
139.434
139.385
139.355
149.631
149.802
149.889
149.998
150.103
150.213
150.325
150.437
150.548
150.657
150.767
150.884
151.017
151.173
151.35
151.53
151.679
151.754
151.722
151.588
151.421
151.359
151.605
152.377
153.861
156.146
159.191
162.819
166.743
170.623
174.122
176.958
178.927
179.908
179.847
178.756
176.699
173.808
170.273
166.33
162.21
158.092
154.081
150.246
146.702
143.655
141.362
139.979
139.436
139.433
139.603
139.701
139.68
139.61
139.551
139.507
139.46
139.408
139.369
139.346
149.685
149.854
149.942
150.052
150.159
150.27
150.382
150.493
150.603
150.712
150.825
150.95
151.095
151.263
151.445
151.613
151.727
151.747
151.657
151.491
151.356
151.427
151.92
153.042
154.935
157.625
160.997
164.813
168.754
172.476
175.665
178.078
179.552
180.003
179.411
177.813
175.31
172.065
168.296
164.239
160.103
156.026
152.09
148.382
145.068
142.389
140.561
139.628
139.395
139.511
139.661
139.7
139.647
139.579
139.528
139.483
139.433
139.387
139.356
139.336
149.738
149.907
149.996
150.107
150.215
150.327
150.439
150.549
150.658
150.769
150.887
151.021
151.179
151.357
151.536
151.681
151.748
151.708
151.568
151.4
151.347
151.609
152.405
153.915
156.223
159.284
162.917
166.837
170.704
174.186
177.003
178.951
179.909
179.825
178.709
176.633
173.728
170.189
166.249
162.132
158.01
153.99
150.153
146.624
143.613
141.359
139.999
139.452
139.432
139.59
139.691
139.68
139.613
139.551
139.504
139.458
139.409
139.37
139.345
139.323
149.791
149.96
150.05
150.162
150.272
150.384
150.495
150.605
150.714
150.827
150.953
151.1
151.27
151.452
151.617
151.726
151.737
151.639
151.47
151.339
151.422
151.936
153.084
155.002
157.711
161.093
164.91
168.842
172.549
175.72
178.112
179.565
179.992
179.376
177.756
175.236
171.983
168.213
164.16
160.023
155.939
151.996
148.295
145.008
142.368
140.572
139.648
139.403
139.503
139.648
139.694
139.649
139.581
139.526
139.48
139.432
139.388
139.356
139.334
139.308
149.844
150.013
150.105
150.218
150.329
150.441
150.551
150.66
150.77
150.889
151.026
151.186
151.364
151.542
151.682
151.742
151.694
151.548
151.38
151.335
151.615
152.435
153.97
156.301
159.376
163.015
166.93
170.785
174.25
177.048
178.975
179.91
179.802
178.663
176.566
173.649
170.107
166.168
162.052
157.926
153.899
150.061
146.549
143.572
141.356
140.017
139.468
139.431
139.578
139.681
139.678
139.616
139.552
139.502
139.455
139.409
139.371
139.344
139.321
139.291
149.897
150.068
150.161
150.275
150.386
150.497
150.606
150.715
150.829
150.957
151.106
151.277
151.459
151.621
151.723
151.727
151.621
151.448
151.322
151.419
151.953
153.127
155.069
157.797
161.189
165.006
168.93
172.622
175.774
178.146
179.577
179.981
179.34
177.698
175.162
171.901
168.131
164.08
159.941
155.851
151.903
148.21
144.95
142.348
140.582
139.667
139.41
139.496
139.637
139.688
139.65
139.583
139.525
139.478
139.431
139.389
139.357
139.333
139.306
139.272
149.951
150.123
150.217
150.332
150.442
150.552
150.661
150.772
150.892
151.031
151.192
151.372
151.548
151.683
151.736
151.679
151.527
151.36
151.324
151.621
152.465
154.026
156.378
159.469
163.112
167.023
170.866
174.314
177.092
178.998
179.91
179.778
178.615
176.5
173.57
170.024
166.087
161.971
157.841
153.807
149.97
146.477
143.534
141.352
140.033
139.482
139.431
139.568
139.671
139.675
139.618
139.553
139.5
139.454
139.409
139.372
139.344
139.319
139.289
139.254
150.005
150.178
150.274
150.389
150.498
150.607
150.716
150.831
150.96
151.111
151.284
151.466
151.625
151.721
151.716
151.603
151.427
151.305
151.416
151.971
153.17
155.137
157.883
161.285
165.102
169.018
172.695
175.829
178.18
179.588
179.968
179.304
177.64
175.089
171.82
168.05
163.999
159.858
155.761
151.811
148.128
144.894
142.328
140.59
139.683
139.418
139.49
139.626
139.682
139.65
139.585
139.525
139.475
139.43
139.39
139.357
139.331
139.304
139.272
139.239
150.059
150.235
150.33
150.445
150.554
150.662
150.773
150.895
151.035
151.199
151.379
151.553
151.684
151.729
151.664
151.507
151.34
151.313
151.628
152.496
154.082
156.456
159.561
163.209
167.115
170.946
174.378
177.136
179.02
179.909
179.753
178.568
176.433
173.492
169.943
166.006
161.89
157.755
153.715
149.882
146.407
143.496
141.348
140.047
139.495
139.432
139.559
139.663
139.673
139.619
139.553
139.498
139.452
139.409
139.372
139.344
139.318
139.288
139.255
139.228
150.114
150.291
150.387
150.501
150.608
150.718
150.833
150.964
151.117
151.292
151.472
151.628
151.717
151.704
151.584
151.406
151.289
151.413
151.99
153.214
155.205
157.969
161.381
165.198
169.105
172.767
175.882
178.213
179.599
179.955
179.267
177.582
175.016
171.74
167.968
163.918
159.774
155.672
151.719
148.048
144.841
142.308
140.596
139.698
139.425
139.486
139.616
139.676
139.65
139.586
139.524
139.474
139.429
139.39
139.357
139.33
139.302
139.271
139.241
139.22
150.17
150.348
150.443
150.556
150.663
150.775
150.898
151.04
151.206
151.386
151.559
151.684
151.721
151.648
151.487
151.321
151.303
151.636
152.527
154.138
156.535
159.653
163.306
167.207
171.027
174.441
177.179
179.042
179.907
179.727
178.519
176.367
173.415
169.861
165.924
161.807
157.667
153.624
149.795
146.339
143.46
141.343
140.06
139.507
139.433
139.551
139.654
139.669
139.62
139.554
139.497
139.45
139.409
139.373
139.343
139.316
139.286
139.255
139.229
139.213
150.226
150.405
150.499
150.61
150.719
150.836
150.968
151.123
151.299
151.479
151.631
151.714
151.693
151.566
151.386
151.274
151.412
152.01
153.258
155.273
158.056
161.477
165.293
169.191
172.839
175.936
178.246
179.609
179.941
179.229
177.524
174.943
171.66
167.886
163.836
159.689
155.582
151.629
147.969
144.789
142.288
140.602
139.712
139.432
139.482
139.608
139.67
139.649
139.587
139.524
139.472
139.428
139.39
139.357
139.329
139.301
139.27
139.241
139.22
139.207
150.282
150.461
150.553
150.665
150.777
150.901
151.045
151.212
151.394
151.564
151.684
151.713
151.633
151.466
151.302
151.294
151.645
152.56
154.196
156.613
159.745
163.402
167.299
171.107
174.504
177.223
179.063
179.905
179.701
178.471
176.3
173.338
169.78
165.842
161.723
157.579
153.533
149.709
146.274
143.425
141.337
140.071
139.518
139.434
139.544
139.646
139.666
139.62
139.555
139.497
139.449
139.408
139.373
139.343
139.315
139.285
139.255
139.23
139.213
139.199
150.339
150.516
150.608
150.721
150.838
150.972
151.129
151.306
151.485
151.634
151.71
151.681
151.547
151.365
151.259
151.411
152.031
153.304
155.342
158.142
161.572
165.388
169.278
172.911
175.989
178.278
179.618
179.926
179.191
177.466
174.87
171.58
167.805
163.753
159.603
155.491
151.539
147.893
144.738
142.269
140.606
139.724
139.438
139.479
139.6
139.664
139.647
139.588
139.524
139.471
139.428
139.39
139.357
139.328
139.299
139.269
139.242
139.221
139.206
139.188
150.394
150.571
150.663
150.78
150.904
151.051
151.219
151.401
151.568
151.683
151.705
151.617
151.446
151.283
151.286
151.655
152.593
154.253
156.692
159.837
163.499
167.391
171.186
174.567
177.265
179.083
179.902
179.674
178.422
176.234
173.261
169.699
165.76
161.638
157.49
153.442
149.626
146.21
143.39
141.331
140.08
139.528
139.436
139.538
139.639
139.662
139.62
139.555
139.496
139.448
139.408
139.373
139.342
139.313
139.284
139.255
139.231
139.213
139.197
139.175
150.45
150.625
150.719
150.841
150.977
151.135
151.313
151.491
151.636
151.705
151.668
151.528
151.345
151.245
151.411
152.052
153.35
155.411
158.229
161.667
165.483
169.364
172.982
176.042
178.309
179.626
179.911
179.152
177.407
174.798
171.501
167.723
163.669
159.516
155.4
151.451
147.818
144.689
142.25
140.609
139.735
139.445
139.476
139.592
139.658
139.645
139.588
139.524
139.471
139.427
139.389
139.357
139.327
139.298
139.269
139.242
139.221
139.205
139.186
139.161
150.505
150.68
150.778
150.909
151.056
151.226
151.408
151.573
151.682
151.696
151.601
151.425
151.265
151.278
151.665
152.627
154.312
156.77
159.929
163.595
167.482
171.265
174.63
177.308
179.103
179.898
179.646
178.372
176.168
173.185
169.618
165.677
161.553
157.401
153.351
149.543
146.148
143.357
141.324
140.089
139.537
139.438
139.532
139.632
139.658
139.619
139.556
139.496
139.447
139.407
139.372
139.341
139.312
139.283
139.255
139.231
139.213
139.196
139.174
139.147
150.559
150.737
150.84
150.982
151.142
151.321
151.497
151.638
151.7
151.655
151.509
151.325
151.231
151.412
152.074
153.396
155.481
158.315
161.762
165.578
169.45
173.054
176.095
178.34
179.634
179.895
179.113
177.349
174.726
171.422
167.641
163.585
159.428
155.31
151.364
147.745
144.642
142.231
140.612
139.745
139.451
139.474
139.586
139.652
139.643
139.588
139.524
139.47
139.426
139.389
139.356
139.326
139.297
139.268
139.242
139.222
139.204
139.185
139.161
139.135
150.614
150.796
150.908
151.062
151.233
151.414
151.577
151.68
151.687
151.584
151.405
151.247
151.271
151.676
152.661
154.37
156.849
160.021
163.69
167.573
171.344
174.692
177.349
179.123
179.894
179.618
178.323
176.102
173.108
169.537
165.594
161.466
157.311
153.261
149.462
146.087
143.324
141.317
140.097
139.546
139.44
139.528
139.625
139.654
139.618
139.556
139.496
139.447
139.406
139.372
139.341
139.311
139.282
139.255
139.231
139.213
139.195
139.173
139.148
139.126
150.67
150.859
150.983
151.149
151.327
151.503
151.639
151.695
151.642
151.49
151.305
151.218
151.414
152.097
153.444
155.55
158.402
161.857
165.672
169.535
173.124
176.147
178.371
179.641
179.878
179.074
177.29
174.654
171.343
167.558
163.5
159.339
155.219
151.277
147.674
144.595
142.212
140.613
139.755
139.457
139.472
139.58
139.647
139.641
139.588
139.524
139.469
139.425
139.388
139.356
139.326
139.296
139.268
139.243
139.222
139.203
139.184
139.16
139.136
139.118
150.728
150.928
151.064
151.241
151.421
151.581
151.678
151.678
151.568
151.385
151.23
151.265
151.689
152.697
154.43
156.929
160.113
163.786
167.663
171.423
174.753
177.391
179.141
179.888
179.589
178.273
176.036
173.032
169.456
165.51
161.379
157.22
153.172
149.382
146.028
143.292
141.31
140.103
139.554
139.442
139.523
139.619
139.65
139.617
139.556
139.495
139.446
139.406
139.371
139.34
139.31
139.282
139.255
139.232
139.212
139.193
139.172
139.148
139.126
139.112
150.789
151.004
151.152
151.335
151.509
151.64
151.689
151.629
151.471
151.285
151.206
151.416
152.121
153.491
155.621
158.488
161.952
165.766
169.621
173.195
176.198
178.401
179.648
179.861
179.034
177.232
174.583
171.264
167.476
163.414
159.25
155.128
151.191
147.604
144.55
142.193
140.614
139.763
139.462
139.471
139.574
139.641
139.638
139.588
139.525
139.469
139.425
139.388
139.355
139.325
139.295
139.268
139.243
139.222
139.203
139.182
139.159
139.136
139.118
139.106
150.855
151.087
151.244
151.429
151.584
151.676
151.668
151.551
151.365
151.213
151.259
151.702
152.733
154.489
157.008
160.205
163.881
167.753
171.501
174.815
177.432
179.16
179.883
179.56
178.223
175.97
172.957
169.375
165.426
161.292
157.13
153.083
149.304
145.97
143.261
141.303
140.109
139.562
139.444
139.519
139.613
139.646
139.616
139.556
139.495
139.445
139.405
139.371
139.339
139.31
139.281
139.255
139.232
139.212
139.193
139.171
139.147
139.126
139.111
139.104
150.927
151.176
151.339
151.515
151.641
151.683
151.615
151.452
151.266
151.194
151.42
152.146
153.54
155.691
158.575
162.047
165.859
169.705
173.265
176.249
178.43
179.654
179.843
178.993
177.173
174.511
171.185
167.393
163.328
159.161
155.038
151.107
147.535
144.505
142.175
140.615
139.771
139.467
139.47
139.569
139.636
139.636
139.587
139.525
139.469
139.424
139.387
139.354
139.324
139.295
139.267
139.243
139.221
139.202
139.181
139.159
139.136
139.118
139.106
139.107
151.005
151.27
151.431
151.588
151.673
151.658
151.534
151.345
151.197
151.254
151.715
152.77
154.55
157.088
160.297
163.976
167.843
171.579
174.875
177.472
179.177
179.876
179.53
178.172
175.904
172.881
169.294
165.341
161.204
157.039
152.994
149.226
145.913
143.23
141.295
140.115
139.569
139.446
139.516
139.608
139.642
139.614
139.556
139.495
139.445
139.404
139.37
139.339
139.309
139.28
139.254
139.232
139.212
139.192
139.17
139.147
139.126
139.11
139.105
139.12
151.089
151.366
151.515
151.642
151.676
151.601
151.433
151.247
151.182
151.424
152.171
153.589
155.762
158.662
162.141
165.953
169.79
173.335
176.3
178.459
179.659
179.824
178.952
177.114
174.44
171.106
167.309
163.241
159.071
154.947
151.023
147.468
144.462
142.156
140.615
139.778
139.472
139.469
139.564
139.631
139.633
139.587
139.525
139.468
139.423
139.386
139.354
139.323
139.294
139.267
139.243
139.221
139.201
139.181
139.158
139.135
139.116
139.106
139.111
139.139
151.178
151.459
151.586
151.671
151.647
151.516
151.325
151.181
151.25
151.73
152.807
154.61
157.167
160.388
164.071
167.933
171.657
174.936
177.512
179.194
179.869
179.5
178.122
175.838
172.805
169.212
165.256
161.115
156.948
152.906
149.15
145.858
143.2
141.287
140.119
139.576
139.448
139.513
139.603
139.638
139.613
139.556
139.495
139.444
139.404
139.369
139.338
139.308
139.28
139.254
139.231
139.211
139.191
139.169
139.146
139.125
139.109
139.107
139.124
139.161
151.27
151.543
151.637
151.67
151.586
151.414
151.228
151.171
151.429
152.197
153.639
155.833
158.749
162.236
166.046
169.874
173.404
176.35
178.487
179.663
179.805
178.911
177.055
174.368
171.027
167.226
163.154
158.98
154.857
150.94
147.402
144.42
142.138
140.614
139.785
139.477
139.468
139.559
139.626
139.63
139.586
139.525
139.468
139.423
139.386
139.353
139.323
139.294
139.267
139.242
139.221
139.201
139.18
139.157
139.134
139.115
139.106
139.114
139.141
139.176
151.361
151.613
151.662
151.637
151.499
151.305
151.165
151.246
151.744
152.845
154.671
157.247
160.48
164.166
168.022
171.734
174.996
177.551
179.211
179.862
179.47
178.072
175.773
172.73
169.132
165.17
161.026
156.858
152.819
149.075
145.804
143.17
141.278
140.123
139.582
139.45
139.51
139.598
139.634
139.611
139.555
139.495
139.444
139.403
139.369
139.337
139.308
139.28
139.254
139.231
139.211
139.19
139.168
139.145
139.124
139.109
139.109
139.128
139.159
139.18
151.447
151.661
151.657
151.573
151.395
151.211
151.163
151.436
152.227
153.692
155.907
158.838
162.332
166.14
169.959
173.473
176.399
178.513
179.665
179.782
178.867
176.993
174.294
170.945
167.139
163.064
158.888
154.766
150.858
147.336
144.378
142.12
140.613
139.791
139.482
139.468
139.555
139.622
139.627
139.585
139.525
139.468
139.422
139.385
139.352
139.322
139.293
139.266
139.242
139.221
139.2
139.179
139.156
139.133
139.115
139.107
139.117
139.144
139.171
139.173
151.523
151.682
151.62
151.481
151.282
151.145
151.236
151.751
152.873
154.72
157.315
160.56
164.251
168.105
171.807
175.055
177.593
179.232
179.862
179.449
178.033
175.721
172.668
169.063
165.097
160.947
156.776
152.74
149.006
145.753
143.142
141.27
140.127
139.588
139.452
139.507
139.593
139.63
139.609
139.555
139.495
139.444
139.403
139.368
139.337
139.307
139.279
139.254
139.231
139.21
139.19
139.167
139.144
139.123
139.109
139.111
139.131
139.159
139.175
139.156
151.58
151.668
151.551
151.379
151.201
151.17
151.469
152.29
153.787
156.029
158.977
162.475
166.275
170.075
173.562
176.455
178.533
179.648
179.73
178.784
176.885
174.169
170.81
166.999
162.922
158.747
154.634
150.743
147.249
144.322
142.095
140.61
139.797
139.487
139.468
139.551
139.617
139.624
139.583
139.524
139.467
139.421
139.384
139.351
139.321
139.292
139.266
139.242
139.22
139.199
139.178
139.155
139.132
139.115
139.109
139.121
139.145
139.168
139.167
139.129
151.624
151.64
151.469
151.264
151.108
151.179
151.673
152.774
154.606
157.19
160.433
164.131
168.001
171.728
175.007
177.579
179.255
179.919
179.536
178.145
175.852
172.813
169.215
165.248
161.09
156.903
152.846
149.091
145.817
143.188
141.301
140.144
139.594
139.45
139.502
139.589
139.629
139.611
139.558
139.498
139.445
139.404
139.369
139.338
139.308
139.28
139.255
139.232
139.211
139.19
139.168
139.144
139.122
139.109
139.112
139.133
139.161
139.177
139.159
139.093
151.615
151.501
151.303
151.162
151.212
151.649
152.653
154.354
156.792
159.895
163.484
167.294
171.021
174.359
177.042
178.869
179.712
179.52
178.319
176.2
173.31
169.826
165.937
161.824
157.655
153.591
149.8
146.457
143.721
141.696
140.392
139.712
139.477
139.484
139.563
139.616
139.613
139.569
139.51
139.456
139.411
139.375
139.343
139.313
139.285
139.259
139.236
139.215
139.194
139.171
139.148
139.127
139.114
139.114
139.129
139.154
139.169
139.156
139.1
139
)
;

boundaryField
{
    bottomwall
    {
        type            opaque;
        refValue        nonuniform List<scalar> 
60
(
143.315
145.512
146.764
147.542
148.056
148.413
148.672
148.871
149.031
149.169
149.293
149.411
149.525
149.634
149.739
149.841
149.944
150.048
150.155
150.266
150.379
150.494
150.609
150.723
150.834
150.948
151.071
151.214
151.384
151.57
151.742
151.854
151.861
151.76
151.617
151.59
151.91
152.831
154.552
157.148
160.527
164.434
168.51
172.364
175.655
178.13
179.645
180.139
179.608
178.088
175.65
172.415
168.566
164.345
160.038
155.917
152.185
148.914
145.933
142.631
)
;
        refGradient     uniform 0;
        valueFraction   uniform 1;