/*--------------------------------*- C++ -*----------------------------------*\
| =========                 |                                                 |
| \\      /  F ield         | OpenFOAM: The Open Source CFD Toolbox           |
|  \\    /   O peration     | Version:  2406                                  |
|   \\  /    A nd           | Website:  www.openfoam.com                      |
|    \\/     M anipulation  |                                                 |
\*---------------------------------------------------------------------------*/
FoamFile
{
    version     2.0;
    format      ascii;
    arch        "LSB;label=32;scalar=64";
    class       volScalarField;
    location    "10000";
    object      ILambda_14_0;
}
// * * * * * * * * * * * * * * * * * * * * * * * * * * * * * * * * * * * * * //

dimensions      [1 0 -3 0 0 0 0];

internalField   nonuniform List<scalar> 
3600
(
139.74
139.76
139.77
139.783
139.794
139.805
139.816
139.826
139.835
139.843
139.85
139.855
139.86
139.862
139.863
139.862
139.859
139.854
139.847
139.838
139.827
139.814
139.799
139.781
139.761
139.739
139.715
139.689
139.661
139.631
139.6
139.566
139.531
139.495
139.457
139.418
139.377
139.335
139.293
139.249
139.204
139.159
139.112
139.065
139.017
138.969
138.921
138.872
138.824
138.776
138.729
138.683
138.639
138.597
138.558
138.524
138.494
138.47
138.452
138.442
139.625
139.641
139.651
139.663
139.676
139.69
139.704
139.719
139.734
139.75
139.766
139.782
139.798
139.813
139.828
139.843
139.857
139.869
139.881
139.891
139.9
139.907
139.913
139.916
139.917
139.916
139.913
139.908
139.9
139.89
139.877
139.862
139.845
139.825
139.804
139.78
139.754
139.726
139.696
139.664
139.631
139.596
139.559
139.521
139.481
139.44
139.397
139.352
139.306
139.258
139.207
139.154
139.099
139.041
138.981
138.918
138.852
138.784
138.713
138.64
139.59
139.596
139.601
139.607
139.614
139.621
139.63
139.639
139.649
139.66
139.671
139.684
139.697
139.71
139.724
139.738
139.753
139.767
139.782
139.796
139.81
139.824
139.836
139.848
139.858
139.868
139.876
139.882
139.886
139.889
139.89
139.888
139.884
139.878
139.869
139.858
139.845
139.829
139.811
139.791
139.769
139.745
139.719
139.691
139.662
139.631
139.6
139.567
139.533
139.499
139.464
139.428
139.392
139.355
139.317
139.279
139.239
139.199
139.157
139.114
139.575
139.576
139.578
139.579
139.582
139.585
139.589
139.593
139.599
139.605
139.611
139.619
139.628
139.637
139.647
139.659
139.671
139.683
139.697
139.711
139.725
139.74
139.755
139.771
139.786
139.801
139.816
139.83
139.844
139.856
139.868
139.878
139.887
139.894
139.9
139.903
139.904
139.903
139.9
139.894
139.885
139.874
139.861
139.845
139.826
139.805
139.781
139.755
139.727
139.698
139.666
139.633
139.599
139.563
139.527
139.49
139.452
139.413
139.375
139.336
139.574
139.574
139.573
139.573
139.573
139.573
139.573
139.574
139.575
139.577
139.579
139.582
139.585
139.589
139.594
139.599
139.606
139.613
139.622
139.631
139.641
139.652
139.664
139.676
139.69
139.704
139.718
139.733
139.749
139.764
139.78
139.796
139.811
139.826
139.84
139.854
139.866
139.877
139.887
139.895
139.902
139.906
139.909
139.909
139.906
139.902
139.894
139.884
139.871
139.856
139.838
139.817
139.794
139.769
139.741
139.712
139.68
139.647
139.613
139.577
139.574
139.575
139.575
139.575
139.575
139.575
139.574
139.574
139.573
139.573
139.572
139.572
139.573
139.573
139.574
139.575
139.577
139.579
139.582
139.586
139.591
139.596
139.602
139.61
139.618
139.627
139.636
139.647
139.659
139.672
139.685
139.699
139.714
139.729
139.745
139.76
139.776
139.792
139.808
139.824
139.839
139.853
139.866
139.878
139.888
139.897
139.904
139.909
139.912
139.913
139.912
139.907
139.9
139.891
139.878
139.863
139.845
139.825
139.802
139.776
139.564
139.568
139.57
139.572
139.573
139.574
139.575
139.575
139.575
139.575
139.575
139.575
139.574
139.573
139.573
139.572
139.572
139.571
139.571
139.572
139.572
139.573
139.575
139.577
139.58
139.583
139.587
139.592
139.598
139.605
139.613
139.622
139.632
139.642
139.654
139.666
139.68
139.694
139.709
139.724
139.74
139.756
139.773
139.789
139.805
139.821
139.837
139.852
139.866
139.878
139.89
139.899
139.908
139.914
139.918
139.919
139.919
139.915
139.909
139.901
139.543
139.55
139.553
139.557
139.56
139.563
139.566
139.568
139.57
139.572
139.573
139.574
139.575
139.575
139.576
139.575
139.575
139.575
139.574
139.573
139.573
139.572
139.571
139.571
139.57
139.57
139.571
139.571
139.573
139.574
139.577
139.58
139.584
139.589
139.594
139.601
139.608
139.617
139.626
139.637
139.648
139.661
139.674
139.688
139.703
139.719
139.735
139.751
139.768
139.785
139.802
139.818
139.834
139.85
139.865
139.878
139.89
139.901
139.91
139.917
139.513
139.521
139.525
139.531
139.535
139.54
139.544
139.549
139.552
139.556
139.56
139.563
139.565
139.568
139.57
139.572
139.573
139.574
139.575
139.576
139.576
139.576
139.575
139.575
139.574
139.573
139.573
139.572
139.571
139.57
139.57
139.569
139.569
139.57
139.571
139.572
139.574
139.577
139.581
139.585
139.59
139.597
139.604
139.612
139.621
139.632
139.643
139.655
139.669
139.683
139.698
139.713
139.73
139.747
139.764
139.781
139.798
139.815
139.832
139.848
139.478
139.487
139.492
139.498
139.503
139.508
139.514
139.519
139.524
139.529
139.534
139.539
139.543
139.548
139.552
139.556
139.559
139.562
139.565
139.568
139.57
139.572
139.573
139.575
139.575
139.576
139.576
139.576
139.576
139.575
139.575
139.574
139.573
139.572
139.571
139.57
139.569
139.568
139.568
139.568
139.569
139.57
139.572
139.574
139.577
139.582
139.586
139.592
139.599
139.607
139.616
139.626
139.638
139.65
139.663
139.677
139.692
139.708
139.724
139.741
139.445
139.453
139.458
139.463
139.468
139.474
139.479
139.485
139.49
139.496
139.502
139.507
139.512
139.518
139.523
139.528
139.533
139.538
139.543
139.547
139.551
139.555
139.559
139.562
139.565
139.568
139.57
139.572
139.574
139.575
139.576
139.576
139.577
139.577
139.576
139.576
139.575
139.574
139.573
139.572
139.57
139.569
139.568
139.568
139.567
139.567
139.567
139.568
139.569
139.571
139.574
139.578
139.583
139.588
139.595
139.602
139.611
139.621
139.632
139.644
139.416
139.423
139.427
139.431
139.436
139.441
139.446
139.451
139.456
139.461
139.467
139.472
139.478
139.483
139.489
139.494
139.5
139.506
139.511
139.516
139.522
139.527
139.532
139.537
139.542
139.546
139.55
139.554
139.558
139.562
139.565
139.567
139.57
139.572
139.574
139.575
139.576
139.577
139.577
139.577
139.577
139.576
139.575
139.574
139.573
139.572
139.57
139.569
139.568
139.567
139.566
139.566
139.566
139.566
139.567
139.569
139.571
139.574
139.579
139.584
139.393
139.398
139.401
139.405
139.409
139.413
139.417
139.421
139.425
139.43
139.435
139.439
139.444
139.449
139.454
139.46
139.465
139.471
139.476
139.482
139.487
139.493
139.498
139.504
139.51
139.515
139.52
139.526
139.531
139.536
139.541
139.545
139.55
139.554
139.558
139.561
139.564
139.567
139.57
139.572
139.574
139.575
139.576
139.577
139.577
139.578
139.577
139.577
139.576
139.575
139.573
139.572
139.571
139.569
139.568
139.566
139.565
139.564
139.564
139.564
139.376
139.38
139.382
139.385
139.388
139.39
139.394
139.397
139.4
139.404
139.407
139.411
139.415
139.42
139.424
139.428
139.433
139.438
139.443
139.448
139.453
139.458
139.463
139.469
139.474
139.48
139.486
139.491
139.497
139.503
139.508
139.514
139.519
139.524
139.53
139.535
139.54
139.544
139.549
139.553
139.557
139.561
139.564
139.567
139.57
139.572
139.574
139.576
139.577
139.578
139.578
139.578
139.578
139.577
139.576
139.575
139.574
139.572
139.571
139.569
139.363
139.366
139.368
139.37
139.372
139.374
139.376
139.379
139.381
139.384
139.386
139.389
139.392
139.396
139.399
139.402
139.406
139.41
139.414
139.418
139.422
139.427
139.431
139.436
139.441
139.446
139.451
139.456
139.462
139.467
139.473
139.478
139.484
139.49
139.495
139.501
139.507
139.512
139.518
139.523
139.528
139.534
139.539
139.543
139.548
139.552
139.556
139.56
139.564
139.567
139.57
139.572
139.574
139.576
139.577
139.578
139.579
139.579
139.578
139.578
139.353
139.355
139.357
139.358
139.36
139.362
139.363
139.365
139.367
139.369
139.371
139.373
139.375
139.378
139.38
139.383
139.385
139.388
139.391
139.394
139.398
139.401
139.405
139.409
139.413
139.417
139.421
139.425
139.43
139.435
139.439
139.444
139.45
139.455
139.46
139.466
139.471
139.477
139.482
139.488
139.494
139.499
139.505
139.511
139.516
139.522
139.527
139.532
139.537
139.542
139.547
139.551
139.556
139.56
139.563
139.567
139.569
139.572
139.574
139.576
139.342
139.345
139.347
139.348
139.35
139.351
139.353
139.354
139.356
139.358
139.359
139.361
139.363
139.364
139.366
139.368
139.37
139.372
139.374
139.377
139.379
139.382
139.384
139.387
139.39
139.393
139.396
139.4
139.403
139.407
139.411
139.415
139.419
139.424
139.428
139.433
139.438
139.443
139.448
139.453
139.458
139.464
139.469
139.475
139.481
139.486
139.492
139.498
139.504
139.509
139.515
139.52
139.526
139.531
139.536
139.541
139.546
139.551
139.555
139.559
139.33
139.334
139.335
139.337
139.339
139.341
139.343
139.344
139.346
139.348
139.349
139.351
139.352
139.354
139.355
139.357
139.359
139.36
139.362
139.364
139.365
139.367
139.369
139.371
139.373
139.376
139.378
139.381
139.383
139.386
139.389
139.392
139.395
139.399
139.402
139.406
139.41
139.414
139.418
139.422
139.427
139.431
139.436
139.441
139.446
139.451
139.457
139.462
139.468
139.473
139.479
139.485
139.49
139.496
139.502
139.508
139.513
139.519
139.524
139.53
139.316
139.32
139.322
139.324
139.327
139.329
139.331
139.333
139.335
139.337
139.339
139.341
139.342
139.344
139.346
139.347
139.349
139.35
139.352
139.353
139.355
139.356
139.358
139.36
139.361
139.363
139.365
139.366
139.368
139.37
139.372
139.375
139.377
139.38
139.382
139.385
139.388
139.391
139.394
139.397
139.401
139.404
139.408
139.412
139.416
139.421
139.425
139.43
139.435
139.44
139.445
139.45
139.455
139.461
139.466
139.472
139.477
139.483
139.489
139.495
139.298
139.303
139.305
139.308
139.311
139.314
139.316
139.319
139.321
139.324
139.326
139.328
139.33
139.332
139.334
139.336
139.338
139.34
139.342
139.343
139.345
139.347
139.348
139.35
139.351
139.353
139.354
139.356
139.357
139.359
139.36
139.362
139.364
139.366
139.368
139.37
139.372
139.374
139.376
139.379
139.381
139.384
139.387
139.39
139.393
139.396
139.4
139.403
139.407
139.411
139.415
139.419
139.424
139.428
139.433
139.438
139.443
139.448
139.453
139.459
139.28
139.285
139.287
139.29
139.293
139.296
139.299
139.302
139.305
139.308
139.31
139.313
139.316
139.318
139.321
139.323
139.325
139.328
139.33
139.332
139.334
139.336
139.338
139.339
139.341
139.343
139.344
139.346
139.348
139.349
139.351
139.352
139.354
139.355
139.357
139.358
139.36
139.361
139.363
139.365
139.367
139.369
139.371
139.373
139.375
139.378
139.38
139.383
139.386
139.388
139.392
139.395
139.398
139.402
139.406
139.41
139.414
139.418
139.422
139.427
139.262
139.266
139.269
139.272
139.275
139.278
139.28
139.283
139.286
139.289
139.292
139.295
139.298
139.301
139.304
139.307
139.31
139.312
139.315
139.318
139.32
139.323
139.325
139.327
139.329
139.331
139.333
139.335
139.337
139.339
139.341
139.342
139.344
139.346
139.347
139.349
139.35
139.352
139.353
139.354
139.356
139.357
139.359
139.361
139.362
139.364
139.366
139.368
139.37
139.372
139.374
139.377
139.379
139.382
139.384
139.387
139.39
139.394
139.397
139.401
139.246
139.25
139.252
139.254
139.257
139.26
139.262
139.265
139.268
139.271
139.274
139.277
139.28
139.283
139.286
139.289
139.292
139.295
139.298
139.301
139.303
139.306
139.309
139.312
139.314
139.317
139.32
139.322
139.324
139.327
139.329
139.331
139.333
139.335
139.337
139.338
139.34
139.342
139.343
139.345
139.347
139.348
139.349
139.351
139.352
139.354
139.355
139.357
139.358
139.36
139.362
139.363
139.365
139.367
139.369
139.371
139.373
139.376
139.378
139.381
139.234
139.237
139.238
139.24
139.242
139.244
139.246
139.249
139.251
139.254
139.256
139.259
139.261
139.264
139.267
139.27
139.273
139.276
139.279
139.282
139.285
139.288
139.291
139.294
139.297
139.3
139.303
139.306
139.308
139.311
139.314
139.316
139.319
139.321
139.324
139.326
139.328
139.33
139.332
139.334
139.336
139.338
139.34
139.341
139.343
139.344
139.346
139.347
139.349
139.35
139.352
139.353
139.355
139.356
139.358
139.359
139.361
139.363
139.364
139.366
139.225
139.227
139.228
139.229
139.231
139.232
139.234
139.236
139.238
139.239
139.241
139.244
139.246
139.248
139.25
139.253
139.255
139.258
139.261
139.263
139.266
139.269
139.272
139.275
139.278
139.281
139.284
139.287
139.29
139.293
139.296
139.299
139.302
139.305
139.308
139.311
139.313
139.316
139.318
139.321
139.323
139.325
139.328
139.33
139.332
139.334
139.336
139.337
139.339
139.341
139.342
139.344
139.345
139.347
139.348
139.35
139.351
139.353
139.354
139.356
139.218
139.22
139.22
139.222
139.223
139.224
139.225
139.226
139.227
139.229
139.23
139.232
139.233
139.235
139.237
139.239
139.241
139.243
139.245
139.247
139.249
139.252
139.254
139.257
139.26
139.263
139.265
139.268
139.271
139.274
139.277
139.28
139.283
139.286
139.289
139.292
139.295
139.298
139.301
139.304
139.307
139.31
139.313
139.315
139.318
139.32
139.323
139.325
139.327
139.329
139.331
139.333
139.335
139.337
139.339
139.34
139.342
139.343
139.345
139.346
139.211
139.213
139.214
139.215
139.216
139.217
139.218
139.219
139.22
139.221
139.222
139.223
139.224
139.226
139.227
139.228
139.23
139.231
139.233
139.234
139.236
139.238
139.24
139.242
139.244
139.246
139.249
139.251
139.254
139.256
139.259
139.262
139.264
139.267
139.27
139.273
139.276
139.279
139.282
139.286
139.289
139.292
139.295
139.298
139.301
139.304
139.306
139.309
139.312
139.315
139.317
139.32
139.322
139.324
139.327
139.329
139.331
139.333
139.335
139.336
139.203
139.206
139.207
139.208
139.209
139.21
139.212
139.213
139.214
139.215
139.216
139.217
139.218
139.219
139.22
139.221
139.222
139.223
139.224
139.225
139.226
139.228
139.229
139.23
139.232
139.234
139.235
139.237
139.239
139.241
139.243
139.245
139.248
139.25
139.253
139.255
139.258
139.261
139.264
139.267
139.269
139.272
139.275
139.279
139.282
139.285
139.288
139.291
139.294
139.297
139.3
139.303
139.306
139.309
139.311
139.314
139.317
139.319
139.322
139.324
139.193
139.196
139.198
139.199
139.201
139.202
139.204
139.205
139.207
139.208
139.209
139.21
139.211
139.212
139.213
139.214
139.215
139.216
139.217
139.218
139.219
139.22
139.221
139.222
139.223
139.224
139.226
139.227
139.228
139.23
139.231
139.233
139.235
139.236
139.238
139.24
139.242
139.245
139.247
139.249
139.252
139.254
139.257
139.26
139.263
139.266
139.269
139.272
139.275
139.278
139.281
139.284
139.287
139.29
139.293
139.296
139.299
139.302
139.305
139.308
139.181
139.184
139.186
139.188
139.19
139.192
139.194
139.196
139.197
139.199
139.201
139.202
139.203
139.205
139.206
139.207
139.209
139.21
139.211
139.212
139.213
139.214
139.215
139.216
139.217
139.218
139.219
139.22
139.221
139.222
139.223
139.224
139.225
139.226
139.228
139.229
139.231
139.232
139.234
139.236
139.238
139.24
139.242
139.244
139.246
139.248
139.251
139.254
139.256
139.259
139.262
139.265
139.268
139.271
139.274
139.277
139.28
139.283
139.286
139.289
139.167
139.171
139.173
139.175
139.177
139.179
139.182
139.184
139.186
139.188
139.19
139.192
139.193
139.195
139.197
139.199
139.2
139.202
139.203
139.205
139.206
139.207
139.208
139.209
139.211
139.212
139.213
139.214
139.215
139.215
139.216
139.217
139.218
139.219
139.22
139.221
139.222
139.223
139.225
139.226
139.227
139.228
139.23
139.231
139.233
139.235
139.237
139.239
139.241
139.243
139.245
139.248
139.25
139.253
139.255
139.258
139.261
139.264
139.267
139.27
139.154
139.157
139.159
139.161
139.163
139.166
139.168
139.17
139.172
139.175
139.177
139.179
139.181
139.183
139.185
139.187
139.189
139.191
139.193
139.195
139.197
139.198
139.2
139.201
139.203
139.204
139.205
139.207
139.208
139.209
139.21
139.211
139.212
139.213
139.214
139.215
139.216
139.217
139.218
139.219
139.22
139.221
139.222
139.223
139.224
139.225
139.226
139.228
139.229
139.231
139.232
139.234
139.236
139.238
139.24
139.242
139.244
139.247
139.249
139.252
139.141
139.144
139.146
139.148
139.15
139.152
139.154
139.156
139.158
139.161
139.163
139.165
139.167
139.169
139.172
139.174
139.176
139.178
139.18
139.183
139.185
139.187
139.189
139.191
139.193
139.194
139.196
139.198
139.199
139.201
139.202
139.204
139.205
139.206
139.208
139.209
139.21
139.211
139.212
139.213
139.214
139.215
139.216
139.217
139.217
139.218
139.219
139.22
139.221
139.222
139.223
139.225
139.226
139.227
139.229
139.23
139.232
139.233
139.235
139.237
139.13
139.133
139.134
139.136
139.138
139.14
139.141
139.143
139.145
139.147
139.149
139.151
139.153
139.156
139.158
139.16
139.162
139.164
139.167
139.169
139.171
139.173
139.176
139.178
139.18
139.182
139.184
139.186
139.188
139.19
139.192
139.194
139.196
139.197
139.199
139.201
139.202
139.203
139.205
139.206
139.207
139.208
139.21
139.211
139.212
139.213
139.213
139.214
139.215
139.216
139.217
139.218
139.219
139.22
139.221
139.222
139.223
139.224
139.225
139.227
139.121
139.123
139.124
139.126
139.127
139.129
139.131
139.132
139.134
139.136
139.137
139.139
139.141
139.143
139.145
139.147
139.149
139.151
139.153
139.155
139.157
139.159
139.161
139.164
139.166
139.168
139.17
139.173
139.175
139.177
139.179
139.182
139.184
139.186
139.188
139.19
139.192
139.194
139.195
139.197
139.199
139.2
139.202
139.203
139.204
139.206
139.207
139.208
139.209
139.21
139.211
139.212
139.213
139.214
139.215
139.216
139.217
139.217
139.218
139.219
139.113
139.115
139.116
139.117
139.118
139.12
139.121
139.123
139.124
139.126
139.127
139.129
139.13
139.132
139.133
139.135
139.137
139.138
139.14
139.142
139.144
139.146
139.148
139.15
139.152
139.154
139.156
139.159
139.161
139.163
139.165
139.168
139.17
139.172
139.174
139.177
139.179
139.181
139.183
139.185
139.187
139.189
139.191
139.193
139.195
139.197
139.198
139.2
139.201
139.203
139.204
139.205
139.207
139.208
139.209
139.21
139.211
139.212
139.213
139.214
139.106
139.107
139.108
139.109
139.111
139.112
139.113
139.114
139.116
139.117
139.118
139.12
139.121
139.122
139.124
139.125
139.127
139.128
139.13
139.131
139.133
139.134
139.136
139.138
139.139
139.141
139.143
139.145
139.147
139.149
139.151
139.153
139.156
139.158
139.16
139.162
139.165
139.167
139.169
139.172
139.174
139.176
139.178
139.181
139.183
139.185
139.187
139.189
139.191
139.193
139.195
139.196
139.198
139.199
139.201
139.202
139.204
139.205
139.206
139.207
139.103
139.103
139.103
139.104
139.105
139.105
139.106
139.107
139.108
139.109
139.11
139.112
139.113
139.114
139.115
139.117
139.118
139.119
139.121
139.122
139.123
139.125
139.126
139.128
139.129
139.131
139.132
139.134
139.135
139.137
139.139
139.141
139.143
139.144
139.146
139.148
139.151
139.153
139.155
139.157
139.159
139.162
139.164
139.166
139.169
139.171
139.173
139.176
139.178
139.18
139.182
139.184
139.186
139.188
139.19
139.192
139.194
139.196
139.198
139.199
139.104
139.103
139.103
139.103
139.102
139.103
139.103
139.103
139.103
139.104
139.105
139.105
139.106
139.107
139.108
139.109
139.11
139.112
139.113
139.114
139.115
139.116
139.118
139.119
139.12
139.122
139.123
139.124
139.126
139.127
139.129
139.13
139.132
139.133
139.135
139.136
139.138
139.14
139.142
139.144
139.146
139.148
139.15
139.152
139.154
139.156
139.159
139.161
139.163
139.166
139.168
139.17
139.173
139.175
139.177
139.179
139.182
139.184
139.186
139.188
139.113
139.11
139.109
139.107
139.106
139.105
139.104
139.104
139.103
139.103
139.103
139.103
139.103
139.103
139.103
139.104
139.104
139.105
139.106
139.107
139.108
139.109
139.11
139.111
139.113
139.114
139.115
139.116
139.118
139.119
139.12
139.121
139.123
139.124
139.125
139.127
139.128
139.129
139.131
139.132
139.134
139.136
139.137
139.139
139.141
139.143
139.145
139.147
139.149
139.151
139.154
139.156
139.158
139.16
139.163
139.165
139.167
139.17
139.172
139.174
139.131
139.125
139.123
139.12
139.117
139.115
139.113
139.111
139.109
139.108
139.107
139.106
139.105
139.104
139.103
139.103
139.103
139.102
139.103
139.103
139.103
139.104
139.104
139.105
139.106
139.107
139.108
139.109
139.11
139.111
139.113
139.114
139.115
139.116
139.117
139.119
139.12
139.121
139.122
139.123
139.125
139.126
139.127
139.129
139.13
139.132
139.133
139.135
139.137
139.139
139.14
139.142
139.144
139.146
139.149
139.151
139.153
139.155
139.157
139.16
139.161
139.151
139.147
139.142
139.137
139.133
139.13
139.126
139.123
139.121
139.118
139.116
139.114
139.112
139.11
139.108
139.107
139.106
139.105
139.104
139.103
139.103
139.102
139.102
139.102
139.103
139.103
139.104
139.104
139.105
139.106
139.107
139.108
139.109
139.11
139.111
139.113
139.114
139.115
139.116
139.117
139.118
139.119
139.121
139.122
139.123
139.124
139.126
139.127
139.128
139.13
139.131
139.133
139.134
139.136
139.138
139.14
139.142
139.144
139.146
139.201
139.189
139.183
139.175
139.169
139.162
139.156
139.151
139.146
139.142
139.137
139.134
139.13
139.127
139.124
139.122
139.119
139.117
139.114
139.112
139.111
139.109
139.107
139.106
139.105
139.104
139.103
139.103
139.102
139.102
139.102
139.103
139.103
139.104
139.104
139.105
139.106
139.107
139.108
139.109
139.11
139.111
139.113
139.114
139.115
139.116
139.117
139.118
139.119
139.12
139.121
139.123
139.124
139.125
139.126
139.128
139.129
139.131
139.132
139.134
139.226
139.223
139.219
139.213
139.207
139.2
139.193
139.186
139.179
139.172
139.166
139.16
139.155
139.15
139.146
139.142
139.138
139.135
139.131
139.128
139.125
139.123
139.12
139.117
139.115
139.113
139.111
139.109
139.107
139.106
139.105
139.104
139.103
139.103
139.102
139.102
139.102
139.103
139.103
139.104
139.105
139.105
139.106
139.107
139.108
139.109
139.11
139.111
139.113
139.114
139.115
139.116
139.117
139.118
139.119
139.12
139.121
139.122
139.123
139.125
139.184
139.209
139.215
139.222
139.224
139.225
139.223
139.219
139.214
139.208
139.202
139.195
139.188
139.182
139.176
139.17
139.164
139.159
139.154
139.15
139.146
139.142
139.139
139.136
139.132
139.129
139.126
139.123
139.121
139.118
139.115
139.113
139.111
139.109
139.107
139.106
139.105
139.104
139.103
139.102
139.102
139.102
139.102
139.103
139.103
139.104
139.105
139.106
139.106
139.107
139.108
139.109
139.11
139.112
139.113
139.114
139.115
139.116
139.117
139.118
139.022
139.085
139.112
139.142
139.165
139.184
139.199
139.21
139.218
139.222
139.223
139.222
139.219
139.214
139.209
139.203
139.197
139.19
139.184
139.178
139.173
139.168
139.163
139.159
139.154
139.151
139.147
139.144
139.14
139.137
139.134
139.13
139.127
139.124
139.121
139.118
139.116
139.113
139.111
139.109
139.107
139.106
139.104
139.104
139.103
139.102
139.102
139.102
139.102
139.103
139.103
139.104
139.105
139.106
139.107
139.108
139.109
139.11
139.111
139.112
138.768
138.843
138.885
138.934
138.98
139.023
139.062
139.097
139.128
139.154
139.175
139.192
139.204
139.213
139.218
139.22
139.22
139.217
139.213
139.209
139.203
139.197
139.192
139.186
139.181
139.175
139.171
139.166
139.162
139.159
139.155
139.152
139.148
139.145
139.141
139.138
139.135
139.131
139.128
139.125
139.121
139.118
139.116
139.113
139.111
139.109
139.107
139.105
139.104
139.103
139.103
139.102
139.102
139.102
139.103
139.103
139.104
139.104
139.105
139.106
138.619
138.627
138.653
138.684
138.723
138.767
138.814
138.863
138.911
138.958
139.003
139.045
139.082
139.115
139.143
139.166
139.184
139.198
139.208
139.214
139.217
139.217
139.215
139.212
139.207
139.202
139.197
139.192
139.187
139.182
139.178
139.174
139.17
139.166
139.163
139.16
139.156
139.153
139.15
139.146
139.143
139.139
139.135
139.132
139.128
139.125
139.122
139.118
139.116
139.113
139.111
139.109
139.107
139.105
139.104
139.103
139.103
139.102
139.102
139.102
138.918
138.76
138.714
138.663
138.637
138.625
138.628
138.644
138.67
138.705
138.747
138.792
138.841
138.89
138.939
138.985
139.029
139.068
139.103
139.133
139.157
139.177
139.192
139.203
139.209
139.213
139.213
139.212
139.209
139.205
139.201
139.196
139.191
139.187
139.183
139.179
139.176
139.173
139.17
139.167
139.164
139.161
139.158
139.155
139.151
139.147
139.144
139.14
139.136
139.132
139.129
139.125
139.122
139.118
139.115
139.113
139.11
139.108
139.107
139.105
139.952
139.583
139.424
139.24
139.091
138.961
138.855
138.771
138.709
138.666
138.642
138.634
138.642
138.661
138.692
138.73
138.774
138.822
138.871
138.921
138.969
139.014
139.056
139.092
139.124
139.15
139.171
139.186
139.197
139.204
139.208
139.209
139.208
139.205
139.202
139.198
139.194
139.19
139.187
139.184
139.181
139.178
139.176
139.174
139.171
139.169
139.166
139.163
139.159
139.156
139.152
139.148
139.144
139.14
139.136
139.132
139.129
139.125
139.121
139.118
141.68
141.17
140.913
140.61
140.334
140.072
139.83
139.608
139.409
139.232
139.08
138.952
138.847
138.766
138.707
138.668
138.648
138.646
138.658
138.682
138.717
138.759
138.806
138.856
138.907
138.956
139.003
139.046
139.084
139.117
139.144
139.165
139.181
139.192
139.199
139.203
139.203
139.202
139.2
139.197
139.194
139.191
139.188
139.186
139.184
139.182
139.18
139.179
139.177
139.175
139.173
139.17
139.167
139.164
139.161
139.157
139.153
139.149
139.145
139.141
143.642
143.158
142.88
142.546
142.219
141.889
141.562
141.24
140.927
140.626
140.341
140.073
139.825
139.599
139.397
139.219
139.066
138.939
138.837
138.759
138.704
138.67
138.656
138.66
138.678
138.708
138.748
138.794
138.844
138.896
138.947
138.996
139.04
139.079
139.113
139.14
139.161
139.177
139.187
139.193
139.196
139.197
139.195
139.193
139.191
139.189
139.187
139.185
139.184
139.184
139.183
139.182
139.181
139.18
139.179
139.177
139.174
139.172
139.169
139.165
145.196
144.892
144.691
144.442
144.178
143.894
143.593
143.278
142.952
142.618
142.279
141.939
141.601
141.269
140.947
140.637
140.344
140.069
139.815
139.585
139.379
139.2
139.047
138.921
138.822
138.749
138.7
138.673
138.667
138.678
138.704
138.741
138.787
138.838
138.891
138.944
138.994
139.039
139.079
139.113
139.139
139.159
139.173
139.182
139.187
139.188
139.188
139.187
139.185
139.184
139.183
139.183
139.183
139.183
139.184
139.184
139.184
139.183
139.182
139.181
145.959
145.866
145.787
145.681
145.554
145.404
145.229
145.03
144.806
144.558
144.289
143.999
143.691
143.368
143.033
142.688
142.339
141.988
141.64
141.297
140.965
140.645
140.343
140.059
139.799
139.563
139.353
139.172
139.02
138.897
138.803
138.736
138.696
138.679
138.683
138.705
138.74
138.786
138.838
138.894
138.948
139
139.046
139.085
139.117
139.141
139.158
139.169
139.175
139.178
139.178
139.178
139.177
139.177
139.177
139.178
139.18
139.181
139.182
139.183
146.072
146.082
146.085
146.083
146.072
146.05
146.014
145.96
145.887
145.79
145.67
145.524
145.352
145.153
144.928
144.677
144.403
144.107
143.792
143.461
143.116
142.762
142.402
142.04
141.68
141.326
140.981
140.649
140.335
140.041
139.771
139.528
139.314
139.132
138.981
138.863
138.777
138.722
138.695
138.692
138.711
138.747
138.795
138.85
138.908
138.965
139.017
139.062
139.098
139.125
139.144
139.156
139.162
139.165
139.166
139.166
139.167
139.169
139.171
139.173
146.017
145.999
146.002
146.008
146.022
146.041
146.063
146.085
146.106
146.12
146.126
146.12
146.097
146.056
145.993
145.905
145.791
145.648
145.478
145.279
145.052
144.799
144.52
144.219
143.898
143.56
143.207
142.844
142.473
142.099
141.725
141.355
140.993
140.645
140.314
140.006
139.724
139.472
139.253
139.071
138.926
138.819
138.748
138.712
138.706
138.726
138.766
138.819
138.879
138.941
138.998
139.048
139.087
139.115
139.133
139.143
139.148
139.15
139.152
139.155
146.08
146.036
146.007
145.977
145.951
145.932
145.921
145.92
145.929
145.948
145.976
146.011
146.051
146.092
146.131
146.165
146.188
146.197
146.189
146.159
146.104
146.023
145.912
145.772
145.602
145.403
145.175
144.921
144.641
144.339
144.016
143.674
143.315
142.943
142.56
142.169
141.775
141.383
140.997
140.623
140.269
139.939
139.64
139.378
139.157
138.982
138.853
138.769
138.73
138.728
138.757
138.809
138.873
138.941
139.003
139.054
139.09
139.113
139.124
139.129
145.916
146.03
146.036
146.049
146.037
146.016
145.984
145.947
145.909
145.875
145.847
145.829
145.824
145.832
145.853
145.887
145.933
145.987
146.048
146.111
146.171
146.223
146.264
146.287
146.288
146.265
146.213
146.131
146.02
145.879
145.711
145.515
145.293
145.047
144.776
144.482
144.164
143.823
143.46
143.077
142.676
142.259
141.833
141.402
140.975
140.559
140.165
139.804
139.486
139.219
139.012
138.868
138.786
138.763
138.787
138.844
138.919
138.992
139.051
139.086
144.681
145.209
145.379
145.588
145.737
145.856
145.94
145.993
146.016
146.015
145.993
145.956
145.911
145.863
145.817
145.777
145.747
145.73
145.73
145.747
145.782
145.835
145.902
145.981
146.066
146.152
146.232
146.299
146.347
146.371
146.368
146.338
146.28
146.197
146.089
145.957
145.804
145.628
145.429
145.207
144.961
144.687
144.384
144.05
143.681
143.278
142.841
142.374
141.882
141.376
140.871
140.385
139.937
139.549
139.24
139.022
138.901
138.87
138.912
138.994
141.689
142.699
143.218
143.75
144.201
144.595
144.937
145.232
145.484
145.694
145.86
145.981
146.059
146.098
146.103
146.08
146.035
145.973
145.901
145.825
145.752
145.686
145.635
145.604
145.597
145.617
145.666
145.743
145.843
145.958
146.079
146.194
146.293
146.369
146.418
146.437
146.429
146.394
146.335
146.254
146.155
146.04
145.912
145.77
145.617
145.448
145.259
145.042
144.789
144.488
144.127
143.697
143.192
142.613
141.974
141.298
140.62
139.985
139.446
139.052
)
;

boundaryField
{
    bottomwall
    {
        type            opaque;
        refValue        uniform 0;
        refGradient     uniform 0;
        valueFraction   uniform 0;
        source          uniform 0;
        value           nonuniform List<scalar> 
60
(
139.74
139.76
139.77
139.783
139.794
139.805
139.816
139.826
139.835
139.843
139.85
139.855
139.86
139.862
139.863
139.862
139.859
139.854
139.847
139.838
139.827
139.814
139.799
139.781
139.761
139.739
139.715
139.689
139.661
139.631
139.6
139.566
139.531
139.495
139.457
139.418
139.377
139.335
139.293
139.249
139.204
139.159
139.112
139.065
139.017
138.969
138.921