/*--------------------------------*- C++ -*----------------------------------*\
| =========                 |                                                 |
| \\      /  F ield         | OpenFOAM: The Open Source CFD Toolbox           |
|  \\    /   O peration     | Version:  2406                                  |
|   \\  /    A nd           | Website:  www.openfoam.com                      |
|    \\/     M anipulation  |                                                 |
\*---------------------------------------------------------------------------*/
FoamFile
{
    version     2.0;
    format      ascii;
    arch        "LSB;label=32;scalar=64";
    class       volScalarField;
    location    "10000";
    object      ILambda_7_0;
}
// * * * * * * * * * * * * * * * * * * * * * * * * * * * * * * * * * * * * * //

dimensions      [1 0 -3 0 0 0 0];

internalField   nonuniform List<scalar> 
3600
(
139.021
139.077
139.13
139.191
139.265
139.339
139.39
139.4
139.364
139.297
139.22
139.156
139.114
139.098
139.101
139.116
139.139
139.167
139.205
139.263
139.344
139.427
139.454
139.349
139.094
138.85
139.009
140.057
142.16
144.575
145.27
141.203
129.615
110.158
87.0999
70.475
75.1658
117.679
211.406
361.994
564.63
804.337
1059.2
1305.27
1521.21
1691.36
1806.25
1861.48
1855.89
1790.4
1668.14
1495.57
1283.69
1048.26
808.5
584.353
392.742
245.549
145.627
83.0362
139.116
139.164
139.224
139.303
139.381
139.426
139.415
139.353
139.262
139.174
139.112
139.084
139.084
139.101
139.125
139.153
139.185
139.228
139.291
139.379
139.466
139.483
139.342
139.037
138.776
139.035
140.361
142.843
145.419
145.513
139.559
124.746
101.644
76.6407
62.7653
77.84
139.977
261.747
445.205
679.858
944.498
1212.24
1456.76
1657.38
1801.31
1883.04
1901.77
1858.89
1756.93
1600.23
1396.85
1160.03
908.214
662.903
444.938
270.489
147.773
77.4774
46.9362
63.7233
139.157
139.211
139.29
139.373
139.421
139.412
139.35
139.26
139.175
139.117
139.092
139.092
139.108
139.129
139.154
139.183
139.223
139.282
139.366
139.454
139.484
139.37
139.085
138.806
138.978
140.154
142.492
145.06
145.42
140.072
126.131
103.925
79.4703
65.3899
79.1604
138.686
256.509
434.858
663.623
922.188
1184.44
1424.89
1623.62
1768.37
1853.73
1878.58
1843.67
1750.69
1603.15
1408.37
1179.07
933.288
692.205
476.437
301.993
177.346
102.353
70.3432
65.9496
93.6357
139.203
139.287
139.376
139.43
139.421
139.354
139.26
139.172
139.114
139.089
139.091
139.107
139.129
139.154
139.183
139.222
139.279
139.36
139.45
139.495
139.405
139.136
138.83
138.91
139.948
142.191
144.836
145.54
140.763
127.401
105.435
80.5832
65.4024
77.6558
135.83
253.124
432.205
662.973
924.373
1189.58
1432.42
1632.55
1777.66
1862.61
1886.62
1850.69
1756.51
1607.47
1410.72
1178.94
930.343
686.486
468.444
292.614
167.645
93.4562
62.4154
62.7413
78.3944
113.07
139.277
139.377
139.437
139.427
139.357
139.257
139.167
139.109
139.087
139.091
139.109
139.13
139.155
139.184
139.222
139.276
139.354
139.445
139.5
139.434
139.184
138.861
138.856
139.757
141.89
144.586
145.603
141.382
128.616
106.964
81.8442
65.7369
76.6486
133.565
250.216
429.565
661.403
924.202
1190.52
1433.72
1633.39
1777.52
1861.47
1884.93
1849.1
1755.53
1607.23
1410.97
1179.22
930.236
685.849
467.461
291.708
167.288
93.9638
63.8894
64.5822
82.6377
105.066
133.266
139.376
139.445
139.435
139.359
139.255
139.162
139.105
139.086
139.092
139.11
139.132
139.155
139.184
139.221
139.274
139.348
139.438
139.504
139.46
139.233
138.899
138.816
139.578
141.588
144.312
145.627
141.969
129.836
108.544
83.1862
66.1353
75.6325
131.184
247.099
426.692
659.687
924.095
1191.84
1435.81
1635.43
1778.98
1862.27
1885.42
1849.78
1756.73
1608.92
1412.74
1180.48
930.503
684.957
465.624
289.426
165.141
92.408
63.1274
64.5578
82.9608
106.624
127.236
145.113
139.457
139.445
139.362
139.251
139.157
139.101
139.085
139.094
139.112
139.133
139.156
139.184
139.221
139.272
139.343
139.431
139.504
139.482
139.281
138.943
138.789
139.412
141.286
144.015
145.611
142.52
131.051
110.164
84.6008
66.6033
74.6424
128.767
243.902
423.741
657.945
924.034
1193.26
1437.96
1637.44
1780.25
1862.71
1885.43
1849.91
1757.39
1610.1
1414.07
1181.38
930.484
683.866
463.698
287.186
163.183
91.1834
62.814
65.0503
83.9457
107.741
128.507
142.73
150.525
139.461
139.365
139.247
139.15
139.097
139.084
139.095
139.115
139.135
139.156
139.183
139.221
139.271
139.339
139.424
139.502
139.5
139.327
138.992
138.777
139.261
140.986
143.698
145.555
143.031
132.256
111.823
86.0934
67.1495
73.6846
126.31
240.607
420.683
656.14
923.984
1194.75
1440.21
1639.52
1781.53
1863.13
1885.4
1850.05
1758.13
1611.45
1415.6
1182.46
930.603
682.849
461.788
284.925
161.188
89.9201
62.4593
65.4874
84.8642
108.76
129.396
143.164
150.212
151.002
139.373
139.243
139.144
139.093
139.083
139.097
139.117
139.136
139.156
139.183
139.22
139.27
139.335
139.417
139.498
139.514
139.369
139.045
138.778
139.128
140.692
143.362
145.455
143.498
133.447
113.52
87.6675
67.7802
72.7639
123.815
237.211
417.511
654.27
923.952
1196.33
1442.57
1641.68
1782.82
1863.48
1885.28
1850.12
1758.85
1612.82
1417.17
1183.58
930.718
681.783
459.801
282.588
159.142
88.6432
62.1265
65.9685
85.8293
109.832
130.266
143.745
150.186
151.713
149.16
139.239
139.137
139.089
139.083
139.099
139.119
139.137
139.156
139.182
139.22
139.27
139.333
139.411
139.493
139.524
139.408
139.102
138.792
139.012
140.406
143.008
145.312
143.916
134.619
115.255
89.3266
68.5022
71.8862
121.281
233.708
414.217
652.328
923.937
1198
1445.05
1643.92
1784.11
1863.77
1885.07
1850.12
1759.55
1614.24
1418.83
1184.77
930.866
680.702
457.766
280.197
157.063
87.3637
61.8185
66.4869
86.8275
110.92
131.143
144.262
150.383
151.444
149.988
146.95
139.128
139.085
139.084
139.102
139.122
139.139
139.156
139.18
139.219
139.27
139.332
139.406
139.486
139.529
139.443
139.159
138.818
138.916
140.131
142.639
145.124
144.28
135.768
117.023
91.0742
69.3232
71.0583
118.71
230.091
410.792
650.308
923.939
1199.77
1447.66
1646.24
1785.41
1863.98
1884.74
1850.04
1760.25
1615.71
1420.57
1186.03
931.041
679.596
455.671
277.741
154.941
86.0768
61.5333
67.0429
87.8604
112.028
132.022
144.77
150.535
151.359
149.689
147.469
145.451
139.078
139.084
139.104
139.125
139.14
139.155
139.179
139.217
139.269
139.331
139.401
139.479
139.531
139.472
139.217
138.857
138.841
139.871
142.258
144.891
144.587
136.887
118.824
92.9139
70.2515
70.2877
116.103
226.356
407.227
648.204
923.958
1201.66
1450.41
1648.65
1786.71
1864.11
1884.31
1849.87
1760.92
1617.24
1422.4
1187.37
931.245
678.464
453.514
275.22
152.777
84.7854
61.2749
67.6398
88.9296
113.155
132.901
145.265
150.669
151.252
149.473
147.257
145.592
144.905
139.082
139.107
139.127
139.141
139.155
139.178
139.216
139.269
139.331
139.398
139.472
139.529
139.496
139.273
138.906
138.787
139.628
141.869
144.613
144.832
137.968
120.652
94.849
71.296
69.583
113.462
222.495
403.51
646.005
923.994
1203.65
1453.3
1651.17
1788.01
1864.16
1883.76
1849.62
1761.59
1618.82
1424.32
1188.79
931.477
677.302
451.29
272.629
150.571
83.4902
61.0451
68.2793
90.0359
114.301
133.779
145.747
150.785
151.129
149.258
147.046
145.501
144.793
145.053
139.108
139.129
139.142
139.155
139.176
139.214
139.269
139.331
139.397
139.465
139.525
139.513
139.326
138.963
138.755
139.407
141.475
144.291
145.009
139.005
122.504
96.8826
72.4664
68.954
110.79
218.501
399.629
643.704
924.045
1205.78
1456.35
1653.79
1789.31
1864.11
1883.08
1849.27
1762.24
1620.47
1426.35
1190.29
931.739
676.107
448.994
269.965
148.321
82.1927
60.8466
68.9639
91.1806
115.467
134.656
146.213
150.882
150.991
149.034
146.848
145.369
144.797
144.852
145.493
139.132
139.143
139.154
139.175
139.212
139.268
139.332
139.396
139.46
139.518
139.524
139.374
139.027
138.746
139.21
141.082
143.927
145.113
139.989
124.374
99.0176
73.7733
68.4117
108.089
214.368
395.571
641.289
924.112
1208.03
1459.57
1656.53
1790.62
1863.96
1882.25
1848.83
1762.87
1622.19
1428.49
1191.89
932.031
674.876
446.623
267.225
146.027
80.8945
60.6822
69.696
92.3645
116.651
135.529
146.662
150.959
150.838
148.804
146.65
145.252
144.754
144.903
145.318
145.916
139.145
139.154
139.173
139.211
139.266
139.333
139.397
139.456
139.51
139.528
139.415
139.095
138.759
139.042
140.695
143.521
145.141
140.909
126.255
101.256
75.2281
67.9689
105.366
210.087
391.321
638.75
924.192
1210.42
1462.98
1659.39
1791.93
1863.71
1881.28
1848.27
1763.5
1623.99
1430.74
1193.58
932.353
673.606
444.171
264.404
143.687
79.5974
60.5549
70.478
93.5887
117.853
136.399
147.093
151.016
150.67
148.568
146.453
145.14
144.721
144.919
145.372
145.811
146.18
139.153
139.172
139.209
139.265
139.333
139.398
139.454
139.502
139.528
139.448
139.163
138.792
138.906
140.32
143.079
145.088
141.757
128.138
103.6
76.8431
67.64
102.624
205.651
386.863
636.072
924.285
1212.97
1466.59
1662.38
1793.24
1863.33
1880.14
1847.6
1764.11
1625.87
1433.12
1195.37
932.705
672.291
441.631
261.499
141.3
78.3035
60.4679
71.3127
94.8543
119.073
137.263
147.505
151.051
150.488
148.326
146.259
145.034
144.695
144.94
145.41
145.845
146.141
146.277
139.17
139.207
139.263
139.333
139.4
139.453
139.495
139.523
139.472
139.23
138.843
138.804
139.965
142.606
144.95
142.519
130.013
106.05
78.6315
67.4416
99.8711
201.051
382.18
633.242
924.389
1215.68
1470.42
1665.53
1794.55
1862.82
1878.83
1846.81
1764.71
1627.85
1435.64
1197.27
933.088
670.928
438.999
258.506
138.867
77.0149
60.4247
72.2027
96.1622
120.309
138.119
147.895
151.063
150.291
148.081
146.068
144.934
144.675
144.965
145.446
145.877
146.15
146.282
146.266
139.204
139.261
139.332
139.402
139.455
139.49
139.514
139.486
139.291
138.909
138.738
139.637
142.107
144.724
143.184
131.867
108.605
80.6077
67.3925
97.1159
196.278
377.25
630.241
924.502
1218.57
1474.48
1668.83
1795.85
1862.18
1877.32
1845.88
1765.29
1629.92
1438.3
1199.28
933.501
669.511
436.267
255.419
136.386
75.7344
60.4291
73.151
97.5132
121.561
138.966
148.263
151.053
150.079
147.831
145.881
144.842
144.661
144.994
145.485
145.904
146.166
146.274
146.294
146.204
139.258
139.331
139.403
139.457
139.487
139.505
139.491
139.343
138.986
138.71
139.345
141.592
144.41
143.737
133.685
111.264
82.7869
67.5147
94.3693
191.324
372.051
627.051
924.62
1221.65
1478.8
1672.3
1797.16
1861.37
1875.62
1844.82
1765.87
1632.1
1441.12
1201.41
933.943
668.034
433.429
252.235
133.857
74.4649
60.4852
74.1605
98.9082
122.828
139.801
148.607
151.019
149.853
147.578
145.699
144.757
144.653
145.025
145.523
145.931
146.177
146.277
146.278
146.245
146.125
139.329
139.404
139.46
139.488
139.496
139.488
139.384
139.069
138.719
139.097
141.071
144.007
144.164
135.448
114.021
85.1852
67.8334
91.6447
186.177
366.557
623.649
924.741
1224.94
1483.39
1675.95
1798.47
1860.4
1873.68
1843.6
1766.45
1634.41
1444.11
1203.66
934.414
666.491
430.476
248.949
131.28
73.2097
60.5973
75.2343
100.348
124.108
140.623
148.924
150.961
149.613
147.322
145.522
144.68
144.652
145.06
145.561
145.957
146.187
146.276
146.276
146.227
146.175
146.041
139.403
139.463
139.49
139.489
139.479
139.41
139.15
138.762
138.901
140.558
143.519
144.451
137.135
116.868
87.8194
68.3776
88.9593
180.829
360.74
620.01
924.86
1228.46
1488.3
1679.81
1799.76
1859.24
1871.51
1842.22
1767.01
1636.84
1447.27
1206.05
934.912
664.874
427.401
245.556
128.654
71.9724
60.77
76.3756
101.833
125.4
141.43
149.214
150.878
149.36
147.065
145.351
144.612
144.657
145.097
145.599
145.981
146.195
146.274
146.27
146.225
146.158
146.097
145.95
139.466
139.494
139.487
139.467
139.421
139.223
138.834
138.765
140.07
142.953
144.583
138.719
119.794
90.707
69.1812
86.3341
175.27
354.567
616.103
924.972
1232.22
1493.54
1683.89
1801.05
1857.87
1869.07
1840.68
1767.58
1639.42
1450.64
1208.58
935.436
663.177
424.196
242.051
125.981
70.7572
61.0085
77.5876
103.363
126.702
142.218
149.474
150.77
149.093
146.808
145.187
144.552
144.667
145.137
145.637
146.003
146.202
146.271
146.264
146.22
146.16
146.083
146.011
145.853
139.5
139.488
139.456
139.418
139.281
138.926
138.692
139.623
142.322
144.545
140.169
122.782
93.8651
70.2835
83.7958
169.49
347.999
611.894
925.072
1236.26
1499.15
1688.21
1802.33
1856.28
1866.35
1838.95
1768.15
1642.16
1454.21
1211.25
935.983
661.39
420.85
238.429
123.26
69.5686
61.318
78.8738
104.94
128.012
142.986
149.702
150.635
148.814
146.55
145.031
144.5
144.684
145.178
145.674
146.023
146.206
146.267
146.259
146.216
146.157
146.086
145.999
145.914
145.753
139.495
139.449
139.406
139.318
139.028
138.685
139.241
141.643
144.327
141.448
125.806
97.3102
71.7305
81.3781
163.479
340.995
607.342
925.151
1240.59
1505.18
1692.79
1803.58
1854.44
1863.31
1837.03
1768.73
1645.08
1458.01
1214.08
936.551
659.503
417.354
234.684
120.492
68.4119
61.7045
80.2377
106.563
129.327
143.73
149.898
150.474
148.523
146.295
144.884
144.458
144.707
145.222
145.71
146.041
146.21
146.263
146.253
146.213
146.156
146.086
146.002
145.904
145.809
145.659
139.451
139.39
139.331
139.124
138.74
138.943
140.942
143.922
142.515
128.832
101.057
73.576
79.1236
157.23
333.502
602.399
925.2
1245.26
1511.65
1697.66
1804.82
1852.31
1859.94
1834.91
1769.33
1648.19
1462.04
1217.07
937.136
657.507
413.697
230.811
117.679
67.2926
62.1741
81.6827
108.232
130.646
144.447
150.058
150.287
148.221
146.042
144.746
144.425
144.735
145.267
145.744
146.057
146.211
146.258
146.247
146.209
146.155
146.086
146.002
145.905
145.801
145.704
145.58
139.381
139.323
139.197
138.842
138.751
140.256
143.331
143.321
131.813
105.114
75.8831
77.0872
150.737
325.463
597.006
925.21
1250.3
1518.62
1702.84
1806.01
1849.88
1856.2
1832.57
1769.95
1651.51
1466.34
1220.23
937.733
655.39
409.868
226.804
114.822
66.217
62.7334
83.2126
109.947
131.965
145.135
150.18
150.073
147.91
145.794
144.618
144.402
144.768
145.312
145.776
146.071
146.211
146.252
146.242
146.206
146.155
146.087
146.003
145.906
145.802
145.7
145.609
145.527
139.301
139.235
138.969
138.677
139.632
142.569
143.815
134.684
109.484
78.7257
75.3396
143.997
316.806
591.094
925.167
1255.74
1526.16
1708.37
1807.16
1847.1
1852.05
1830
1770.61
1655.06
1470.92
1223.57
938.339
653.139
405.855
222.658
111.924
65.1922
63.3896
84.831
111.708
133.282
145.788
150.264
149.832
147.59
145.551
144.502
144.389
144.807
145.358
145.807
146.082
146.21
146.246
146.236
146.204
146.154
146.088
146.004
145.907
145.802
145.699
145.61
145.535
145.505
139.228
139.088
138.723
139.126
141.671
143.944
137.358
114.156
82.1902
73.9734
137.013
307.449
584.576
925.055
1261.66
1534.34
1714.27
1808.25
1843.93
1847.47
1827.19
1771.32
1658.87
1475.8
1227.09
938.946
650.741
401.644
218.366
108.986
64.2258
64.1504
86.5416
113.512
134.591
146.404
150.306
149.564
147.264
145.316
144.398
144.385
144.849
145.404
145.835
146.091
146.207
146.24
146.232
146.202
146.154
146.089
146.005
145.907
145.802
145.7
145.607
145.541
145.491
145.52
139.153
138.864
138.8
140.703
143.66
139.717
119.094
86.3768
73.1114
129.797
297.29
577.344
924.855
1268.12
1543.22
1720.58
1809.24
1840.33
1842.42
1824.13
1772.09
1662.97
1480.99
1230.8
939.548
648.181
397.223
213.923
106.012
63.3264
65.0239
88.3482
115.359
135.889
146.979
150.305
149.27
146.932
145.089
144.307
144.391
144.896
145.449
145.861
146.098
146.203
146.233
146.227
146.2
146.155
146.09
146.006
145.908
145.802
145.699
145.608
145.537
145.502
145.483
145.573
139.04
138.706
139.775
142.941
141.608
124.224
91.3988
72.9187
122.38
286.204
569.262
924.542
1275.19
1552.93
1727.34
1810.12
1836.22
1836.85
1820.82
1772.94
1667.37
1486.53
1234.72
940.137
645.443
392.576
209.323
103.006
62.5034
66.019
90.2545
117.248
137.171
147.509
150.259
148.951
146.597
144.873
144.23
144.407
144.946
145.493
145.884
146.102
146.198
146.227
146.223
146.199
146.155
146.091
146.007
145.908
145.803
145.699
145.607
145.538
145.497
145.498
145.516
145.661
138.87
139.052
141.815
142.837
129.407
97.3784
73.6213
114.817
274.035
560.15
924.087
1283
1563.57
1734.58
1810.83
1831.55
1830.71
1817.25
1773.9
1672.12
1492.43
1238.83
940.704
642.511
387.689
204.559
99.9719
61.7673
67.1452
92.2643
119.175
138.432
147.987
150.166
148.607
146.26
144.669
144.166
144.432
144.999
145.535
145.904
146.104
146.192
146.22
146.219
146.198
146.156
146.092
146.007
145.908
145.803
145.699
145.607
145.537
145.497
145.492
145.533
145.588
145.778
138.764
140.426
143.176
134.396
104.433
75.5341
107.211
260.585
549.772
923.452
1291.67
1575.29
1742.35
1811.31
1826.22
1823.98
1813.42
1774.99
1677.24
1498.71
1243.16
941.241
639.367
382.544
199.625
96.9148
61.1296
68.4128
94.3814
121.137
139.667
148.411
150.025
148.24
145.925
144.48
144.118
144.465
145.054
145.575
145.92
146.104
146.185
146.214
146.216
146.198
146.157
146.093
146.008
145.909
145.803
145.699
145.607
145.536
145.496
145.492
145.527
145.607
145.695
145.912
139.106
142.406
138.762
112.635
79.1049
99.7532
245.598
537.798
922.584
1301.42
1588.31
1750.68
1811.48
1820.15
1816.6
1809.35
1776.25
1682.76
1505.4
1247.71
941.739
635.991
377.124
194.512
93.8404
60.6032
69.8329
96.6094
123.132
140.867
148.774
149.835
147.852
145.594
144.306
144.086
144.507
145.109
145.612
145.933
146.101
146.178
146.208
146.214
146.198
146.158
146.094
146.009
145.909
145.803
145.699
145.607
145.536
145.495
145.491
145.527
145.602
145.713
145.828
146.053
140.348
141.757
121.91
84.9804
92.7923
228.739
523.755
921.414
1312.51
1602.85
1759.59
1811.2
1813.22
1808.55
1805.07
1777.72
1688.71
1512.5
1252.47
942.188
632.365
371.409
189.214
90.7552
60.2027
71.4179
98.9519
125.155
142.025
149.072
149.593
147.444
145.269
144.15
144.069
144.557
145.165
145.646
145.943
146.097
146.17
146.203
146.212
146.198
146.159
146.094
146.009
145.909
145.803
145.699
145.606
145.535
145.494
145.49
145.526
145.601
145.709
145.844
145.974
146.186
141.942
131.722
94.0934
86.9952
209.559
506.933
919.84
1325.35
1619.26
1769.09
1810.29
1805.27
1799.8
1800.62
1779.44
1695.12
1520.04
1257.46
942.581
628.469
365.378
183.721
87.6663
59.9445
73.1814
101.412
127.199
143.134
149.298
149.3
147.019
144.955
144.014
144.067
144.613
145.22
145.676
145.949
146.091
146.162
146.199
146.211
146.199
146.16
146.095
146.009
145.909
145.803
145.699
145.606
145.535
145.493
145.489
145.525
145.6
145.709
145.842
145.987
146.12
146.301
140.351
107.744
83.7021
187.46
486.188
917.705
1340.56
1638.01
1779.11
1808.47
1796.15
1790.36
1796.07
1781.46
1702
1528.01
1262.69
942.917
624.284
359.008
178.021
84.5819
59.8475
75.1384
103.994
129.258
144.182
149.447
148.956
146.582
144.654
143.9
144.082
144.675
145.273
145.701
145.951
146.084
146.155
146.195
146.211
146.2
146.161
146.096
146.009
145.909
145.803
145.699
145.606
145.534
145.492
145.488
145.523
145.599
145.708
145.842
145.986
146.129
146.252
146.388
128.551
86.0486
161.716
459.532
914.745
1359.15
1659.75
1789.51
1805.31
1785.67
1780.31
1791.55
1783.83
1709.33
1536.42
1268.16
943.197
619.789
352.267
172.1
81.5117
59.9335
77.3059
106.699
131.322
145.159
149.512
148.56
146.135
144.371
143.809
144.112
144.741
145.323
145.722
145.951
146.075
146.148
146.192
146.211
146.201
146.162
146.096
146.009
145.909
145.803
145.699
145.606
145.534
145.492
145.486
145.522
145.598
145.707
145.841
145.986
146.129
146.256
146.359
146.442
104.802
132.282
423.179
910.488
1382.93
1685.49
1799.89
1800.13
1773.62
1769.82
1787.23
1786.56
1717.08
1545.24
1273.9
943.436
614.963
345.122
165.941
78.4672
60.229
79.7032
109.529
133.381
146.053
149.487
148.114
145.684
144.11
143.743
144.156
144.809
145.369
145.737
145.947
146.066
146.141
146.19
146.211
146.202
146.163
146.096
146.009
145.909
145.803
145.699
145.606
145.533
145.491
145.485
145.521
145.597
145.707
145.841
145.987
146.129
146.258
146.358
146.434
146.46
103.892
368.738
904.061
1415.57
1716.78
1809.29
1791.84
1759.87
1759.26
1783.35
1789.63
1725.15
1554.48
1279.96
943.661
609.78
337.525
159.52
75.4628
60.7655
82.352
112.486
135.421
146.848
149.367
147.621
145.234
143.875
143.703
144.213
144.878
145.41
145.747
145.941
146.057
146.136
146.188
146.212
146.204
146.164
146.097
146.009
145.909
145.803
145.699
145.606
145.533
145.49
145.484
145.52
145.595
145.706
145.841
145.987
146.13
146.258
146.361
146.429
146.474
146.444
255.065
891.297
1465.63
1756.08
1815.37
1778.66
1744.52
1749.35
1780.22
1792.92
1733.36
1564.11
1286.42
943.92
604.208
329.414
152.811
72.5182
61.5821
85.2769
115.566
137.424
147.529
149.145
147.085
144.793
143.672
143.69
144.282
144.947
145.445
145.752
145.932
146.048
146.131
146.188
146.214
146.205
146.164
146.097
146.009
145.909
145.803
145.699
145.606
145.532
145.489
145.483
145.518
145.594
145.705
145.84
145.987
146.13
146.259
146.361
146.432
146.464
146.477
146.395
805.685
1552.72
1804.85
1811.27
1757.73
1728.55
1741.45
1778.11
1796.06
1741.44
1574.15
1293.43
944.279
598.196
320.706
145.778
69.6617
62.7277
88.5052
118.766
139.37
148.078
148.818
146.511
144.369
143.503
143.704
144.361
145.012
145.473
145.752
145.922
146.04
146.128
146.189
146.215
146.206
146.164
146.097
146.009
145.909
145.803
145.699
145.605
145.532
145.488
145.482
145.517
145.593
145.704
145.84
145.987
146.131
146.259
146.362
146.432
146.468
146.463
146.444
146.318
1827.95
1833.43
1771.72
1725.8
1715.76
1737.74
1776.87
1798.25
1749.03
1584.75
1301.23
944.82
591.659
311.287
138.384
66.9345
64.2633
92.0664
122.074
141.229
148.475
148.383
145.908
143.971
143.375
143.743
144.446
145.071
145.493
145.747
145.911
146.032
146.126
146.19
146.217
146.207
146.165
146.096
146.009
145.909
145.803
145.699
145.605
145.532
145.487
145.481
145.516
145.592
145.703
145.84
145.987
146.132
146.26
146.363
146.433
146.468
146.468
146.428
146.38
146.217
1721.94
1710.32
1710.55
1719.11
1739.98
1774.7
1798.09
1755.87
1596.25
1310.18
945.608
584.456
301.008
130.593
64.3981
66.2645
95.9905
125.473
142.968
148.7
147.839
145.286
143.61
143.29
143.807
144.534
145.124
145.504
145.738
145.899
146.026
146.126
146.191
146.218
146.208
146.165
146.096
146.009
145.909
145.804
145.699
145.605
145.531
145.486
145.479
145.514
145.591
145.703
145.839
145.987
146.132
146.261
146.364
146.434
146.468
146.467
146.433
146.363
146.29
146.1
1731.89
1732.64
1730.98
1738.9
1767.13
1794.65
1762.47
1609.36
1320.64
946.633
576.369
289.69
122.382
62.1411
68.8227
100.306
128.933
144.546
148.73
147.19
144.661
143.295
143.251
143.892
144.621
145.166
145.508
145.726
145.888
146.022
146.126
146.193
146.22
146.208
146.165
146.096
146.009
145.91
145.804
145.7
145.605
145.531
145.486
145.478
145.513
145.589
145.702
145.839
145.988
146.133
146.262
146.364
146.434
146.469
146.467
146.432
146.367
146.271
146.178
145.973
1730.8
1727.17
1730.46
1756.51
1790.25
1769.97
1624.58
1332.8
947.776
567.128
277.139
113.75
60.2843
72.0458
105.034
132.414
145.912
148.546
146.444
144.049
143.039
143.26
143.994
144.704
145.197
145.504
145.712
145.879
146.019
146.128
146.195
146.221
146.208
146.164
146.096
146.009
145.91
145.804
145.7
145.605
145.53
145.485
145.477
145.512
145.588
145.701
145.839
145.988
146.134
146.263
146.365
146.435
146.469
146.468
146.433
146.367
146.276
146.16
146.052
145.843
1729.62
1728.28
1748.23
1785.22
1777.4
1641.53
1346.76
949.019
556.478
263.144
104.707
58.9838
76.0588
110.189
135.853
147.009
148.13
145.616
143.474
142.853
143.315
144.108
144.776
145.215
145.493
145.698
145.871
146.019
146.13
146.197
146.222
146.208
146.164
146.096
146.009
145.91
145.804
145.7
145.605
145.53
145.484
145.476
145.51
145.587
145.7
145.839
145.988
146.134
146.263
146.366
146.436
146.47
146.468
146.433
146.367
146.275
146.164
146.035
145.92
145.714
1728.05
1738.29
1775.92
1782.99
1660.49
1363.39
950.634
544.093
247.381
95.2616
58.4459
81.0138
115.77
139.166
147.768
147.47
144.731
142.96
142.747
143.413
144.224
144.834
145.22
145.477
145.684
145.866
146.02
146.132
146.199
146.222
146.208
146.164
146.095
146.009
145.91
145.805
145.7
145.605
145.529
145.483
145.475
145.509
145.586
145.699
145.838
145.988
146.135
146.264
146.367
146.436
146.47
146.468
146.433
146.367
146.275
146.163
146.038
145.903
145.787
145.592
1729.66
1762.29
1786.33
1682.59
1384.08
952.813
529.295
229.327
85.453
58.9814
87.1036
121.751
142.234
148.109
146.564
143.826
142.538
142.728
143.546
144.334
144.874
145.213
145.459
145.672
145.864
146.022
146.135
146.2
146.222
146.207
146.163
146.095
146.009
145.91
145.805
145.7
145.605
145.529
145.482
145.473
145.507
145.584
145.698
145.838
145.989
146.136
146.265
146.368
146.437
146.47
146.469
146.433
146.367
146.275
146.163
146.037
145.906
145.77
145.661
145.476
1741.49
1784
1708.32
1410.63
955.71
511.002
208.285
75.4575
61.0722
94.5585
128.049
144.885
147.95
145.429
142.952
142.24
142.797
143.701
144.429
144.893
145.195
145.439
145.664
145.865
146.026
146.137
146.201
146.222
146.207
146.163
146.095
146.009
145.91
145.805
145.7
145.605
145.529
145.481
145.472
145.506
145.583
145.697
145.838
145.989
146.136
146.266
146.368
146.437
146.471
146.469
146.434
146.368
146.276
146.163
146.038
145.905
145.774
145.642
145.545
145.362
1765.26
1737.76
1446.91
959.867
487.421
183.245
65.6792
65.443
103.621
134.477
146.881
147.21
144.117
142.179
142.095
142.947
143.861
144.497
144.889
145.171
145.422
145.66
145.868
146.029
146.139
146.201
146.221
146.207
146.163
146.095
146.009
145.911
145.805
145.701
145.605
145.528
145.481
145.471
145.504
145.581
145.696
145.837
145.989
146.137
146.267
146.369
146.438
146.471
146.469
146.434
146.368
146.276
146.163
146.037
145.905
145.772
145.648
145.522
145.439
145.241
1766.17
1501.31
966.166
454.856
152.584
57.0393
73.2316
114.495
140.661
147.907
145.844
142.727
141.597
142.124
143.158
144.003
144.53
144.867
145.144
145.411
145.66
145.872
146.032
146.14
146.201
146.221
146.206
146.163
146.095
146.01
145.911
145.806
145.701
145.605
145.528
145.48
145.469
145.503
145.58
145.695
145.837
145.99
146.138
146.268
146.37
146.439
146.472
146.469
146.434
146.368
146.276
146.164
146.037
145.904
145.772
145.644
145.529
145.408
145.336
145.095
1614.99
978.81
404.752
113.803
51.8668
86.2803
127.16
145.89
147.569
143.892
141.435
141.302
142.325
143.391
144.102
144.524
144.831
145.121
145.406
145.665
145.877
146.034
146.14
146.2
146.221
146.206
146.163
146.096
146.01
145.911
145.806
145.701
145.605
145.528
145.479
145.468
145.501
145.579
145.694
145.837
145.99
146.139
146.269
146.371
146.439
146.472
146.47
146.434
146.368
146.276
146.164
146.037
145.904
145.771
145.644
145.524
145.419
145.294
145.224
144.899
1064.35
317.526
65.3692
56.945
107.487
140.752
148.85
145.492
141.593
140.51
141.375
142.656
143.593
144.136
144.485
144.794
145.107
145.408
145.671
145.88
146.035
146.14
146.2
146.22
146.206
146.163
146.096
146.01
145.911
145.806
145.701
145.605
145.527
145.478
145.467
145.5
145.577
145.693
145.836
145.991
146.14
146.27
146.372
146.44
146.472
146.47
146.434
146.369
146.277
146.164
146.037
145.903
145.77
145.643
145.524
145.412
145.309
145.167
145.082
144.627
42.118
36.8903
97.4275
140.135
151.631
147.41
141.704
139.581
140.288
141.812
143.009
143.696
144.099
144.429
144.767
145.105
145.415
145.676
145.882
146.035
146.139
146.2
146.22
146.206
146.163
146.096
146.01
145.911
145.806
145.701
145.605
145.527
145.477
145.466
145.498
145.576
145.692
145.836
145.991
146.141
146.271
146.373
146.44
146.473
146.47
146.435
146.369
146.277
146.164
146.037
145.903
145.77
145.642
145.522
145.412
145.301
145.187
145.006
144.881
144.246
148.234
159.569
156.506
147.035
139.971
137.895
139.037
140.967
142.411
143.211
143.659
144.016
144.384
144.761
145.114
145.423
145.679
145.882
146.035
146.139
146.2
146.22
146.207
146.163
146.096
146.01
145.911
145.806
145.702
145.605
145.527
145.477
145.464
145.496
145.574
145.691
145.836
145.991
146.142
146.272
146.374
146.441
146.473
146.47
146.435
146.369
146.277
146.164
146.037
145.903
145.769
145.641
145.521
145.41
145.301
145.179
145.031
144.785
144.586
143.731
138.319
135.814
134.792
136.038
138.42
140.58
141.952
142.68
143.122
143.522
143.947
144.376
144.775
145.125
145.426
145.678
145.881
146.034
146.139
146.2
146.221
146.207
146.163
146.096
146.01
145.911
145.806
145.702
145.606
145.527
145.476
145.463
145.495
145.572
145.69
145.835
145.992
146.143
146.273
146.375
146.442
146.473
146.47
146.435
146.369
146.277
146.164
146.036
145.902
145.768
145.64
145.52
145.408
145.299
145.179
145.024
144.813
144.474
144.162
143.07
138.987
139.347
140.076
140.83
141.42
141.896
142.374
142.9
143.445
143.956
144.404
144.791
145.128
145.424
145.676
145.881
146.035
146.14
146.2
146.221
146.206
146.163
146.096
146.01
145.911
145.806
145.702
145.606
145.526
145.475
145.462
145.493
145.571
145.689
145.835
145.993
146.144
146.275
146.376
146.442
146.473
146.47
146.435
146.37
146.278
146.164
146.036
145.902
145.768
145.639
145.519
145.407
145.297
145.177
145.025
144.809
144.502
144.045
143.576
142.275
138.907
139.214
139.836
140.614
141.431
142.215
142.916
143.512
144.006
144.423
144.79
145.122
145.42
145.676
145.883
146.037
146.141
146.201
146.221
146.207
146.163
146.096
146.01
145.911
145.806
145.702
145.605
145.526
145.474
145.46
145.491
145.569
145.688
145.835
145.994
146.146
146.277
146.377
146.443
146.474
146.471
146.436
146.37
146.278
146.164
146.036
145.901
145.767
145.638
145.518
145.406
145.296
145.177
145.026
144.813
144.503
144.069
143.473
142.808
141.402
139.142
139.965
140.846
141.668
142.392
143.014
143.546
144.004
144.41
144.78
145.119
145.423
145.683
145.889
146.041
146.144
146.203
146.222
146.208
146.165
146.097
146.01
145.911
145.806
145.701
145.603
145.523
145.47
145.455
145.486
145.565
145.686
145.836
145.996
146.149
146.28
146.381
146.446
146.476
146.473
146.438
146.372
146.28
146.165
146.036
145.9
145.765
145.637
145.517
145.405
145.297
145.18
145.033
144.823
144.517
144.082
143.498
142.749
141.869
140.545
)
;

boundaryField
{
    bottomwall
    {
        type            opaque;
        refValue        uniform 0;
        refGradient     uniform 0;
        valueFraction   uniform 0;
        source          uniform 0;
        value           nonuniform List<scalar> 
60
(
139.021
139.077
139.13
139.191
139.265
139.339
139.39
139.4
139.364
139.297
139.22
139.156
139.114
139.098
139.101
139.116
139.139
139.167
139.205
139.263
139.344
139.427
139.454
139.349
139.094
138.85
139.009
140.057
142.16
144.575
145.27
141.203
129.615
110.158
87.0999
70.475
75.1658
117.679
211.406
361.994
564.63
804.337
1059.2
1305.27
1521.21
1691.36
1806.25
1861.48
1855.89
1790.4
1668.14
1495.57
1283.69
1048.26
808.5
584.353