/*--------------------------------*- C++ -*----------------------------------*\
| =========                 |                                                 |
| \\      /  F ield         | OpenFOAM: The Open Source CFD Toolbox           |
|  \\    /   O peration     | Version:  2406                                  |
|   \\  /    A nd           | Website:  www.openfoam.com                      |
|    \\/     M anipulation  |                                                 |
\*---------------------------------------------------------------------------*/
FoamFile
{
    version     2.0;
    format      ascii;
    arch        "LSB;label=32;scalar=64";
    class       volScalarField;
    location    "10000";
    object      ILambda_0_0;
}
// * * * * * * * * * * * * * * * * * * * * * * * * * * * * * * * * * * * * * //

dimensions      [1 0 -3 0 0 0 0];

internalField   nonuniform List<scalar> 
3600
(
142.79
145.446
146.701
147.493
148.023
148.389
148.655
148.857
149.02
149.158
149.284
149.402
149.516
149.625
149.73
149.833
149.936
150.04
150.147
150.257
150.37
150.485
150.6
150.714
150.825
150.938
151.061
151.202
151.37
151.555
151.73
151.848
151.865
151.771
151.628
151.584
151.868
152.733
154.386
156.913
160.235
164.111
168.187
172.072
175.418
177.966
179.56
180.136
179.686
178.243
175.874
172.697
168.888
164.688
160.377
156.234
152.466
149.159
146.171
142.771
141.907
145.166
146.578
147.397
147.953
148.34
148.618
148.829
148.996
149.138
149.265
149.384
149.498
149.608
149.714
149.817
149.92
150.023
150.13
150.239
150.352
150.467
150.582
150.696
150.808
150.92
151.04
151.178
151.342
151.525
151.704
151.834
151.868
151.791
151.649
151.579
151.795
152.553
154.072
156.459
159.665
163.471
167.539
171.478
174.929
177.617
179.371
180.111
179.823
178.534
176.306
173.248
169.526
165.371
161.06
156.874
153.036
149.657
146.652
143.069
141.197
144.755
146.435
147.303
147.881
148.288
148.58
148.799
148.972
149.117
149.245
149.365
149.48
149.591
149.697
149.801
149.903
150.007
150.113
150.222
150.334
150.449
150.564
150.678
150.79
150.902
151.02
151.155
151.314
151.496
151.677
151.818
151.87
151.809
151.672
151.579
151.735
152.392
153.778
156.025
159.109
162.838
166.888
170.873
174.422
177.246
179.157
180.061
179.936
178.802
176.718
173.782
170.153
166.05
161.746
157.523
153.619
150.165
147.14
143.386
140.637
144.253
146.248
147.208
147.807
148.234
148.541
148.769
148.947
149.095
149.226
149.347
149.462
149.574
149.681
149.785
149.887
149.99
150.096
150.204
150.316
150.43
150.546
150.66
150.772
150.884
151.001
151.133
151.288
151.466
151.65
151.8
151.868
151.825
151.695
151.585
151.686
152.248
153.507
155.613
158.571
162.214
166.237
170.256
173.897
176.852
178.917
179.985
180.023
179.047
177.108
174.299
170.768
166.724
162.433
158.18
154.212
150.682
147.634
143.721
140.206
143.702
146.007
147.106
147.734
148.177
148.499
148.737
148.922
149.074
149.206
149.328
149.444
149.556
149.664
149.768
149.871
149.974
150.079
150.187
150.298
150.412
150.527
150.642
150.755
150.866
150.982
151.11
151.262
151.437
151.622
151.779
151.863
151.838
151.718
151.595
151.649
152.122
153.257
155.224
158.051
161.601
165.585
169.63
173.354
176.435
178.652
179.883
180.085
179.268
177.477
174.798
171.369
167.391
163.121
158.844
154.818
151.211
148.136
144.073
139.888
143.134
145.706
146.988
147.66
148.118
148.455
148.704
148.896
149.051
149.186
149.309
149.426
149.539
149.647
149.752
149.855
149.958
150.062
150.17
150.28
150.394
150.509
150.624
150.737
150.849
150.963
151.089
151.236
151.408
151.593
151.758
151.856
151.849
151.741
151.609
151.622
152.012
153.029
154.857
157.551
160.999
164.936
168.996
172.794
175.996
178.362
179.755
180.122
179.464
177.823
175.277
171.956
168.05
163.808
159.515
155.435
151.75
148.644
144.442
139.671
142.574
145.349
146.846
147.585
148.059
148.409
148.669
148.869
149.029
149.166
149.291
149.408
149.521
149.63
149.736
149.839
149.941
150.045
150.152
150.263
150.376
150.491
150.606
150.719
150.831
150.944
151.068
151.211
151.38
151.564
151.734
151.846
151.857
151.762
151.627
151.603
151.918
152.821
154.512
157.07
160.411
164.291
168.356
172.219
175.535
178.046
179.6
180.132
179.635
178.146
175.737
172.528
168.7
164.495
160.191
156.062
152.301
149.16
144.825
139.53
142.045
144.943
146.671
147.506
147.999
148.361
148.633
148.84
149.006
149.146
149.272
149.39
149.504
149.613
149.719
149.822
149.925
150.029
150.135
150.245
150.358
150.472
150.588
150.701
150.813
150.926
151.047
151.187
151.352
151.534
151.709
151.833
151.862
151.782
151.646
151.593
151.838
152.633
154.19
156.61
159.837
163.65
167.711
171.63
175.053
177.706
179.419
180.116
179.781
178.446
176.176
173.085
169.341
165.178
160.871
156.699
152.863
149.685
145.223
139.432
141.564
144.499
146.459
147.417
147.94
148.312
148.595
148.811
148.982
149.125
149.252
149.372
149.486
149.596
149.703
149.806
149.909
150.012
150.118
150.227
150.34
150.454
150.569
150.683
150.796
150.908
151.027
151.164
151.324
151.505
151.683
151.818
151.864
151.8
151.667
151.589
151.772
152.465
153.89
156.171
159.279
163.017
167.062
171.029
174.551
177.341
179.212
180.073
179.902
178.722
176.595
173.624
169.971
165.857
161.555
157.346
153.437
150.217
145.633
139.348
141.141
144.034
146.206
147.313
147.88
148.262
148.556
148.781
148.957
149.104
149.233
149.353
149.468
149.579
149.686
149.79
149.892
149.996
150.101
150.21
150.322
150.436
150.551
150.665
150.778
150.89
151.008
151.141
151.297
151.476
151.657
151.801
151.863
151.816
151.689
151.592
151.719
152.315
153.612
155.754
158.738
162.393
166.412
170.416
174.031
176.953
178.98
180.005
179.997
178.974
176.992
174.146
170.588
166.532
162.241
158.001
154.023
150.758
146.056
139.265
140.773
143.56
145.912
147.19
147.817
148.212
148.515
148.749
148.932
149.082
149.213
149.335
149.45
149.562
149.669
149.774
149.876
149.979
150.084
150.192
150.304
150.418
150.533
150.647
150.76
150.872
150.988
151.118
151.271
151.447
151.629
151.782
151.859
151.83
151.711
151.6
151.677
152.183
153.357
155.359
158.215
161.778
165.762
169.793
173.493
176.542
178.721
179.91
180.066
179.202
177.367
174.65
171.193
167.2
162.928
158.664
154.62
151.309
146.492
139.187
140.453
143.09
145.582
147.043
147.75
148.163
148.473
148.716
148.906
149.06
149.194
149.316
149.432
149.544
149.652
149.757
149.86
149.963
150.067
150.175
150.286
150.4
150.515
150.629
150.742
150.854
150.969
151.097
151.245
151.418
151.601
151.761
151.853
151.841
151.733
151.611
151.645
152.068
153.122
154.987
157.71
161.175
165.114
169.162
172.937
176.108
178.437
179.788
180.11
179.406
177.72
175.135
171.784
167.861
163.615
159.333
155.228
151.869
146.938
139.124
140.174
142.632
145.219
146.867
147.675
148.113
148.43
148.682
148.879
149.038
149.174
149.297
149.414
149.527
149.636
149.741
149.844
149.946
150.051
150.158
150.268
150.381
150.496
150.611
150.725
150.836
150.951
151.075
151.22
151.389
151.572
151.738
151.844
151.849
151.754
151.626
151.623
151.968
152.908
154.637
157.226
160.585
164.469
168.525
172.367
175.652
178.127
179.64
180.127
179.584
178.05
175.6
172.36
168.513
164.301
160.009
155.847
152.438
147.397
139.082
139.932
142.193
144.829
146.66
147.588
148.062
148.387
148.646
148.851
149.015
149.153
149.278
149.396
149.509
149.619
149.724
149.828
149.93
150.034
150.141
150.25
150.363
150.478
150.593
150.707
150.819
150.932
151.055
151.196
151.361
151.543
151.715
151.832
151.855
151.774
151.644
151.608
151.883
152.714
154.309
156.761
160.009
163.829
167.882
171.782
175.176
177.793
179.466
180.118
179.738
178.357
176.046
172.921
169.156
164.984
160.688
156.476
153.018
147.866
139.061
139.724
141.777
144.421
146.422
147.486
148.01
148.345
148.609
148.822
148.991
149.133
149.259
149.378
149.492
149.602
149.708
149.811
149.914
150.018
150.124
150.233
150.345
150.46
150.575
150.689
150.801
150.914
151.034
151.172
151.334
151.514
151.689
151.818
151.858
151.792
151.663
151.601
151.812
152.54
154.003
156.318
159.449
163.196
167.235
171.184
174.679
177.435
179.266
180.083
179.866
178.64
176.47
173.465
169.788
165.664
161.372
157.115
153.608
148.347
139.056
139.549
141.387
143.999
146.152
147.366
147.953
148.302
148.572
148.791
148.967
149.112
149.24
149.36
149.474
149.584
149.691
149.795
149.898
150.001
150.107
150.215
150.327
150.442
150.557
150.671
150.783
150.896
151.015
151.149
151.307
151.485
151.663
151.802
151.858
151.808
151.684
151.601
151.753
152.384
153.719
155.896
158.905
162.571
166.587
170.575
174.164
177.053
179.04
180.022
179.968
178.899
176.874
173.992
170.408
166.339
162.058
157.762
154.209
148.839
139.06
139.408
141.028
143.572
145.851
147.224
147.891
148.259
148.534
148.76
148.941
149.09
149.221
149.341
149.456
149.567
149.674
149.779
149.881
149.985
150.09
150.198
150.309
150.423
150.539
150.653
150.765
150.878
150.995
151.127
151.28
151.456
151.636
151.784
151.855
151.822
151.705
151.605
151.706
152.246
153.457
155.496
158.378
161.956
165.939
169.956
173.63
176.647
178.788
179.934
180.045
179.134
177.255
174.501
171.016
167.008
162.745
158.418
154.819
149.341
139.069
139.295
140.701
143.145
145.524
147.058
147.82
148.216
148.496
148.727
148.915
149.069
149.201
149.323
149.438
149.55
149.658
149.762
149.865
149.968
150.073
150.181
150.292
150.405
150.52
150.635
150.748
150.86
150.976
151.105
151.255
151.427
151.608
151.764
151.85
151.833
151.726
151.615
151.67
152.125
153.217
155.118
157.87
161.351
165.291
169.328
173.08
176.219
178.51
179.819
180.096
179.345
177.615
174.991
171.611
167.67
163.433
159.08
155.44
149.855
139.085
139.208
140.408
142.724
145.172
146.865
147.738
148.172
148.459
148.694
148.888
149.046
149.181
149.304
149.42
149.532
149.641
149.746
149.849
149.952
150.056
150.163
150.274
150.387
150.502
150.617
150.73
150.842
150.957
151.083
151.229
151.399
151.58
151.742
151.842
151.842
151.746
151.627
151.643
152.019
152.997
154.762
157.382
160.76
164.647
168.693
172.513
175.769
178.207
179.679
180.12
179.531
177.951
175.462
172.191
168.323
164.119
159.749
156.07
150.38
139.107
139.143
140.148
142.315
144.8
146.645
147.642
148.125
148.421
148.66
148.86
149.023
149.161
149.285
149.402
149.515
149.624
149.73
149.833
149.935
150.039
150.146
150.256
150.369
150.484
150.599
150.712
150.824
150.938
151.062
151.205
151.371
151.552
151.719
151.831
151.849
151.765
151.643
151.625
151.929
152.797
154.429
156.913
160.182
164.008
168.052
171.933
175.297
177.879
179.511
180.119
179.692
178.265
175.913
172.756
168.968
164.804
160.422
156.709
150.915
139.14
139.097
139.92
141.922
144.412
146.398
147.529
148.073
148.384
148.626
148.831
148.999
149.141
149.266
149.384
149.497
149.607
149.713
149.817
149.919
150.023
150.129
150.238
150.351
150.466
150.58
150.694
150.806
150.92
151.042
151.181
151.343
151.523
151.695
151.818
151.852
151.783
151.661
151.615
151.853
152.616
154.117
156.466
159.619
163.375
167.408
171.339
174.806
177.527
179.318
180.091
179.827
178.556
176.344
173.304
169.602
165.485
161.1
157.358
151.462
139.183
139.067
139.724
141.551
144.015
146.124
147.397
148.016
148.347
148.592
148.801
148.975
149.12
149.247
149.366
149.48
149.59
149.696
149.8
149.903
150.006
150.112
150.221
150.333
150.447
150.562
150.676
150.789
150.902
151.021
151.157
151.316
151.494
151.669
151.803
151.853
151.8
151.68
151.611
151.789
152.454
153.828
156.039
159.072
162.749
166.762
170.733
174.295
177.15
179.098
180.037
179.937
178.822
176.753
173.836
170.226
166.162
161.781
158.014
152.02
139.235
139.052
139.558
141.202
143.612
145.825
147.243
147.951
148.309
148.558
148.77
148.949
149.098
149.228
149.348
149.462
149.573
149.68
149.784
149.887
149.99
150.095
150.203
150.315
150.429
150.544
150.658
150.771
150.883
151.002
151.135
151.29
151.465
151.643
151.786
151.851
151.814
151.699
151.612
151.737
152.31
153.56
155.634
158.542
162.133
166.115
170.117
173.766
176.75
178.853
179.956
180.021
179.065
177.142
174.35
170.837
166.833
162.464
158.678
152.588
139.291
139.052
139.419
140.88
143.209
145.503
147.066
147.875
148.269
148.525
148.739
148.923
149.076
149.208
149.329
149.444
149.555
149.663
149.768
149.87
149.973
150.078
150.186
150.297
150.411
150.526
150.64
150.753
150.865
150.982
151.112
151.264
151.437
151.616
151.767
151.847
151.826
151.719
151.619
151.697
152.183
153.313
155.251
158.031
161.528
165.469
169.492
173.221
176.328
178.581
179.849
180.079
179.282
177.508
174.846
171.434
167.497
163.147
159.349
153.167
139.344
139.067
139.306
140.585
142.811
145.16
146.865
147.786
148.227
148.491
148.708
148.896
149.054
149.189
149.311
149.426
149.538
149.646
149.751
149.854
149.957
150.062
150.169
150.279
150.393
150.508
150.622
150.735
150.848
150.963
151.091
151.238
151.408
151.588
151.746
151.84
151.835
151.739
151.629
151.666
152.073
153.087
154.889
157.539
160.934
164.825
168.86
172.659
175.883
178.285
179.715
180.112
179.476
177.851
175.323
172.018
168.154
163.83
160.026
153.756
139.385
139.095
139.219
140.318
142.421
144.801
146.639
147.682
148.181
148.458
148.677
148.868
149.03
149.168
149.292
149.408
149.521
149.629
149.735
149.838
149.941
150.045
150.152
150.262
150.375
150.489
150.604
150.717
150.83
150.944
151.07
151.214
151.38
151.56
151.724
151.83
151.842
151.758
151.643
151.644
151.977
152.881
154.55
157.066
160.354
164.186
168.222
172.082
175.417
177.963
179.554
180.117
179.644
178.172
175.78
172.586
168.801
164.511
160.708
154.355
139.409
139.133
139.156
140.08
142.045
144.429
146.389
147.561
148.129
148.425
148.646
148.84
149.006
149.148
149.273
149.39
149.503
149.612
149.718
149.822
149.924
150.028
150.135
150.244
150.357
150.471
150.586
150.7
150.812
150.926
151.049
151.189
151.353
151.531
151.7
151.818
151.846
151.776
151.659
151.63
151.895
152.694
154.233
156.614
159.789
163.553
167.58
171.492
174.931
177.617
179.368
180.097
179.787
178.469
176.216
173.139
169.439
165.19
161.394
154.964
139.412
139.176
139.116
139.872
141.685
144.048
146.115
147.42
148.069
148.392
148.615
148.811
148.982
149.127
149.254
149.372
149.486
149.595
149.702
149.805
149.908
150.012
150.118
150.227
150.339
150.453
150.568
150.682
150.794
150.908
151.028
151.166
151.326
151.503
151.675
151.804
151.848
151.792
151.676
151.622
151.826
152.526
153.938
156.183
159.239
162.927
166.936
170.89
174.426
177.246
179.155
180.05
179.904
178.743
176.632
173.675
170.066
165.864
162.083
155.582
139.394
139.221
139.096
139.692
141.345
143.663
145.819
147.259
148
148.357
148.585
148.782
148.956
149.105
149.235
149.354
149.468
149.578
149.685
149.789
149.892
149.995
150.101
150.209
150.321
150.435
150.55
150.664
150.776
150.889
151.009
151.143
151.299
151.474
151.649
151.788
151.847
151.806
151.695
151.621
151.77
152.377
153.664
155.773
158.707
162.31
166.29
170.278
173.902
176.852
178.916
179.976
179.995
178.992
177.027
174.194
170.68
166.534
162.773
156.208
139.359
139.262
139.093
139.542
141.027
143.276
145.502
147.075
147.919
148.319
148.555
148.753
148.93
149.083
149.216
149.336
149.45
149.561
149.668
149.773
149.876
149.979
150.084
150.192
150.303
150.417
150.531
150.646
150.759
150.871
150.989
151.12
151.273
151.446
151.623
151.769
151.843
151.818
151.714
151.625
151.725
152.244
153.411
155.384
158.192
161.704
165.645
169.656
173.36
176.435
178.651
179.876
180.061
179.218
177.4
174.695
171.282
167.197
163.465
156.843
139.312
139.294
139.104
139.419
140.733
142.893
145.168
146.869
147.824
148.277
148.526
148.724
148.904
149.06
149.196
149.317
149.432
149.544
149.651
149.756
149.859
149.962
150.067
150.174
150.285
150.398
150.513
150.628
150.741
150.853
150.97
151.098
151.247
151.418
151.596
151.749
151.837
151.828
151.733
151.632
151.69
152.127
153.179
155.018
157.696
161.109
165.003
169.027
172.803
175.996
178.361
179.749
180.1
179.418
177.75
175.177
171.87
167.853
164.156
157.486
139.262
139.315
139.125
139.322
140.465
142.518
144.82
146.641
147.714
148.231
148.497
148.696
148.877
149.037
149.175
149.299
149.415
149.526
149.635
149.74
149.843
149.946
150.05
150.157
150.267
150.38
150.495
150.61
150.723
150.835
150.951
151.077
151.222
151.39
151.568
151.728
151.828
151.835
151.751
151.644
151.664
152.026
152.966
154.673
157.219
160.527
164.364
168.391
172.231
175.536
178.045
179.595
180.113
179.594
178.078
175.64
172.444
168.5
164.845
158.135
139.214
139.324
139.151
139.25
140.224
142.153
144.459
146.39
147.587
148.177
148.467
148.668
148.85
149.013
149.155
149.28
149.397
149.509
149.618
149.723
149.827
149.93
150.034
150.14
150.25
150.362
150.477
150.592
150.705
150.817
150.932
151.056
151.198
151.362
151.54
151.705
151.817
151.84
151.768
151.658
151.646
151.939
152.774
154.35
156.763
159.96
163.731
167.752
171.645
175.055
177.705
179.415
180.1
179.744
178.382
176.082
173.002
169.138
165.532
158.79
139.172
139.322
139.179
139.199
140.012
141.803
144.091
146.118
147.441
148.115
148.435
148.641
148.822
148.988
149.134
149.261
149.379
149.491
149.601
149.707
149.811
149.913
150.017
150.123
150.232
150.344
150.459
150.573
150.687
150.8
150.914
151.036
151.174
151.335
151.512
151.681
151.804
151.843
151.784
151.674
151.635
151.866
152.6
154.049
156.327
159.407
163.105
167.109
171.046
174.555
177.341
179.209
180.06
179.868
178.663
176.504
173.543
169.765
166.215
159.451
139.139
139.31
139.205
139.166
139.827
141.471
143.718
145.825
147.274
148.042
148.402
148.614
148.795
148.963
149.112
149.242
149.361
149.474
149.583
149.69
149.794
149.897
150.001
150.106
150.215
150.326
150.44
150.555
150.669
150.782
150.895
151.015
151.151
151.308
151.483
151.656
151.789
151.842
151.798
151.691
151.63
151.804
152.444
153.769
155.912
158.872
162.487
166.465
170.437
174.036
176.953
178.977
179.994
179.967
178.919
176.905
174.067
170.381
166.892
160.116
139.116
139.292
139.227
139.149
139.669
141.158
143.344
145.514
147.087
147.957
148.365
148.587
148.768
148.938
149.09
149.222
149.342
149.456
149.566
149.673
149.778
149.881
149.984
150.089
150.197
150.308
150.422
150.537
150.651
150.764
150.877
150.996
151.128
151.282
151.455
151.63
151.771
151.84
151.811
151.709
151.631
151.755
152.306
153.51
155.519
158.354
161.88
165.822
169.819
173.499
176.542
178.719
179.9
180.04
179.152
177.284
174.574
170.984
167.564
160.784
139.102
139.269
139.245
139.143
139.537
140.868
142.973
145.187
146.879
147.858
148.323
148.561
148.742
148.912
149.067
149.202
149.324
149.439
149.549
149.657
149.761
149.865
149.968
150.072
150.18
150.291
150.404
150.519
150.633
150.746
150.859
150.976
151.106
151.256
151.427
151.603
151.752
151.834
151.821
151.727
151.637
151.715
152.184
153.272
155.147
157.854
161.284
165.18
169.193
172.946
176.108
178.435
179.781
180.087
179.36
177.64
175.062
171.574
168.228
161.455
139.096
139.244
139.256
139.146
139.43
140.602
142.609
144.847
146.649
147.743
148.275
148.534
148.716
148.886
149.043
149.182
149.305
149.421
149.532
149.64
149.745
149.848
149.951
150.056
150.163
150.273
150.386
150.501
150.615
150.728
150.841
150.957
151.085
151.231
151.399
151.576
151.732
151.827
151.829
151.744
151.646
151.685
152.077
153.054
154.796
157.373
160.7
164.542
168.56
172.378
175.653
178.126
179.634
180.107
179.542
177.975
175.53
172.149
168.883
162.128
139.098
139.219
139.261
139.155
139.345
140.361
142.255
144.496
146.399
147.611
148.22
148.506
148.692
148.86
149.019
149.161
149.287
149.403
149.515
149.623
149.729
149.832
149.935
150.039
150.146
150.255
150.368
150.482
150.597
150.71
150.823
150.938
151.063
151.207
151.371
151.548
151.709
151.817
151.834
151.761
151.658
151.663
151.985
152.855
154.468
156.913
160.13
163.909
167.923
171.796
175.178
177.792
179.461
180.101
179.7
178.286
175.979
172.709
169.529
162.801
139.107
139.196
139.261
139.167
139.28
140.145
141.914
144.138
146.128
147.461
148.155
148.477
148.667
148.835
148.995
149.14
149.268
149.385
149.497
149.606
149.712
149.816
149.919
150.022
150.128
150.238
150.35
150.464
150.579
150.693
150.805
150.92
151.043
151.183
151.344
151.52
151.686
151.804
151.837
151.777
151.672
151.649
151.906
152.675
154.161
156.472
159.576
163.283
167.282
171.202
174.682
177.433
179.262
180.068
179.832
178.573
176.408
173.254
170.164
163.474
139.122
139.176
139.256
139.18
139.232
139.955
141.588
143.776
145.839
147.291
148.079
148.444
148.643
148.81
148.97
149.118
149.248
149.367
149.48
149.589
149.695
149.799
149.902
150.006
150.112
150.22
150.332
150.446
150.561
150.675
150.787
150.901
151.022
151.159
151.317
151.492
151.661
151.79
151.838
151.791
151.688
151.641
151.84
152.514
153.875
156.053
159.037
162.665
166.64
170.596
174.168
177.051
179.036
180.009
179.938
178.837
176.815
173.781
170.787
164.145
139.142
139.16
139.246
139.192
139.198
139.791
141.282
143.413
145.534
147.102
147.991
148.407
148.62
148.785
148.946
149.095
149.228
149.349
149.462
149.572
149.679
149.783
149.886
149.989
150.095
150.203
150.314
150.428
150.543
150.657
150.769
150.883
151.002
151.136
151.291
151.464
151.636
151.773
151.836
151.804
151.704
151.639
151.786
152.37
153.61
155.654
158.516
162.056
165.997
169.981
173.636
176.646
178.784
179.923
180.019
179.077
177.201
174.291
171.398
164.814
139.167
139.148
139.234
139.203
139.177
139.65
140.995
143.052
145.213
146.892
147.888
148.365
148.596
148.761
148.921
149.073
149.208
149.33
149.445
149.555
149.662
149.767
149.87
149.973
150.078
150.185
150.296
150.41
150.524
150.639
150.752
150.865
150.983
151.114
151.265
151.436
151.61
151.755
151.832
151.814
151.721
151.642
151.742
152.242
153.366
155.277
158.013
161.458
165.357
169.358
173.088
176.218
178.507
179.81
180.073
179.291
177.565
174.783
171.994
165.48
139.194
139.142
139.221
139.211
139.165
139.532
140.731
142.698
144.88
146.662
147.77
148.316
148.571
148.738
148.896
149.049
149.188
149.312
149.427
149.537
149.645
149.75
149.854
149.957
150.061
150.168
150.278
150.392
150.506
150.621
150.734
150.847
150.964
151.092
151.24
151.408
151.583
151.735
151.825
151.822
151.738
151.649
151.708
152.13
153.142
154.921
157.528
160.873
164.719
168.728
172.524
175.769
178.204
179.671
180.1
179.481
177.906
175.256
172.576
166.14
139.223
139.141
139.207
139.216
139.161
139.434
140.489
142.353
144.538
146.413
147.634
148.259
148.544
148.716
148.872
149.026
149.167
149.293
149.409
149.52
149.628
149.734
149.837
149.94
150.044
150.151
150.261
150.374
150.488
150.603
150.716
150.829
150.945
151.071
151.215
151.381
151.556
151.714
151.815
151.829
151.755
151.659
151.682
152.032
152.938
154.587
157.063
160.301
164.087
168.093
171.946
175.299
177.877
179.505
180.102
179.646
178.224
175.71
173.143
166.796
139.252
139.146
139.193
139.217
139.161
139.356
140.271
142.02
144.189
146.145
147.481
148.191
148.516
148.694
148.848
149.002
149.145
149.274
149.391
149.503
149.611
149.717
149.821
149.924
150.028
150.134
150.243
150.356
150.47
150.584
150.698
150.811
150.926
151.05
151.191
151.353
151.528
151.691
151.804
151.832
151.77
151.671
151.665
151.948
152.752
154.274
156.618
159.744
163.46
167.454
171.356
174.809
177.525
179.312
180.076
179.785
178.519
176.143
173.692
167.445
139.278
139.155
139.182
139.216
139.164
139.294
140.076
141.701
143.836
145.86
147.309
148.113
148.483
148.673
148.825
148.978
149.123
149.254
149.373
149.486
149.594
149.701
149.805
149.908
150.011
150.117
150.226
150.338
150.452
150.566
150.68
150.793
150.907
151.029
151.168
151.327
151.5
151.667
151.79
151.833
151.784
151.685
151.654
151.878
152.585
153.983
156.194
159.203
162.842
166.814
170.754
174.3
177.149
179.093
180.024
179.899
178.79
176.556
174.225
168.086
139.3
139.169
139.173
139.213
139.169
139.248
139.905
141.399
143.482
145.559
147.118
148.022
148.446
148.651
148.803
148.954
149.101
149.234
149.355
149.468
149.577
149.684
149.788
149.891
149.995
150.1
150.208
150.32
150.433
150.548
150.662
150.775
150.889
151.009
151.145
151.3
151.473
151.642
151.775
151.832
151.797
151.701
151.649
151.819
152.435
153.712
155.791
158.679
162.232
166.173
170.142
173.773
176.749
178.848
179.945
179.986
179.037
176.947
174.74
168.718
139.318
139.186
139.167
139.208
139.174
139.213
139.756
141.116
143.131
145.245
146.908
147.916
148.403
148.629
148.782
148.931
149.078
149.214
149.337
149.451
149.56
149.667
149.772
149.875
149.978
150.083
150.191
150.302
150.415
150.53
150.644
150.757
150.87
150.99
151.122
151.274
151.445
151.617
151.757
151.828
151.808
151.717
151.649
151.77
152.301
153.462
155.408
158.172
161.633
165.533
169.522
173.229
176.327
178.577
179.839
180.048
179.26
177.317
175.235
169.341
139.331
139.205
139.165
139.202
139.179
139.189
139.628
140.852
142.786
144.919
146.679
147.795
148.353
148.606
148.761
148.907
149.055
149.193
149.318
149.433
149.543
149.65
149.755
149.859
149.962
150.066
150.174
150.284
150.397
150.512
150.626
150.739
150.852
150.97
151.1
151.249
151.417
151.59
151.738
151.822
151.816
151.733
151.653
151.732
152.184
153.232
155.047
157.684
161.046
164.897
168.895
172.669
175.883
178.281
179.707
180.083
179.457
177.665
175.712
169.953
139.341
139.224
139.167
139.195
139.183
139.172
139.52
140.61
142.448
144.584
146.431
147.657
148.294
148.581
148.741
148.885
149.032
149.172
149.299
149.415
149.526
149.634
149.739
149.842
149.946
150.05
150.157
150.266
150.379
150.494
150.608
150.721
150.834
150.951
151.078
151.224
151.39
151.563
151.718
151.814
151.823
151.749
151.661
151.703
152.081
153.022
154.708
157.215
160.473
164.264
168.262
172.096
175.419
177.96
179.548
180.091
179.629
177.99
176.168
170.554
139.347
139.244
139.172
139.189
139.186
139.163
139.43
140.389
142.122
144.243
146.166
147.502
148.225
148.552
148.721
148.863
149.009
149.151
149.28
149.397
149.509
149.617
149.722
149.826
149.929
150.033
150.139
150.249
150.361
150.475
150.59
150.703
150.816
150.932
151.057
151.2
151.363
151.536
151.696
151.803
151.827
151.764
151.671
151.681
151.992
152.83
154.389
156.765
159.913
163.638
167.626
171.509
174.934
177.614
179.362
180.073
179.776
178.292
176.603
171.142
139.348
139.263
139.18
139.185
139.188
139.158
139.356
140.19
141.809
143.898
145.885
147.329
148.144
148.52
148.702
148.842
148.986
149.129
149.26
149.379
149.492
149.6
149.706
149.81
149.913
150.017
150.122
150.231
150.343
150.457
150.572
150.685
150.798
150.913
151.037
151.176
151.336
151.509
151.672
151.791
151.829
151.778
151.684
151.667
151.917
152.657
154.092
156.336
159.369
163.019
166.987
170.911
174.43
177.244
179.15
180.028
179.897
178.57
177.017
171.717
139.34
139.281
139.191
139.181
139.188
139.156
139.297
140.012
141.511
143.553
145.589
147.137
148.051
148.483
148.682
148.822
148.963
149.106
149.24
149.361
149.474
149.583
149.689
149.793
149.897
150
150.106
150.214
150.325
150.439
150.554
150.668
150.78
150.895
151.016
151.153
151.309
151.481
151.648
151.776
151.828
151.79
151.698
151.659
151.853
152.502
153.816
155.928
158.842
162.408
166.348
170.303
173.907
176.85
178.912
179.956
179.992
178.824
177.41
172.278
139.323
139.298
139.204
139.18
139.187
139.156
139.251
139.856
141.23
143.21
145.28
146.927
147.943
148.439
148.662
148.802
148.941
149.084
149.219
149.343
149.457
149.566
149.672
149.777
149.88
149.984
150.089
150.197
150.307
150.421
150.535
150.65
150.763
150.876
150.996
151.13
151.283
151.454
151.623
151.759
151.825
151.801
151.713
151.656
151.8
152.363
153.56
155.541
158.332
161.808
165.709
169.686
173.369
176.434
178.648
179.858
180.061
179.055
177.779
172.824
139.295
139.311
139.22
139.181
139.186
139.158
139.216
139.719
140.967
142.872
144.96
146.699
147.819
148.388
148.639
148.784
148.919
149.061
149.198
149.324
149.439
149.549
149.656
149.76
149.864
149.967
150.072
150.179
150.29
150.403
150.517
150.632
150.745
150.858
150.977
151.108
151.258
151.426
151.597
151.741
151.82
151.81
151.728
151.658
151.758
152.24
153.324
155.174
157.839
161.219
165.072
169.06
172.813
175.995
178.357
179.732
180.103
179.26
178.126
173.354
139.258
139.321
139.237
139.185
139.185
139.161
139.19
139.602
140.725
142.543
144.635
146.456
147.682
148.328
148.616
148.766
148.898
149.039
149.177
149.305
149.421
149.532
149.639
149.744
149.848
149.951
150.055
150.162
150.272
150.385
150.499
150.614
150.727
150.84
150.957
151.086
151.233
151.399
151.571
151.721
151.813
151.817
151.743
151.664
151.725
152.132
153.108
154.831
157.369
160.647
164.445
168.435
172.248
175.54
178.046
179.582
180.12
179.441
178.448
173.865
139.212
139.322
139.255
139.192
139.184
139.164
139.172
139.501
140.497
142.214
144.29
146.183
147.517
148.253
148.586
148.747
148.878
149.016
149.155
149.285
149.403
149.514
149.622
149.727
149.831
149.934
150.038
150.144
150.254
150.366
150.48
150.595
150.708
150.821
150.938
151.064
151.208
151.371
151.543
151.699
151.802
151.821
151.758
151.673
151.7
152.037
152.907
154.499
156.903
160.069
163.799
167.779
171.644
175.041
177.691
179.393
180.104
179.597
178.754
174.375
139.168
139.323
139.271
139.199
139.184
139.166
139.159
139.423
140.314
141.943
144.001
145.951
147.376
148.189
148.561
148.733
148.861
148.997
149.136
149.268
149.388
149.5
149.607
149.713
149.817
149.92
150.024
150.13
150.239
150.351
150.465
150.579
150.693
150.806
150.922
151.046
151.187
151.348
151.52
151.68
151.793
151.825
151.771
151.682
151.682
151.963
152.746
154.231
156.523
159.594
163.265
167.235
171.14
174.623
177.39
179.229
180.084
179.72
179.001
174.792
139.067
139.299
139.294
139.218
139.187
139.17
139.149
139.322
140.036
141.481
143.457
145.469
147.051
148.021
148.494
148.702
148.832
148.962
149.101
149.235
149.358
149.471
149.58
149.686
149.79
149.894
149.997
150.103
150.211
150.322
150.436
150.55
150.664
150.777
150.892
151.013
151.15
151.305
151.476
151.641
151.769
151.823
151.789
151.703
151.669
151.862
152.5
153.792
155.873
158.751
162.286
166.204
170.154
173.771
176.743
178.831
179.955
179.864
179.384
175.518
)
;

boundaryField
{
    bottomwall
    {
        type            opaque;
        refValue        nonuniform List<scalar> 
60
(
143.315
145.512
146.764
147.542
148.056
148.413
148.672
148.871
149.031
149.169
149.293
149.411
149.525
149.634
149.739
149.841
149.944
150.048
150.155
150.266
150.379
150.494
150.609
150.723
150.834
150.948
151.071
151.214
151.384
151.57
151.742
151.854
151.861
151.76
151.617
151.59
151.91
152.831
154.552
157.148
160.527
164.434
168.51
172.364
175.655
178.13
179.645
180.139
179.608
178.088
175.65
172.415
168.566
164.345
160.038
155.917
152.185
148.914
145.933
142.631
)
;
        refGradient     uniform 0;
        valueFraction   uniform 1;