/*--------------------------------*- C++ -*----------------------------------*\
| =========                 |                                                 |
| \\      /  F ield         | OpenFOAM: The Open Source CFD Toolbox           |
|  \\    /   O peration     | Version:  2406                                  |
|   \\  /    A nd           | Website:  www.openfoam.com                      |
|    \\/     M anipulation  |                                                 |
\*---------------------------------------------------------------------------*/
FoamFile
{
    version     2.0;
    format      ascii;
    arch        "LSB;label=32;scalar=64";
    class       volScalarField;
    location    "10000";
    object      ILambda_2_0;
}
// * * * * * * * * * * * * * * * * * * * * * * * * * * * * * * * * * * * * * //

dimensions      [1 0 -3 0 0 0 0];

internalField   nonuniform List<scalar> 
3600
(
141.037
144.224
146.183
147.263
147.873
148.265
148.552
148.775
148.954
149.103
149.233
149.354
149.469
149.579
149.686
149.79
149.893
149.996
150.102
150.21
150.322
150.437
150.552
150.666
150.778
150.891
151.008
151.141
151.298
151.476
151.657
151.802
151.864
151.817
151.691
151.595
151.725
152.326
153.629
155.778
158.767
162.425
166.442
170.44
174.045
176.955
178.97
179.985
179.971
178.943
176.958
174.111
170.553
166.498
162.211
157.974
154.028
150.515
147.466
143.63
139.233
141.341
143.936
145.966
147.215
147.904
148.299
148.566
148.776
148.951
149.101
149.233
149.354
149.469
149.579
149.686
149.79
149.893
149.997
150.102
150.211
150.322
150.437
150.552
150.666
150.778
150.891
151.01
151.144
151.301
151.477
151.653
151.791
151.849
151.805
151.692
151.62
151.779
152.405
153.72
155.86
158.821
162.436
166.409
170.37
173.953
176.856
178.875
179.899
179.893
178.874
176.899
174.066
170.53
166.502
162.242
158.03
154.064
150.781
146.092
138.922
139.555
141.463
143.825
145.825
147.154
147.911
148.328
148.587
148.783
148.952
149.1
149.233
149.355
149.469
149.579
149.686
149.79
149.893
149.997
150.102
150.211
150.323
150.437
150.551
150.665
150.778
150.891
151.011
151.146
151.303
151.479
151.652
151.786
151.84
151.794
151.684
151.622
151.795
152.436
153.761
155.901
158.85
162.446
166.397
170.34
173.913
176.815
178.838
179.869
179.869
178.854
176.881
174.052
170.522
166.503
162.266
158
154.446
149.032
139.04
138.939
139.747
141.551
143.763
145.719
147.092
147.905
148.349
148.608
148.794
148.954
149.099
149.232
149.355
149.47
149.58
149.686
149.79
149.893
149.997
150.102
150.211
150.323
150.437
150.551
150.665
150.777
150.89
151.011
151.148
151.306
151.482
151.653
151.782
151.83
151.78
151.67
151.615
151.8
152.456
153.792
155.936
158.88
162.462
166.396
170.323
173.887
176.787
178.814
179.851
179.856
178.842
176.869
174.04
170.511
166.517
162.19
158.46
152.42
139.178
138.94
139.001
139.886
141.617
143.723
145.636
147.033
147.891
148.363
148.627
148.807
148.958
149.099
149.231
149.354
149.47
149.58
149.686
149.79
149.893
149.997
150.103
150.211
150.323
150.437
150.551
150.664
150.776
150.89
151.012
151.15
151.31
151.485
151.654
151.778
151.819
151.764
151.654
151.605
151.803
152.474
153.822
155.971
158.91
162.48
166.398
170.31
173.865
176.763
178.794
179.836
179.844
178.831
176.857
174.024
170.523
166.408
162.702
156.201
139.284
139.11
138.901
139.066
139.993
141.67
143.694
145.568
146.978
147.872
148.371
148.645
148.82
148.964
149.1
149.23
149.354
149.47
149.58
149.686
149.79
149.893
149.997
150.103
150.211
150.323
150.437
150.551
150.664
150.776
150.89
151.012
151.152
151.313
151.488
151.654
151.772
151.807
151.748
151.638
151.596
151.807
152.491
153.852
156.006
158.941
162.499
166.4
170.299
173.845
176.74
178.774
179.82
179.831
178.821
176.84
174.038
170.391
166.957
160.264
139.382
139.269
139.056
138.885
139.126
140.079
141.713
143.672
145.511
146.928
147.85
148.375
148.66
148.834
148.972
149.102
149.23
149.353
149.469
149.58
149.686
149.79
149.893
149.997
150.103
150.212
150.323
150.437
150.55
150.663
150.775
150.889
151.013
151.154
151.316
151.491
151.654
151.767
151.795
151.732
151.623
151.587
151.81
152.509
153.881
156.04
158.971
162.517
166.403
170.288
173.825
176.718
178.754
179.804
179.82
178.803
176.857
173.894
170.964
164.433
139.458
139.387
139.243
139.015
138.883
139.181
140.152
141.75
143.655
145.462
146.881
147.827
148.376
148.673
148.847
148.98
149.105
149.23
149.352
149.469
149.58
149.686
149.79
149.893
149.997
150.103
150.212
150.323
150.437
150.55
150.662
150.774
150.889
151.014
151.157
151.32
151.494
151.653
151.761
151.784
151.716
151.608
151.579
151.814
152.527
153.91
156.073
159
162.535
166.407
170.278
173.806
176.696
178.733
179.789
179.8
178.822
176.707
174.472
168.484
139.462
139.455
139.383
139.215
138.984
138.89
139.232
140.215
141.783
143.642
145.419
146.838
147.803
148.374
148.684
148.86
148.988
149.108
149.23
149.351
149.468
149.58
149.686
149.79
149.893
149.997
150.103
150.212
150.323
150.437
150.55
150.662
150.774
150.889
151.015
151.159
151.323
151.496
151.652
151.755
151.772
151.7
151.593
151.571
151.818
152.545
153.939
156.106
159.029
162.552
166.41
170.268
173.787
176.675
178.715
179.765
179.818
178.672
177.264
172.179
139.377
139.451
139.455
139.374
139.189
138.962
138.901
139.28
140.27
141.811
143.63
145.381
146.798
147.779
148.37
148.693
148.872
148.997
149.113
149.231
149.35
149.467
149.579
149.686
149.79
149.894
149.997
150.103
150.212
150.324
150.436
150.549
150.661
150.773
150.889
151.016
151.162
151.326
151.498
151.651
151.748
151.76
151.685
151.579
151.564
151.823
152.563
153.967
156.138
159.057
162.57
166.413
170.259
173.769
176.655
178.688
179.78
179.674
179.175
175.297
139.245
139.371
139.447
139.452
139.361
139.164
138.946
138.915
139.325
140.32
141.837
143.62
145.346
146.76
147.756
148.365
148.7
148.883
149.006
149.117
149.232
149.35
149.466
149.579
149.686
149.79
149.894
149.998
150.104
150.212
150.324
150.436
150.549
150.661
150.772
150.889
151.017
151.164
151.329
151.5
151.65
151.742
151.748
151.67
151.565
151.558
151.828
152.58
153.995
156.17
159.084
162.587
166.417
170.249
173.754
176.627
178.698
179.647
180.091
177.653
139.132
139.251
139.367
139.444
139.447
139.344
139.14
138.934
138.932
139.367
140.365
141.86
143.612
145.316
146.726
147.732
148.358
148.705
148.894
149.016
149.123
149.234
149.35
149.466
149.578
149.686
149.791
149.894
149.998
150.104
150.213
150.324
150.436
150.549
150.66
150.772
150.889
151.019
151.167
151.332
151.502
151.648
151.735
151.736
151.655
151.552
151.552
151.833
152.598
154.022
156.201
159.111
162.604
166.421
170.243
173.73
176.633
178.584
179.951
179.105
139.077
139.144
139.253
139.365
139.44
139.439
139.327
139.119
138.926
138.949
139.406
140.406
141.882
143.605
145.287
146.693
147.709
148.35
148.71
148.904
149.025
149.128
149.236
149.349
149.465
149.577
149.686
149.79
149.894
149.998
150.104
150.213
150.324
150.436
150.548
150.659
150.772
150.889
151.02
151.169
151.335
151.503
151.646
151.728
151.724
151.64
151.539
151.546
151.838
152.616
154.049
156.231
159.138
162.621
166.426
170.229
173.734
176.546
178.754
179.56
139.078
139.087
139.151
139.255
139.364
139.437
139.429
139.309
139.1
138.92
138.968
139.443
140.444
141.901
143.599
145.262
146.662
147.687
148.341
148.713
148.913
149.034
149.134
149.238
149.35
149.464
149.577
149.685
149.79
149.894
149.998
150.104
150.213
150.324
150.436
150.548
150.659
150.771
150.89
151.022
151.172
151.338
151.505
151.644
151.721
151.712
151.626
151.527
151.541
151.844
152.633
154.076
156.261
159.164
162.638
166.426
170.235
173.682
176.574
178.983
139.105
139.08
139.093
139.156
139.257
139.364
139.433
139.418
139.29
139.083
138.917
138.986
139.478
140.479
141.92
143.593
145.238
146.633
147.664
148.332
148.715
148.921
149.043
149.14
149.241
149.35
149.463
149.576
149.685
149.79
149.894
149.998
150.105
150.213
150.324
150.436
150.547
150.658
150.771
150.89
151.023
151.174
151.34
151.506
151.641
151.713
151.7
151.612
151.515
151.536
151.85
152.65
154.102
156.29
159.19
162.652
166.436
170.226
173.569
177.409
139.131
139.101
139.082
139.098
139.161
139.26
139.364
139.428
139.406
139.272
139.067
138.916
139.005
139.511
140.512
141.937
143.589
145.216
146.605
147.643
148.322
148.717
148.928
149.051
149.146
149.244
149.35
149.463
149.575
149.684
149.79
149.894
149.999
150.105
150.213
150.324
150.436
150.547
150.658
150.77
150.891
151.025
151.177
151.343
151.507
151.639
151.706
151.688
151.598
151.504
151.531
151.856
152.668
154.127
156.319
159.215
162.666
166.472
169.983
174.952
139.146
139.126
139.099
139.084
139.103
139.166
139.263
139.364
139.423
139.393
139.254
139.053
138.916
139.024
139.543
140.543
141.953
143.584
145.195
146.579
147.622
148.312
148.717
148.935
149.059
149.153
149.247
149.351
149.462
149.574
149.684
149.79
149.894
149.999
150.105
150.214
150.324
150.435
150.546
150.657
150.77
150.891
151.026
151.179
151.346
151.507
151.636
151.698
151.676
151.585
151.492
151.527
151.862
152.685
154.153
156.348
159.23
162.746
166.12
171.808
139.155
139.144
139.123
139.098
139.086
139.107
139.171
139.267
139.364
139.417
139.38
139.237
139.04
138.917
139.042
139.573
140.572
141.969
143.58
145.176
146.555
147.601
148.302
148.717
148.942
149.067
149.159
149.251
149.352
149.462
149.573
149.683
149.79
149.894
149.999
150.105
150.214
150.324
150.435
150.546
150.656
150.77
150.892
151.028
151.182
151.348
151.508
151.633
151.691
151.664
151.571
151.482
151.523
151.868
152.701
154.181
156.36
159.344
162.313
168.24
139.171
139.156
139.142
139.12
139.097
139.088
139.111
139.176
139.27
139.364
139.411
139.366
139.221
139.029
138.919
139.061
139.602
140.599
141.983
143.577
145.158
146.531
147.581
148.291
148.716
148.947
149.075
149.166
149.254
149.354
149.461
149.572
149.682
149.789
149.894
149.999
150.106
150.214
150.324
150.435
150.545
150.656
150.77
150.892
151.03
151.185
151.35
151.508
151.63
151.683
151.653
151.558
151.471
151.52
151.874
152.723
154.183
156.496
158.864
164.552
139.204
139.174
139.156
139.139
139.118
139.096
139.09
139.115
139.18
139.273
139.363
139.404
139.353
139.205
139.019
138.922
139.079
139.63
140.625
141.997
143.574
145.141
146.508
147.562
148.28
148.714
148.952
149.083
149.172
149.258
149.355
149.461
149.572
149.682
149.789
149.894
149.999
150.106
150.214
150.324
150.435
150.545
150.655
150.77
150.893
151.032
151.187
151.352
151.509
151.626
151.675
151.641
151.545
151.461
151.516
151.886
152.713
154.327
156.005
161.042
139.257
139.207
139.175
139.155
139.137
139.115
139.095
139.091
139.119
139.185
139.276
139.362
139.396
139.34
139.19
139.01
138.925
139.097
139.656
140.65
142.01
143.571
145.125
146.487
147.543
148.269
148.712
148.957
149.09
149.178
149.262
149.357
149.461
149.571
149.681
149.789
149.894
150
150.106
150.214
150.324
150.434
150.544
150.655
150.77
150.894
151.033
151.19
151.355
151.509
151.623
151.667
151.63
151.533
151.45
151.519
151.865
152.85
153.859
157.961
139.326
139.259
139.208
139.176
139.155
139.135
139.113
139.095
139.093
139.123
139.189
139.279
139.361
139.389
139.326
139.176
139.002
138.93
139.114
139.682
140.674
142.023
143.569
145.11
146.466
147.525
148.258
148.71
148.961
149.096
149.185
149.267
149.358
149.461
149.57
149.68
149.788
149.894
150
150.106
150.214
150.324
150.434
150.544
150.655
150.77
150.895
151.035
151.192
151.357
151.509
151.619
151.659
151.618
151.519
151.447
151.489
151.984
152.434
155.476
139.401
139.326
139.26
139.21
139.177
139.154
139.133
139.111
139.094
139.095
139.126
139.193
139.282
139.359
139.381
139.313
139.162
138.994
138.934
139.132
139.706
140.696
142.035
143.567
145.096
146.446
147.507
148.247
148.707
148.964
149.103
149.191
149.271
149.36
149.462
149.57
149.68
149.788
149.894
150
150.107
150.215
150.324
150.434
150.543
150.654
150.77
150.896
151.037
151.194
151.358
151.508
151.615
151.652
151.606
151.514
151.413
151.583
151.64
153.655
139.464
139.399
139.327
139.262
139.212
139.178
139.153
139.131
139.11
139.094
139.097
139.13
139.197
139.284
139.357
139.373
139.3
139.149
138.988
138.939
139.149
139.73
140.718
142.047
143.565
145.082
146.427
147.489
148.236
148.704
148.967
149.109
149.197
149.275
149.363
149.462
149.569
149.679
149.787
149.894
150
150.107
150.215
150.324
150.433
150.543
150.654
150.77
150.897
151.039
151.197
151.36
151.508
151.611
151.642
151.6
151.48
151.481
151.321
152.466
139.499
139.46
139.398
139.328
139.264
139.213
139.178
139.152
139.13
139.108
139.094
139.098
139.134
139.201
139.286
139.355
139.365
139.288
139.137
138.982
138.945
139.165
139.753
140.739
142.058
143.563
145.069
146.409
147.472
148.225
148.701
148.97
149.115
149.203
149.28
149.365
149.462
149.569
149.678
149.787
149.894
150
150.107
150.215
150.324
150.433
150.542
150.653
150.77
150.898
151.041
151.199
151.362
151.508
151.606
151.639
151.572
151.525
151.3
151.804
139.497
139.494
139.458
139.398
139.329
139.265
139.215
139.179
139.152
139.128
139.107
139.094
139.1
139.137
139.205
139.288
139.352
139.356
139.276
139.125
138.977
138.95
139.182
139.775
140.759
142.068
143.561
145.057
146.391
147.456
148.214
148.697
148.972
149.12
149.209
149.284
149.367
149.463
149.568
149.677
149.786
149.894
150
150.107
150.215
150.324
150.433
150.542
150.653
150.77
150.899
151.043
151.201
151.363
151.506
151.605
151.618
151.597
151.413
151.523
139.456
139.493
139.492
139.457
139.398
139.33
139.267
139.216
139.179
139.151
139.127
139.106
139.094
139.102
139.141
139.209
139.29
139.349
139.348
139.264
139.114
138.972
138.956
139.197
139.796
140.778
142.079
143.56
145.045
146.374
147.439
148.203
148.693
148.974
149.126
149.215
149.289
149.37
149.464
149.568
149.677
149.786
149.893
150
150.107
150.215
150.324
150.432
150.542
150.653
150.771
150.9
151.045
151.204
151.364
151.507
151.593
151.63
151.541
151.471
139.384
139.453
139.491
139.49
139.456
139.398
139.331
139.269
139.218
139.18
139.15
139.125
139.105
139.094
139.104
139.144
139.212
139.291
139.346
139.339
139.252
139.104
138.968
138.962
139.213
139.816
140.796
142.089
143.558
145.034
146.358
147.423
148.193
148.689
148.976
149.131
149.221
149.294
149.372
149.465
149.568
149.676
149.785
149.893
150
150.107
150.215
150.324
150.432
150.541
150.653
150.771
150.901
151.047
151.206
151.367
151.502
151.598
151.61
151.518
139.296
139.384
139.452
139.489
139.488
139.455
139.398
139.332
139.27
139.219
139.18
139.15
139.124
139.104
139.094
139.106
139.147
139.216
139.292
139.342
139.331
139.24
139.094
138.965
138.968
139.228
139.836
140.814
142.099
143.557
145.023
146.342
147.408
148.182
148.684
148.977
149.135
149.227
149.298
149.375
149.466
149.568
149.675
149.785
149.893
150
150.108
150.215
150.323
150.432
150.541
150.652
150.771
150.903
151.049
151.209
151.366
151.503
151.597
151.57
139.207
139.297
139.383
139.45
139.487
139.487
139.454
139.398
139.333
139.272
139.22
139.18
139.149
139.123
139.103
139.094
139.108
139.151
139.219
139.292
139.338
139.322
139.229
139.084
138.962
138.975
139.243
139.856
140.831
142.108
143.556
145.013
146.327
147.393
148.171
148.68
148.978
149.14
149.232
149.303
149.378
149.467
149.568
149.675
149.784
149.893
150
150.108
150.215
150.323
150.431
150.54
150.652
150.772
150.904
151.051
151.21
151.366
151.508
151.579
139.131
139.209
139.298
139.383
139.449
139.485
139.485
139.453
139.398
139.334
139.273
139.221
139.18
139.148
139.122
139.102
139.095
139.11
139.154
139.222
139.293
139.335
139.314
139.218
139.075
138.959
138.981
139.258
139.874
140.848
142.117
143.555
145.003
146.312
147.378
148.16
148.675
148.979
149.144
149.238
149.307
149.381
149.468
149.568
149.674
149.783
149.892
150
150.108
150.215
150.323
150.431
150.54
150.652
150.772
150.905
151.053
151.211
151.369
151.527
139.076
139.134
139.211
139.298
139.382
139.447
139.483
139.483
139.452
139.398
139.335
139.274
139.222
139.181
139.148
139.121
139.101
139.095
139.112
139.157
139.224
139.293
139.33
139.305
139.208
139.067
138.957
138.987
139.272
139.893
140.864
142.126
143.554
144.993
146.297
147.364
148.15
148.67
148.979
149.148
149.243
149.312
149.384
149.469
149.568
149.674
149.783
149.892
150
150.108
150.215
150.323
150.431
150.54
150.652
150.773
150.907
151.056
151.207
151.424
139.045
139.079
139.136
139.212
139.299
139.381
139.446
139.481
139.482
139.451
139.399
139.336
139.275
139.223
139.181
139.147
139.12
139.101
139.096
139.114
139.16
139.227
139.293
139.326
139.297
139.198
139.059
138.955
138.994
139.287
139.91
140.88
142.135
143.554
144.984
146.283
147.35
148.139
148.665
148.98
149.152
149.248
149.317
149.387
149.471
149.568
149.673
149.782
149.892
150
150.108
150.215
150.323
150.43
150.539
150.652
150.773
150.91
151.044
151.287
139.035
139.047
139.08
139.137
139.213
139.299
139.381
139.445
139.479
139.48
139.45
139.399
139.337
139.277
139.224
139.181
139.146
139.119
139.1
139.097
139.117
139.163
139.229
139.292
139.322
139.289
139.188
139.051
138.953
139.001
139.3
139.927
140.895
142.143
143.553
144.976
146.27
147.336
148.129
148.66
148.98
149.156
149.253
149.321
149.39
149.472
149.568
149.673
149.782
149.891
150
150.108
150.215
150.323
150.43
150.539
150.652
150.777
150.892
151.136
139.041
139.036
139.048
139.082
139.138
139.214
139.299
139.38
139.443
139.478
139.479
139.449
139.399
139.338
139.278
139.225
139.181
139.146
139.118
139.1
139.098
139.119
139.166
139.231
139.292
139.317
139.281
139.178
139.044
138.952
139.007
139.314
139.944
140.91
142.151
143.553
144.967
146.257
147.322
148.118
148.655
148.98
149.159
149.258
149.326
149.393
149.474
149.568
149.672
149.781
149.891
150
150.108
150.215
150.323
150.43
150.538
150.656
150.757
150.986
139.056
139.041
139.036
139.049
139.083
139.14
139.215
139.299
139.38
139.442
139.476
139.477
139.449
139.399
139.339
139.279
139.226
139.181
139.145
139.117
139.099
139.098
139.121
139.169
139.233
139.291
139.312
139.273
139.169
139.037
138.951
139.014
139.327
139.96
140.924
142.159
143.552
144.959
146.244
147.309
148.108
148.649
148.979
149.162
149.262
149.33
149.396
149.475
149.569
149.672
149.781
149.89
150
150.108
150.215
150.323
150.429
150.543
150.635
150.846
139.077
139.056
139.041
139.037
139.05
139.084
139.141
139.216
139.3
139.379
139.44
139.474
139.476
139.448
139.399
139.339
139.28
139.226
139.182
139.145
139.116
139.099
139.099
139.123
139.172
139.235
139.29
139.308
139.265
139.16
139.03
138.95
139.021
139.34
139.976
140.938
142.167
143.552
144.951
146.232
147.296
148.098
148.644
148.979
149.165
149.267
149.334
149.4
149.477
149.569
149.672
149.78
149.89
149.999
150.108
150.216
150.321
150.433
150.522
150.717
139.102
139.077
139.056
139.041
139.037
139.05
139.085
139.142
139.217
139.3
139.378
139.439
139.473
139.474
139.447
139.399
139.34
139.281
139.227
139.182
139.144
139.116
139.099
139.1
139.125
139.174
139.236
139.289
139.303
139.257
139.151
139.024
138.95
139.027
139.353
139.992
140.951
142.175
143.551
144.944
146.22
147.283
148.088
148.639
148.978
149.168
149.271
149.339
149.403
149.479
149.57
149.672
149.78
149.89
149.999
150.108
150.214
150.326
150.414
150.597
139.129
139.102
139.077
139.055
139.04
139.037
139.051
139.086
139.143
139.218
139.3
139.378
139.438
139.471
139.473
139.446
139.399
139.341
139.282
139.228
139.182
139.144
139.115
139.099
139.102
139.128
139.177
139.238
139.287
139.298
139.249
139.143
139.018
138.95
139.034
139.366
140.007
140.965
142.182
143.551
144.936
146.208
147.271
148.078
148.633
148.977
149.17
149.276
149.343
149.406
149.481
149.57
149.671
149.779
149.889
149.999
150.107
150.219
150.308
150.485
139.158
139.129
139.102
139.076
139.055
139.04
139.037
139.052
139.087
139.144
139.218
139.3
139.377
139.437
139.47
139.472
139.446
139.399
139.341
139.283
139.228
139.182
139.144
139.115
139.099
139.103
139.13
139.179
139.239
139.286
139.293
139.241
139.135
139.013
138.95
139.041
139.378
140.022
140.977
142.189
143.551
144.929
146.197
147.259
148.069
148.628
148.976
149.173
149.28
149.347
149.41
149.483
149.571
149.671
149.779
149.889
149.998
150.111
150.202
150.376
139.189
139.158
139.129
139.101
139.076
139.055
139.04
139.038
139.053
139.088
139.146
139.219
139.3
139.376
139.435
139.468
139.47
139.445
139.399
139.342
139.283
139.229
139.182
139.143
139.114
139.099
139.104
139.132
139.181
139.24
139.284
139.288
139.234
139.127
139.008
138.95
139.047
139.39
140.036
140.99
142.196
143.551
144.922
146.186
147.247
148.059
148.622
148.975
149.175
149.284
149.352
149.413
149.485
149.572
149.671
149.778
149.887
150.001
150.095
150.268
139.223
139.19
139.158
139.129
139.101
139.076
139.054
139.04
139.038
139.053
139.09
139.147
139.22
139.3
139.376
139.434
139.467
139.469
139.444
139.399
139.343
139.284
139.23
139.182
139.143
139.114
139.1
139.105
139.134
139.184
139.241
139.282
139.283
139.226
139.119
139.003
138.95
139.054
139.402
140.05
141.002
142.203
143.551
144.916
146.175
147.235
148.049
148.616
148.973
149.177
149.288
149.356
149.416
149.487
149.572
149.671
149.777
149.891
149.985
150.161
139.257
139.223
139.19
139.158
139.129
139.101
139.075
139.054
139.04
139.038
139.054
139.091
139.148
139.221
139.3
139.375
139.433
139.465
139.468
139.444
139.399
139.343
139.285
139.23
139.182
139.143
139.114
139.1
139.106
139.136
139.186
139.241
139.28
139.278
139.219
139.112
138.998
138.951
139.061
139.414
140.064
141.014
142.21
143.551
144.909
146.164
147.224
148.04
148.611
148.972
149.179
149.291
149.36
149.42
149.489
149.573
149.67
149.78
149.875
150.052
139.291
139.257
139.223
139.19
139.158
139.128
139.101
139.075
139.054
139.04
139.039
139.055
139.092
139.149
139.221
139.3
139.375
139.432
139.464
139.467
139.443
139.399
139.344
139.285
139.23
139.182
139.142
139.114
139.1
139.108
139.138
139.188
139.242
139.278
139.273
139.211
139.104
138.994
138.951
139.067
139.425
140.077
141.026
142.217
143.551
144.903
146.154
147.213
148.03
148.605
148.97
149.181
149.295
149.364
149.423
149.491
149.573
149.674
149.764
149.942
139.32
139.29
139.257
139.223
139.19
139.158
139.128
139.1
139.075
139.053
139.04
139.039
139.056
139.093
139.15
139.222
139.301
139.374
139.431
139.463
139.466
139.442
139.399
139.344
139.286
139.231
139.182
139.142
139.114
139.101
139.109
139.14
139.189
139.242
139.276
139.268
139.204
139.097
138.989
138.952
139.074
139.436
140.09
141.037
142.223
143.551
144.897
146.144
147.202
148.021
148.599
148.969
149.182
149.299
149.368
149.426
149.492
149.578
149.658
149.831
139.343
139.319
139.29
139.257
139.223
139.19
139.158
139.128
139.1
139.074
139.053
139.04
139.039
139.056
139.094
139.151
139.223
139.301
139.373
139.43
139.461
139.465
139.442
139.399
139.345
139.287
139.231
139.182
139.142
139.113
139.102
139.111
139.142
139.191
139.242
139.274
139.263
139.197
139.091
138.985
138.953
139.081
139.448
140.103
141.048
142.23
143.551
144.891
146.134
147.191
148.012
148.594
148.967
149.184
149.302
149.372
149.429
149.498
149.563
149.724
139.357
139.342
139.319
139.29
139.257
139.224
139.19
139.158
139.128
139.1
139.074
139.053
139.04
139.04
139.057
139.095
139.152
139.223
139.301
139.373
139.429
139.46
139.464
139.441
139.399
139.345
139.287
139.232
139.182
139.142
139.113
139.102
139.112
139.144
139.193
139.243
139.271
139.257
139.191
139.084
138.982
138.954
139.087
139.459
140.116
141.059
142.236
143.551
144.885
146.125
147.18
148.003
148.588
148.965
149.185
149.305
149.375
149.436
149.485
149.626
139.362
139.356
139.342
139.319
139.29
139.258
139.224
139.19
139.158
139.128
139.099
139.074
139.053
139.04
139.04
139.058
139.096
139.153
139.224
139.301
139.372
139.427
139.459
139.462
139.441
139.399
139.345
139.288
139.232
139.182
139.141
139.114
139.103
139.113
139.146
139.194
139.242
139.269
139.252
139.184
139.078
138.978
138.955
139.094
139.469
140.128
141.07
142.242
143.551
144.88
146.115
147.17
147.994
148.582
148.963
149.186
149.308
149.382
149.425
149.541
139.362
139.362
139.356
139.341
139.319
139.29
139.258
139.224
139.191
139.158
139.128
139.099
139.073
139.052
139.04
139.041
139.059
139.097
139.153
139.224
139.301
139.372
139.426
139.457
139.461
139.44
139.399
139.346
139.288
139.232
139.182
139.141
139.114
139.104
139.115
139.148
139.196
139.242
139.266
139.247
139.177
139.072
138.975
138.957
139.1
139.48
140.14
141.08
142.248
143.551
144.874
146.106
147.16
147.985
148.576
148.961
149.187
149.314
149.374
149.474
139.359
139.362
139.362
139.355
139.341
139.318
139.29
139.258
139.224
139.191
139.158
139.128
139.099
139.073
139.052
139.04
139.041
139.059
139.097
139.154
139.225
139.301
139.371
139.425
139.456
139.46
139.439
139.399
139.346
139.289
139.233
139.182
139.141
139.114
139.104
139.116
139.15
139.197
139.242
139.264
139.242
139.171
139.066
138.972
138.958
139.107
139.49
140.152
141.09
142.254
143.551
144.869
146.097
147.149
147.976
148.571
148.958
149.19
149.307
149.418
139.357
139.36
139.362
139.361
139.355
139.34
139.318
139.29
139.258
139.224
139.191
139.158
139.128
139.099
139.073
139.052
139.04
139.041
139.06
139.098
139.155
139.225
139.301
139.37
139.424
139.455
139.459
139.439
139.399
139.346
139.289
139.233
139.182
139.141
139.114
139.105
139.118
139.151
139.198
139.242
139.261
139.237
139.164
139.06
138.969
138.96
139.113
139.501
140.164
141.1
142.259
143.551
144.864
146.089
147.14
147.968
148.564
148.958
149.181
149.355
139.351
139.357
139.36
139.362
139.361
139.354
139.34
139.318
139.29
139.258
139.224
139.191
139.158
139.127
139.098
139.072
139.052
139.04
139.042
139.061
139.099
139.156
139.226
139.301
139.37
139.423
139.454
139.458
139.438
139.399
139.346
139.289
139.233
139.182
139.141
139.114
139.106
139.119
139.153
139.199
139.241
139.258
139.232
139.158
139.054
138.966
138.961
139.12
139.511
140.175
141.11
142.265
143.551
144.859
146.08
147.13
147.959
148.561
148.943
149.252
139.336
139.35
139.357
139.361
139.363
139.361
139.354
139.34
139.318
139.29
139.258
139.225
139.191
139.158
139.127
139.098
139.072
139.052
139.04
139.042
139.062
139.1
139.157
139.226
139.301
139.369
139.422
139.453
139.458
139.438
139.398
139.347
139.29
139.233
139.182
139.141
139.115
139.107
139.121
139.155
139.2
139.241
139.255
139.227
139.152
139.049
138.963
138.963
139.126
139.521
140.186
141.119
142.271
143.552
144.854
146.072
147.12
147.954
148.536
149.06
139.303
139.333
139.35
139.358
139.362
139.363
139.361
139.354
139.339
139.318
139.29
139.258
139.225
139.191
139.159
139.127
139.098
139.072
139.051
139.04
139.043
139.062
139.101
139.158
139.227
139.301
139.369
139.422
139.452
139.457
139.437
139.398
139.347
139.29
139.233
139.182
139.141
139.115
139.108
139.122
139.156
139.201
139.24
139.252
139.222
139.146
139.044
138.961
138.965
139.132
139.53
140.197
141.129
142.276
143.552
144.85
146.063
147.116
147.912
148.729
139.252
139.3
139.332
139.35
139.359
139.362
139.364
139.361
139.353
139.339
139.317
139.29
139.258
139.225
139.191
139.159
139.127
139.098
139.072
139.051
139.04
139.043
139.063
139.102
139.158
139.227
139.301
139.368
139.421
139.451
139.456
139.437
139.398
139.347
139.29
139.234
139.183
139.142
139.116
139.109
139.124
139.158
139.202
139.239
139.249
139.217
139.14
139.038
138.958
138.967
139.139
139.54
140.208
141.138
142.281
143.552
144.843
146.064
147.053
148.209
139.192
139.252
139.299
139.331
139.35
139.359
139.363
139.364
139.361
139.353
139.338
139.317
139.29
139.258
139.225
139.191
139.159
139.127
139.097
139.071
139.051
139.041
139.044
139.064
139.103
139.159
139.228
139.301
139.368
139.42
139.45
139.455
139.436
139.398
139.347
139.29
139.234
139.183
139.142
139.116
139.11
139.125
139.16
139.203
139.238
139.246
139.212
139.134
139.033
138.956
138.968
139.145
139.549
140.218
141.147
142.287
143.55
144.853
145.976
147.473
139.128
139.193
139.251
139.299
139.331
139.35
139.36
139.364
139.365
139.361
139.353
139.338
139.317
139.29
139.258
139.225
139.191
139.158
139.127
139.097
139.071
139.051
139.04
139.044
139.064
139.103
139.16
139.228
139.301
139.367
139.419
139.449
139.454
139.436
139.398
139.348
139.291
139.234
139.183
139.142
139.116
139.111
139.126
139.161
139.203
139.237
139.243
139.207
139.129
139.029
138.954
138.97
139.151
139.559
140.228
141.156
142.288
143.572
144.742
146.529
139.063
139.128
139.191
139.249
139.295
139.328
139.348
139.358
139.363
139.364
139.361
139.352
139.338
139.317
139.29
139.259
139.226
139.192
139.159
139.128
139.098
139.072
139.052
139.042
139.045
139.066
139.105
139.161
139.228
139.3
139.366
139.416
139.446
139.451
139.433
139.397
139.347
139.291
139.235
139.184
139.143
139.119
139.113
139.13
139.163
139.204
139.236
139.24
139.201
139.122
139.024
138.952
138.974
139.159
139.569
140.24
141.157
142.313
143.421
145.377
138.993
139.07
139.139
139.203
139.259
139.304
139.336
139.355
139.364
139.367
139.367
139.362
139.353
139.337
139.315
139.288
139.256
139.222
139.188
139.155
139.123
139.093
139.067
139.047
139.038
139.043
139.065
139.106
139.164
139.233
139.307
139.374
139.425
139.454
139.458
139.438
139.398
139.346
139.287
139.229
139.177
139.136
139.112
139.109
139.127
139.163
139.206
139.238
139.241
139.2
139.117
139.015
138.943
138.966
139.159
139.585
140.268
141.252
142.241
144.282
138.871
138.948
139.023
139.095
139.162
139.222
139.272
139.31
139.336
139.353
139.361
139.364
139.363
139.356
139.344
139.326
139.302
139.273
139.241
139.208
139.175
139.143
139.112
139.084
139.061
139.047
139.045
139.058
139.089
139.137
139.199
139.267
139.333
139.389
139.428
139.445
139.438
139.412
139.369
139.318
139.262
139.209
139.164
139.133
139.12
139.127
139.152
139.188
139.22
139.23
139.206
139.142
139.054
138.978
138.968
139.093
139.403
139.998
140.626
142.376
)
;

boundaryField
{
    bottomwall
    {
        type            opaque;
        refValue        nonuniform List<scalar> 
60
(
143.315
145.512
146.764
147.542
148.056
148.413
148.672
148.871
149.031
149.169
149.293
149.411
149.525
149.634
149.739
149.841
149.944
150.048
150.155
150.266
150.379
150.494
150.609
150.723
150.834
150.948
151.071
151.214
151.384
151.57
151.742
151.854
151.861
151.76
151.617
151.59
151.91
152.831
154.552
157.148
160.527
164.434
168.51
172.364
175.655
178.13
179.645
180.139
179.608
178.088
175.65
172.415
168.566
164.345
160.038
155.917
152.185
148.914
145.933
142.631
)
;
        refGradient     uniform 0;
        valueFraction   uniform 1;
        source          uniform 0;
        value           nonuniform List<scalar> 
60
(
143.315
145.512
146.764
147.542
148.056
148.413
148.672
148.871
149.031