/*--------------------------------*- C++ -*----------------------------------*\
| =========                 |                                                 |
| \\      /  F ield         | OpenFOAM: The Open Source CFD Toolbox           |
|  \\    /   O peration     | Version:  2406                                  |
|   \\  /    A nd           | Website:  www.openfoam.com                      |
|    \\/     M anipulation  |                                                 |
\*---------------------------------------------------------------------------*/
FoamFile
{
    version     2.0;
    format      ascii;
    arch        "LSB;label=32;scalar=64";
    class       volScalarField;
    location    "10000";
    object      ILambda_11_0;
}
// * * * * * * * * * * * * * * * * * * * * * * * * * * * * * * * * * * * * * //

dimensions      [1 0 -3 0 0 0 0];

internalField   nonuniform List<scalar> 
3600
(
145.681
145.884
146.02
146.162
146.284
146.378
146.441
146.468
146.46
146.419
146.348
146.253
146.139
146.014
145.886
145.762
145.648
145.548
145.461
145.374
145.267
145.105
144.844
144.443
143.876
143.15
142.31
141.437
140.628
139.967
139.499
139.224
139.102
139.074
139.087
139.107
139.122
139.134
139.146
139.162
139.182
139.203
139.226
139.25
139.274
139.3
139.327
139.36
139.398
139.442
139.483
139.519
139.558
139.621
139.716
139.808
139.8
139.588
139.152
138.623
145.589
145.762
145.9
146.049
146.189
146.308
146.397
146.453
146.474
146.46
146.413
146.337
146.237
146.119
145.992
145.862
145.738
145.626
145.529
145.445
145.362
145.255
145.087
144.812
144.386
143.786
143.023
142.154
141.268
140.467
139.834
139.407
139.174
139.083
139.073
139.092
139.112
139.124
139.135
139.148
139.165
139.185
139.207
139.23
139.254
139.279
139.304
139.331
139.364
139.406
139.451
139.492
139.523
139.557
139.624
139.739
139.848
139.832
139.569
139.011
145.555
145.703
145.835
145.983
146.127
146.256
146.358
146.43
146.466
146.467
146.434
146.371
146.281
146.172
146.048
145.919
145.793
145.675
145.57
145.479
145.393
145.295
145.155
144.93
144.575
144.057
143.369
142.547
141.665
140.819
140.105
139.583
139.264
139.114
139.073
139.083
139.104
139.12
139.13
139.142
139.157
139.176
139.198
139.22
139.244
139.268
139.294
139.32
139.349
139.386
139.431
139.477
139.515
139.545
139.587
139.67
139.782
139.836
139.707
139.347
145.518
145.636
145.761
145.905
146.053
146.192
146.309
146.398
146.453
146.472
146.457
146.409
146.332
146.232
146.115
145.987
145.858
145.735
145.623
145.525
145.438
145.351
145.24
145.067
144.788
144.36
143.759
142.997
142.13
141.248
140.451
139.822
139.4
139.171
139.083
139.075
139.094
139.113
139.125
139.135
139.148
139.166
139.186
139.208
139.231
139.255
139.28
139.306
139.333
139.365
139.406
139.453
139.497
139.53
139.559
139.617
139.723
139.833
139.817
139.553
145.495
145.58
145.694
145.83
145.978
146.123
146.253
146.357
146.429
146.466
146.469
146.437
146.374
146.286
146.176
146.053
145.924
145.796
145.677
145.572
145.479
145.394
145.298
145.161
144.943
144.597
144.087
143.404
142.582
141.694
140.839
140.115
139.586
139.263
139.113
139.073
139.084
139.105
139.12
139.13
139.141
139.156
139.176
139.197
139.219
139.243
139.268
139.293
139.319
139.348
139.383
139.428
139.477
139.517
139.544
139.578
139.653
139.776
139.859
139.745
145.482
145.534
145.633
145.757
145.902
146.05
146.189
146.307
146.396
146.452
146.472
146.458
146.41
146.334
146.234
146.117
145.99
145.861
145.736
145.623
145.524
145.436
145.348
145.237
145.067
144.793
144.372
143.777
143.02
142.152
141.265
140.461
139.826
139.399
139.169
139.083
139.076
139.096
139.114
139.125
139.135
139.148
139.165
139.186
139.208
139.23
139.255
139.28
139.306
139.332
139.363
139.404
139.452
139.5
139.534
139.558
139.602
139.701
139.831
139.861
145.48
145.498
145.58
145.689
145.826
145.975
146.12
146.25
146.355
146.428
146.466
146.469
146.438
146.377
146.288
146.179
146.056
145.926
145.799
145.679
145.572
145.479
145.392
145.297
145.162
144.948
144.608
144.105
143.428
142.607
141.715
140.854
140.122
139.587
139.262
139.112
139.074
139.086
139.106
139.12
139.129
139.14
139.156
139.175
139.197
139.219
139.242
139.267
139.293
139.319
139.347
139.381
139.426
139.477
139.521
139.548
139.572
139.634
139.761
139.891
145.489
145.473
145.537
145.628
145.754
145.898
146.047
146.187
146.305
146.395
146.451
146.472
146.458
146.412
146.336
146.237
146.12
145.993
145.863
145.738
145.624
145.524
145.435
145.346
145.236
145.069
144.801
144.386
143.798
143.045
142.176
141.284
140.472
139.829
139.399
139.168
139.083
139.077
139.097
139.114
139.125
139.134
139.147
139.165
139.186
139.207
139.23
139.254
139.28
139.306
139.332
139.362
139.401
139.451
139.502
139.539
139.559
139.59
139.681
139.842
145.509
145.46
145.503
145.575
145.686
145.823
145.971
146.117
146.248
146.354
146.427
146.466
146.47
146.44
146.378
146.291
146.182
146.059
145.929
145.801
145.681
145.573
145.478
145.391
145.295
145.162
144.953
144.619
144.124
143.452
142.633
141.737
140.869
140.129
139.588
139.26
139.111
139.074
139.087
139.107
139.12
139.129
139.14
139.155
139.175
139.196
139.218
139.241
139.267
139.293
139.319
139.346
139.379
139.423
139.476
139.525
139.553
139.57
139.618
139.752
145.537
145.459
145.482
145.531
145.625
145.75
145.895
146.044
146.184
146.303
146.394
146.451
146.473
146.459
146.414
146.339
146.24
146.123
145.996
145.866
145.741
145.626
145.524
145.434
145.344
145.235
145.071
144.808
144.401
143.82
143.07
142.201
141.302
140.483
139.833
139.398
139.166
139.082
139.078
139.098
139.115
139.125
139.133
139.147
139.165
139.186
139.207
139.229
139.253
139.28
139.306
139.332
139.361
139.398
139.448
139.503
139.545
139.564
139.584
139.662
145.573
145.47
145.471
145.498
145.572
145.683
145.819
145.968
146.114
146.246
146.352
146.426
146.466
146.471
146.441
146.38
146.293
146.184
146.062
145.932
145.803
145.682
145.574
145.478
145.389
145.293
145.162
144.957
144.63
144.141
143.476
142.658
141.76
140.884
140.136
139.588
139.258
139.109
139.075
139.088
139.108
139.121
139.128
139.139
139.155
139.175
139.196
139.217
139.241
139.266
139.293
139.319
139.345
139.377
139.42
139.475
139.528
139.561
139.572
139.6
145.615
145.49
145.472
145.477
145.529
145.622
145.746
145.891
146.041
146.181
146.302
146.393
146.45
146.473
146.46
146.415
146.341
146.242
146.126
145.998
145.868
145.743
145.627
145.524
145.433
145.343
145.234
145.072
144.815
144.415
143.841
143.095
142.225
141.322
140.494
139.836
139.397
139.164
139.082
139.079
139.1
139.116
139.124
139.132
139.146
139.165
139.185
139.206
139.228
139.253
139.28
139.306
139.332
139.36
139.396
139.445
139.502
139.55
139.57
139.573
145.663
145.52
145.484
145.467
145.497
145.569
145.679
145.815
145.964
146.111
146.243
146.35
146.426
146.466
146.471
146.442
146.382
146.295
146.187
146.064
145.935
145.806
145.684
145.574
145.477
145.388
145.291
145.162
144.96
144.64
144.159
143.499
142.684
141.782
140.899
140.143
139.589
139.256
139.108
139.075
139.09
139.11
139.121
139.128
139.138
139.155
139.175
139.196
139.217
139.24
139.266
139.293
139.32
139.345
139.375
139.417
139.472
139.529
139.567
139.571
145.714
145.559
145.506
145.469
145.476
145.527
145.618
145.743
145.887
146.037
146.179
146.3
146.392
146.45
146.473
146.461
146.417
146.343
146.245
146.129
146.001
145.871
145.745
145.628
145.525
145.432
145.341
145.232
145.073
144.821
144.428
143.862
143.121
142.251
141.341
140.505
139.84
139.396
139.162
139.082
139.081
139.102
139.117
139.124
139.132
139.145
139.164
139.185
139.206
139.228
139.252
139.279
139.307
139.333
139.359
139.393
139.441
139.501
139.553
139.575
145.768
145.603
145.537
145.481
145.467
145.495
145.566
145.675
145.812
145.961
146.108
146.241
146.349
146.425
146.466
146.472
146.444
146.384
146.298
146.19
146.067
145.937
145.808
145.686
145.575
145.477
145.386
145.29
145.161
144.964
144.65
144.176
143.523
142.71
141.806
140.915
140.15
139.589
139.254
139.107
139.076
139.092
139.111
139.121
139.127
139.137
139.154
139.175
139.196
139.216
139.239
139.265
139.293
139.32
139.345
139.374
139.414
139.468
139.529
139.573
145.823
145.653
145.575
145.504
145.469
145.475
145.524
145.615
145.739
145.884
146.034
146.176
146.298
146.39
146.449
146.473
146.462
146.418
146.345
146.247
146.131
146.004
145.874
145.747
145.63
145.525
145.431
145.339
145.231
145.074
144.827
144.441
143.883
143.146
142.276
141.361
140.517
139.843
139.394
139.16
139.081
139.082
139.103
139.118
139.124
139.131
139.145
139.164
139.185
139.206
139.227
139.251
139.279
139.307
139.333
139.358
139.391
139.437
139.498
139.557
145.877
145.707
145.62
145.535
145.482
145.466
145.493
145.563
145.672
145.808
145.957
146.106
146.239
146.347
146.424
146.466
146.472
146.445
146.386
146.3
146.193
146.07
145.94
145.811
145.688
145.576
145.477
145.385
145.288
145.161
144.966
144.659
144.193
143.547
142.737
141.829
140.931
140.157
139.59
139.252
139.105
139.076
139.094
139.113
139.121
139.126
139.136
139.154
139.175
139.196
139.216
139.238
139.264
139.293
139.321
139.346
139.373
139.41
139.465
139.531
145.93
145.763
145.67
145.575
145.505
145.469
145.473
145.522
145.612
145.735
145.88
146.031
146.173
146.296
146.389
146.449
146.473
146.463
146.42
146.347
146.25
146.134
146.007
145.876
145.749
145.631
145.525
145.43
145.338
145.229
145.075
144.833
144.454
143.903
143.172
142.302
141.382
140.528
139.846
139.392
139.157
139.081
139.084
139.105
139.118
139.123
139.13
139.144
139.164
139.185
139.206
139.226
139.25
139.278
139.307
139.334
139.358
139.389
139.434
139.497
145.981
145.82
145.723
145.62
145.537
145.483
145.465
145.491
145.56
145.668
145.804
145.954
146.103
146.236
146.345
146.423
146.465
146.473
146.446
146.388
146.303
146.195
146.073
145.943
145.813
145.69
145.577
145.477
145.384
145.286
145.16
144.969
144.668
144.21
143.571
142.764
141.854
140.948
140.164
139.589
139.249
139.104
139.077
139.096
139.114
139.121
139.125
139.135
139.153
139.175
139.196
139.215
139.237
139.263
139.293
139.321
139.346
139.372
139.408
139.462
146.028
145.876
145.777
145.67
145.577
145.507
145.469
145.472
145.519
145.609
145.732
145.876
146.028
146.171
146.294
146.388
146.448
146.474
146.464
146.422
146.35
146.253
146.137
146.01
145.879
145.751
145.633
145.526
145.43
145.336
145.228
145.075
144.838
144.467
143.924
143.199
142.329
141.403
140.54
139.849
139.39
139.155
139.081
139.086
139.107
139.119
139.123
139.129
139.143
139.164
139.186
139.205
139.225
139.249
139.277
139.307
139.334
139.358
139.387
139.431
146.072
145.931
145.833
145.723
145.623
145.539
145.483
145.465
145.489
145.558
145.665
145.8
145.95
146.1
146.234
146.344
146.422
146.465
146.473
146.447
146.39
146.305
146.198
146.076
145.946
145.815
145.691
145.578
145.477
145.383
145.285
145.159
144.971
144.676
144.227
143.595
142.791
141.878
140.965
140.171
139.589
139.246
139.102
139.078
139.098
139.116
139.121
139.124
139.134
139.153
139.175
139.196
139.215
139.236
139.262
139.292
139.322
139.347
139.371
139.404
146.11
145.984
145.887
145.779
145.673
145.579
145.508
145.469
145.471
145.517
145.605
145.728
145.873
146.024
146.168
146.292
146.386
146.448
146.474
146.465
146.423
146.352
146.255
146.14
146.013
145.881
145.753
145.634
145.527
145.429
145.335
145.226
145.076
144.842
144.479
143.944
143.225
142.356
141.425
140.552
139.852
139.387
139.152
139.08
139.088
139.11
139.12
139.122
139.128
139.142
139.164
139.186
139.205
139.225
139.248
139.277
139.308
139.335
139.358
139.384
146.143
146.033
145.941
145.834
145.726
145.625
145.541
145.484
145.464
145.487
145.555
145.661
145.797
145.947
146.097
146.232
146.342
146.421
146.465
146.474
146.448
146.392
146.307
146.201
146.079
145.948
145.818
145.693
145.579
145.477
145.382
145.283
145.158
144.973
144.684
144.243
143.618
142.819
141.904
140.982
140.178
139.588
139.243
139.1
139.08
139.101
139.117
139.121
139.123
139.133
139.153
139.175
139.196
139.214
139.235
139.261
139.292
139.322
139.347
139.369
146.17
146.079
145.991
145.89
145.781
145.676
145.581
145.509
145.469
145.47
145.514
145.602
145.724
145.869
146.021
146.165
146.29
146.385
146.447
146.474
146.466
146.425
146.354
146.258
146.143
146.016
145.884
145.755
145.636
145.527
145.429
145.333
145.225
145.076
144.847
144.49
143.964
143.251
142.384
141.447
140.564
139.854
139.385
139.149
139.08
139.09
139.112
139.121
139.121
139.126
139.142
139.164
139.186
139.205
139.224
139.246
139.276
139.308
139.336
139.357
146.19
146.12
146.038
145.943
145.837
145.729
145.628
145.543
145.485
145.464
145.485
145.552
145.658
145.793
145.943
146.093
146.229
146.34
146.42
146.465
146.474
146.45
146.394
146.31
146.204
146.082
145.951
145.82
145.695
145.581
145.477
145.381
145.281
145.157
144.975
144.691
144.258
143.642
142.847
141.93
141
140.185
139.587
139.239
139.099
139.081
139.103
139.119
139.121
139.122
139.132
139.152
139.175
139.196
139.214
139.234
139.26
139.291
139.323
139.347
146.202
146.155
146.081
145.994
145.892
145.784
145.678
145.583
145.51
145.469
145.468
145.512
145.599
145.721
145.865
146.018
146.163
146.288
146.384
146.446
146.474
146.466
146.426
146.356
146.26
146.146
146.018
145.887
145.758
145.637
145.528
145.429
145.332
145.223
145.075
144.851
144.501
143.984
143.278
142.412
141.47
140.577
139.857
139.381
139.146
139.08
139.092
139.115
139.122
139.12
139.125
139.141
139.164
139.186
139.205
139.223
139.245
139.274
139.308
139.337
146.206
146.185
146.119
146.042
145.945
145.84
145.732
145.63
145.544
145.485
145.463
145.484
145.549
145.654
145.789
145.94
146.09
146.227
146.339
146.419
146.464
146.475
146.451
146.395
146.312
146.206
146.084
145.954
145.823
145.697
145.582
145.478
145.381
145.28
145.156
144.976
144.698
144.273
143.666
142.875
141.957
141.018
140.193
139.586
139.235
139.097
139.083
139.106
139.121
139.121
139.121
139.131
139.152
139.176
139.196
139.214
139.233
139.258
139.291
139.324
146.201
146.207
146.152
146.085
145.996
145.895
145.787
145.681
145.586
145.512
145.469
145.467
145.51
145.595
145.717
145.862
146.014
146.16
146.285
146.382
146.446
146.474
146.467
146.428
146.358
146.263
146.148
146.021
145.889
145.76
145.639
145.529
145.429
145.331
145.222
145.075
144.854
144.512
144.003
143.305
142.441
141.494
140.59
139.859
139.377
139.142
139.08
139.095
139.117
139.123
139.119
139.124
139.14
139.164
139.187
139.206
139.222
139.243
139.273
139.308
146.187
146.223
146.178
146.124
146.043
145.948
145.843
145.735
145.633
145.546
145.486
145.463
145.482
145.546
145.651
145.785
145.936
146.087
146.225
146.337
146.418
146.464
146.475
146.452
146.397
146.315
146.209
146.087
145.957
145.825
145.699
145.583
145.478
145.38
145.279
145.155
144.977
144.704
144.288
143.689
142.904
141.984
141.037
140.2
139.584
139.23
139.095
139.085
139.11
139.123
139.121
139.119
139.13
139.151
139.176
139.197
139.214
139.231
139.256
139.29
146.163
146.23
146.197
146.157
146.086
145.999
145.897
145.79
145.684
145.588
145.513
145.469
145.466
145.507
145.592
145.713
145.858
146.011
146.157
146.283
146.381
146.445
146.474
146.468
146.429
146.36
146.266
146.151
146.024
145.892
145.762
145.64
145.53
145.429
145.33
145.22
145.075
144.857
144.522
144.022
143.332
142.47
141.518
140.603
139.86
139.373
139.138
139.081
139.099
139.12
139.123
139.118
139.122
139.139
139.164
139.187
139.206
139.222
139.242
139.272
146.127
146.228
146.209
146.184
146.124
146.046
145.95
145.845
145.737
145.635
145.548
145.487
145.462
145.48
145.543
145.647
145.782
145.933
146.084
146.222
146.335
146.417
146.464
146.475
146.453
146.399
146.317
146.212
146.09
145.96
145.827
145.701
145.584
145.478
145.38
145.278
145.153
144.978
144.71
144.302
143.712
142.934
142.013
141.057
140.207
139.582
139.225
139.093
139.087
139.113
139.125
139.12
139.118
139.129
139.151
139.176
139.197
139.214
139.23
139.254
146.081
146.217
146.212
146.203
146.157
146.089
146.001
145.9
145.793
145.686
145.59
145.514
145.47
145.465
145.505
145.589
145.709
145.854
146.008
146.154
146.281
146.38
146.444
146.474
146.469
146.43
146.362
146.268
146.154
146.027
145.895
145.764
145.642
145.531
145.429
145.33
145.219
145.074
144.86
144.531
144.04
143.359
142.501
141.543
140.617
139.862
139.368
139.134
139.081
139.102
139.123
139.124
139.117
139.121
139.139
139.163
139.187
139.206
139.222
139.24
146.022
146.195
146.207
146.216
146.183
146.127
146.048
145.953
145.848
145.74
145.638
145.55
145.488
145.462
145.478
145.54
145.643
145.778
145.929
146.081
146.22
146.334
146.416
146.463
146.476
146.454
146.401
146.319
146.215
146.093
145.962
145.83
145.703
145.586
145.479
145.379
145.277
145.152
144.978
144.715
144.315
143.735
142.963
142.042
141.077
140.214
139.579
139.219
139.091
139.09
139.117
139.127
139.12
139.116
139.128
139.15
139.176
139.198
139.214
139.229
145.951
146.163
146.192
146.22
146.202
146.159
146.09
146.003
145.903
145.795
145.689
145.592
145.516
145.47
145.464
145.502
145.585
145.706
145.85
146.004
146.152
146.279
146.378
146.444
146.474
146.469
146.432
146.364
146.271
146.157
146.03
145.897
145.766
145.644
145.531
145.429
145.329
145.218
145.073
144.862
144.539
144.058
143.386
142.532
141.569
140.631
139.863
139.362
139.13
139.082
139.106
139.127
139.124
139.116
139.12
139.138
139.163
139.188
139.207
139.221
145.867
146.119
146.166
146.214
146.214
146.185
146.128
146.05
145.955
145.851
145.743
145.64
145.552
145.489
145.461
145.477
145.537
145.64
145.774
145.925
146.078
146.217
146.332
146.415
146.463
146.476
146.455
146.403
146.322
146.217
146.096
145.965
145.832
145.705
145.587
145.48
145.379
145.276
145.151
144.979
144.72
144.328
143.758
142.994
142.072
141.098
140.221
139.575
139.213
139.089
139.093
139.121
139.128
139.119
139.115
139.127
139.15
139.176
139.198
139.214
145.77
146.063
146.13
146.2
146.217
146.204
146.16
146.092
146.005
145.905
145.798
145.692
145.595
145.517
145.47
145.463
145.5
145.582
145.702
145.847
146.001
146.149
146.277
146.377
146.443
146.474
146.47
146.433
146.366
146.273
146.16
146.033
145.9
145.769
145.645
145.532
145.429
145.328
145.217
145.073
144.864
144.547
144.076
143.413
142.563
141.597
140.646
139.864
139.356
139.125
139.083
139.111
139.13
139.124
139.114
139.118
139.137
139.163
139.188
139.208
145.66
145.994
146.082
146.175
146.212
146.215
146.186
146.13
146.052
145.958
145.854
145.746
145.643
145.554
145.49
145.461
145.475
145.534
145.636
145.77
145.922
146.075
146.215
146.33
146.414
146.463
146.476
146.456
146.404
146.324
146.22
146.099
145.968
145.835
145.707
145.588
145.48
145.379
145.275
145.15
144.979
144.724
144.339
143.78
143.024
142.103
141.12
140.229
139.57
139.206
139.087
139.096
139.126
139.13
139.118
139.113
139.126
139.149
139.175
139.199
145.537
145.912
146.022
146.139
146.197
146.218
146.205
146.162
146.094
146.008
145.908
145.801
145.695
145.597
145.519
145.471
145.462
145.498
145.579
145.698
145.843
145.998
146.146
146.275
146.376
146.442
146.474
146.471
146.435
146.368
146.276
146.163
146.036
145.903
145.771
145.647
145.533
145.429
145.328
145.216
145.072
144.865
144.554
144.092
143.44
142.596
141.625
140.661
139.864
139.348
139.12
139.084
139.116
139.133
139.124
139.113
139.117
139.136
139.162
139.188
145.402
145.816
145.949
146.092
146.171
146.213
146.216
146.187
146.131
146.054
145.96
145.856
145.749
145.645
145.556
145.491
145.461
145.473
145.532
145.632
145.766
145.918
146.072
146.213
146.328
146.413
146.462
146.477
146.457
146.406
146.326
146.223
146.102
145.971
145.837
145.709
145.589
145.481
145.379
145.274
145.15
144.979
144.728
144.351
143.802
143.055
142.136
141.144
140.236
139.565
139.198
139.085
139.101
139.131
139.131
139.116
139.112
139.125
139.148
139.175
145.255
145.707
145.863
146.032
146.135
146.197
146.218
146.206
146.163
146.096
146.01
145.91
145.804
145.697
145.599
145.521
145.471
145.461
145.495
145.575
145.694
145.839
145.994
146.143
146.273
146.374
146.442
146.474
146.471
146.436
146.37
146.278
146.165
146.038
145.905
145.773
145.649
145.534
145.43
145.328
145.216
145.072
144.867
144.561
144.108
143.466
142.629
141.655
140.677
139.864
139.339
139.114
139.087
139.122
139.137
139.123
139.111
139.117
139.136
139.161
145.096
145.585
145.764
145.959
146.087
146.171
146.212
146.216
146.188
146.133
146.056
145.963
145.859
145.751
145.648
145.558
145.492
145.46
145.472
145.529
145.629
145.762
145.914
146.069
146.21
146.327
146.412
146.462
146.477
146.458
146.408
146.329
146.225
146.105
145.974
145.84
145.711
145.591
145.481
145.379
145.274
145.149
144.979
144.731
144.361
143.822
143.086
142.169
141.168
140.244
139.558
139.189
139.083
139.107
139.137
139.132
139.114
139.111
139.125
139.148
144.927
145.451
145.651
145.874
146.026
146.134
146.196
146.219
146.206
146.164
146.098
146.012
145.913
145.807
145.7
145.602
145.522
145.472
145.46
145.493
145.572
145.69
145.835
145.991
146.141
146.271
146.373
146.441
146.474
146.472
146.437
146.372
146.281
146.168
146.041
145.908
145.776
145.65
145.535
145.43
145.328
145.215
145.071
144.868
144.567
144.122
143.492
142.663
141.686
140.694
139.863
139.329
139.108
139.09
139.129
139.14
139.122
139.109
139.117
139.135
144.747
145.305
145.525
145.774
145.953
146.086
146.17
146.212
146.217
146.189
146.135
146.058
145.965
145.862
145.754
145.651
145.56
145.493
145.46
145.47
145.526
145.625
145.758
145.911
146.066
146.208
146.325
146.411
146.461
146.477
146.459
146.409
146.331
146.228
146.108
145.976
145.842
145.713
145.592
145.482
145.379
145.274
145.149
144.979
144.733
144.37
143.842
143.117
142.205
141.194
140.251
139.55
139.179
139.082
139.113
139.143
139.132
139.112
139.11
139.125
144.556
145.148
145.387
145.662
145.867
146.025
146.133
146.196
146.219
146.207
146.166
146.1
146.014
145.916
145.809
145.703
145.604
145.524
145.472
145.459
145.491
145.569
145.686
145.831
145.987
146.138
146.269
146.371
146.44
146.474
146.473
146.439
146.375
146.283
146.171
146.044
145.911
145.778
145.652
145.536
145.43
145.327
145.215
145.071
144.869
144.572
144.136
143.518
142.698
141.72
140.712
139.861
139.317
139.101
139.094
139.137
139.143
139.119
139.107
139.117
144.355
144.981
145.237
145.536
145.767
145.952
146.084
146.169
146.212
146.217
146.191
146.136
146.06
145.967
145.864
145.757
145.653
145.562
145.494
145.46
145.468
145.523
145.621
145.754
145.907
146.063
146.205
146.323
146.409
146.461
146.477
146.46
146.411
146.333
146.231
146.11
145.979
145.845
145.715
145.593
145.483
145.379
145.273
145.148
144.98
144.736
144.378
143.861
143.148
142.241
141.223
140.259
139.541
139.167
139.081
139.122
139.149
139.131
139.109
139.11
144.142
144.805
145.075
145.398
145.653
145.865
146.023
146.132
146.195
146.219
146.208
146.167
146.102
146.017
145.918
145.812
145.706
145.607
145.526
145.473
145.458
145.489
145.566
145.683
145.827
145.984
146.135
146.267
146.37
146.439
146.473
146.473
146.44
146.377
146.286
146.174
146.047
145.913
145.78
145.654
145.537
145.43
145.327
145.215
145.071
144.87
144.576
144.148
143.543
142.734
141.755
140.731
139.858
139.303
139.093
139.099
139.146
139.145
139.116
139.105
143.917
144.619
144.903
145.249
145.527
145.764
145.949
146.083
146.168
146.212
146.218
146.192
146.138
146.062
145.97
145.867
145.76
145.656
145.564
145.496
145.46
145.467
145.52
145.618
145.75
145.903
146.059
146.203
146.322
146.408
146.46
146.478
146.461
146.413
146.336
146.234
146.113
145.982
145.848
145.717
145.595
145.483
145.379
145.273
145.148
144.98
144.738
144.385
143.879
143.179
142.28
141.253
140.268
139.529
139.153
139.081
139.132
139.156
139.129
139.104
143.677
144.423
144.722
145.088
145.388
145.65
145.862
146.021
146.13
146.195
146.219
146.209
146.169
146.103
146.019
145.921
145.815
145.708
145.609
145.527
145.473
145.457
145.487
145.562
145.679
145.824
145.98
146.132
146.265
146.368
146.438
146.473
146.474
146.441
146.379
146.289
146.177
146.05
145.916
145.783
145.656
145.538
145.431
145.327
145.215
145.072
144.871
144.58
144.159
143.567
142.77
141.793
140.753
139.854
139.286
139.085
139.107
139.157
139.146
139.109
143.421
144.217
144.531
144.917
145.237
145.523
145.761
145.946
146.081
146.167
146.212
146.218
146.193
146.14
146.064
145.972
145.869
145.763
145.659
145.567
145.497
145.46
145.465
145.517
145.614
145.747
145.9
146.056
146.2
146.32
146.407
146.46
146.478
146.462
146.414
146.338
146.236
146.116
145.985
145.85
145.719
145.596
145.484
145.379
145.273
145.149
144.981
144.74
144.391
143.895
143.21
142.32
141.286
140.276
139.514
139.137
139.082
139.145
139.162
139.123
143.148
143.999
144.329
144.736
145.075
145.384
145.646
145.859
146.019
146.129
146.194
146.219
146.21
146.17
146.105
146.021
145.923
145.817
145.711
145.612
145.529
145.474
145.457
145.484
145.559
145.675
145.82
145.977
146.129
146.263
146.367
146.438
146.473
146.474
146.443
146.381
146.291
146.18
146.053
145.919
145.785
145.657
145.539
145.431
145.327
145.215
145.072
144.873
144.583
144.169
143.589
142.807
141.834
140.777
139.849
139.265
139.076
139.118
139.169
139.144
142.855
143.766
144.117
144.546
144.904
145.232
145.518
145.757
145.944
146.079
146.166
146.211
146.219
146.194
146.141
146.066
145.974
145.872
145.765
145.661
145.569
145.498
145.46
145.464
145.515
145.61
145.743
145.896
146.053
146.198
146.318
146.406
146.459
146.478
146.463
146.416
146.34
146.239
146.119
145.988
145.853
145.721
145.598
145.484
145.379
145.273
145.149
144.982
144.742
144.397
143.909
143.239
142.362
141.323
140.286
139.496
139.117
139.085
139.16
139.167
142.541
143.516
143.893
144.345
144.723
145.07
145.378
145.642
145.856
146.017
146.128
146.194
146.22
146.211
146.171
146.107
146.023
145.925
145.82
145.714
145.614
145.531
145.475
145.456
145.482
145.556
145.671
145.816
145.973
146.127
146.261
146.366
146.437
146.473
146.475
146.444
146.383
146.294
146.182
146.056
145.922
145.787
145.659
145.54
145.431
145.327
145.215
145.073
144.875
144.587
144.177
143.609
142.844
141.879
140.804
139.841
139.239
139.067
139.132
139.181
142.206
143.247
143.656
144.134
144.532
144.897
145.225
145.513
145.754
145.941
146.077
146.165
146.211
146.219
146.195
146.143
146.068
145.977
145.875
145.768
145.664
145.571
145.499
145.46
145.462
145.512
145.607
145.738
145.892
146.05
146.195
146.316
146.405
146.459
146.478
146.464
146.418
146.342
146.242
146.122
145.99
145.855
145.723
145.599
145.485
145.379
145.272
145.149
144.984
144.745
144.402
143.921
143.266
142.406
141.366
140.297
139.471
139.094
139.093
139.179
141.851
142.955
143.402
143.909
144.332
144.716
145.062
145.372
145.638
145.853
146.015
146.126
146.193
146.22
146.211
146.173
146.109
146.025
145.928
145.823
145.717
145.617
145.533
145.475
145.455
145.48
145.552
145.667
145.812
145.97
146.124
146.258
146.364
146.436
146.473
146.475
146.445
146.384
146.296
146.185
146.059
145.924
145.79
145.661
145.542
145.431
145.326
145.214
145.074
144.877
144.59
144.184
143.626
142.88
141.928
140.837
139.831
139.205
139.061
139.158
141.478
142.638
143.132
143.67
144.121
144.525
144.89
145.219
145.508
145.75
145.939
146.076
146.164
146.211
146.22
146.196
146.145
146.07
145.979
145.877
145.771
145.667
145.573
145.501
145.46
145.461
145.509
145.603
145.734
145.888
146.047
146.193
146.314
146.404
146.458
146.478
146.465
146.419
146.345
146.245
146.125
145.993
145.858
145.726
145.601
145.486
145.379
145.272
145.15
144.986
144.749
144.406
143.93
143.29
142.452
141.416
140.312
139.437
139.067
139.12
141.095
142.293
142.842
143.414
143.898
144.325
144.708
145.055
145.366
145.633
145.85
146.013
146.125
146.192
146.22
146.212
146.174
146.111
146.027
145.93
145.825
145.719
145.619
145.535
145.476
145.455
145.478
145.549
145.663
145.808
145.966
146.121
146.256
146.363
146.435
146.472
146.476
146.446
146.386
146.299
146.188
146.061
145.927
145.792
145.663
145.543
145.432
145.326
145.214
145.075
144.88
144.595
144.19
143.639
142.914
141.983
140.88
139.816
139.156
139.073
140.709
141.92
142.531
143.14
143.66
144.114
144.517
144.882
145.213
145.503
145.747
145.936
146.074
146.163
146.211
146.22
146.197
146.146
146.072
145.981
145.88
145.774
145.669
145.576
145.502
145.46
145.46
145.506
145.599
145.73
145.884
146.043
146.191
146.313
146.403
146.458
146.478
146.465
146.421
146.347
146.247
146.128
145.996
145.861
145.728
145.603
145.487
145.379
145.271
145.15
144.988
144.753
144.411
143.938
143.309
142.497
141.478
140.335
139.384
139.038
140.333
141.519
142.198
142.845
143.404
143.89
144.317
144.7
145.048
145.361
145.629
145.847
146.011
146.124
146.192
146.22
146.213
146.176
146.113
146.03
145.933
145.828
145.722
145.622
145.537
145.477
145.454
145.476
145.546
145.659
145.804
145.963
146.118
146.254
146.361
146.434
146.472
146.476
146.448
146.388
146.301
146.191
146.064
145.93
145.795
145.665
145.544
145.432
145.325
145.213
145.076
144.884
144.6
144.196
143.649
142.941
142.043
140.944
139.796
139.066
139.983
141.095
141.841
142.528
143.13
143.652
144.106
144.509
144.874
145.206
145.499
145.743
145.934
146.072
146.163
146.211
146.221
146.199
146.148
146.074
145.984
145.882
145.776
145.672
145.578
145.504
145.46
145.458
145.503
145.595
145.726
145.88
146.04
146.188
146.311
146.402
146.457
146.479
146.466
146.423
146.349
146.25
146.131
145.999
145.863
145.73
145.605
145.488
145.378
145.271
145.15
144.99
144.758
144.419
143.946
143.322
142.536
141.559
140.385
139.253
139.676
140.655
141.463
142.191
142.836
143.398
143.884
144.31
144.692
145.042
145.356
145.626
145.845
146.01
146.123
146.192
146.221
146.215
146.178
146.115
146.032
145.935
145.831
145.725
145.625
145.539
145.478
145.453
145.473
145.541
145.654
145.799
145.959
146.115
146.253
146.361
146.434
146.473
146.477
146.45
146.391
146.305
146.194
146.068
145.932
145.797
145.667
145.546
145.433
145.325
145.213
145.078
144.888
144.609
144.208
143.66
142.958
142.096
141.053
139.735
)
;

boundaryField
{
    bottomwall
    {
        type            opaque;
        refValue        uniform 0;
        refGradient     uniform 0;
        valueFraction   uniform 0;
        source          uniform 0;
        value           nonuniform List<scalar> 
60
(
145.681
145.884
146.02
146.162
146.284
146.378
146.441
146.468
146.46
146.419
146.348
146.253
146.139
146.014
145.886
145.762
145.648
145.548
145.461
145.374
145.267
145.105
144.844
144.443
143.876
143.15
142.31
141.437
140.628
139.967
139.499
139.224
139.102
139.074
139.087
139.107
139.122
139.134
139.146
139.162
139.182
139.203
139.226
139.25
139.274
139.3
139.327
139.36
139.398
139.442
139.483
139.519