/*--------------------------------*- C++ -*----------------------------------*\
| =========                 |                                                 |
| \\      /  F ield         | OpenFOAM: The Open Source CFD Toolbox           |
|  \\    /   O peration     | Version:  2406                                  |
|   \\  /    A nd           | Website:  www.openfoam.com                      |
|    \\/     M anipulation  |                                                 |
\*---------------------------------------------------------------------------*/
FoamFile
{
    version     2.0;
    format      ascii;
    arch        "LSB;label=32;scalar=64";
    class       volScalarField;
    location    "10000";
    object      ILambda_8_0;
}
// * * * * * * * * * * * * * * * * * * * * * * * * * * * * * * * * * * * * * //

dimensions      [1 0 -3 0 0 0 0];

internalField   nonuniform List<scalar> 
3600
(
139.047
139.169
139.293
139.359
139.327
139.232
139.144
139.112
139.145
139.221
139.312
139.384
139.407
139.372
139.289
139.189
139.108
139.068
139.075
139.118
139.181
139.249
139.307
139.343
139.346
139.313
139.253
139.196
139.192
139.298
139.564
140.007
140.611
141.321
142.067
142.783
143.424
143.969
144.424
144.805
145.13
145.411
145.654
145.857
146.017
146.132
146.201
146.228
146.218
146.177
146.111
146.026
145.927
145.823
145.719
145.625
145.547
145.501
145.471
145.546
139.141
139.271
139.371
139.362
139.257
139.146
139.098
139.123
139.201
139.297
139.38
139.418
139.393
139.312
139.206
139.113
139.063
139.062
139.103
139.168
139.239
139.301
139.343
139.355
139.328
139.269
139.202
139.174
139.247
139.474
139.886
140.471
141.179
141.938
142.674
143.335
143.897
144.364
144.752
145.083
145.37
145.62
145.831
145.999
146.122
146.199
146.233
146.228
146.191
146.127
146.044
145.947
145.842
145.736
145.638
145.556
145.499
145.481
145.479
145.606
139.19
139.325
139.382
139.315
139.195
139.114
139.107
139.16
139.247
139.338
139.402
139.411
139.358
139.261
139.159
139.086
139.061
139.081
139.134
139.201
139.268
139.321
139.35
139.345
139.302
139.237
139.183
139.196
139.335
139.647
140.14
140.785
141.52
142.269
142.97
143.584
144.101
144.531
144.894
145.206
145.478
145.712
145.905
146.054
146.156
146.214
146.23
146.211
146.163
146.09
146.001
145.9
145.795
145.692
145.601
145.53
145.487
145.487
145.503
145.654
139.253
139.38
139.369
139.252
139.139
139.097
139.127
139.202
139.296
139.379
139.418
139.393
139.312
139.206
139.114
139.064
139.064
139.105
139.168
139.237
139.299
139.341
139.354
139.329
139.271
139.204
139.174
139.244
139.468
139.876
140.457
141.162
141.917
142.651
143.31
143.873
144.341
144.732
145.066
145.356
145.608
145.821
145.991
146.116
146.194
146.229
146.226
146.19
146.128
146.046
145.949
145.845
145.74
145.642
145.56
145.503
145.478
145.499
145.536
145.714
139.33
139.405
139.316
139.18
139.102
139.105
139.163
139.25
139.343
139.407
139.415
139.358
139.257
139.153
139.081
139.058
139.081
139.136
139.204
139.271
139.324
139.352
139.346
139.303
139.235
139.179
139.191
139.333
139.65
140.152
140.806
141.547
142.299
142.998
143.608
144.12
144.545
144.905
145.215
145.487
145.72
145.912
146.06
146.161
146.216
146.231
146.211
146.161
146.088
145.998
145.897
145.791
145.689
145.598
145.527
145.486
145.481
145.523
145.58
145.781
139.407
139.382
139.238
139.123
139.093
139.13
139.206
139.299
139.382
139.422
139.395
139.31
139.201
139.109
139.061
139.064
139.107
139.171
139.24
139.301
139.343
139.355
139.329
139.27
139.202
139.171
139.241
139.468
139.882
140.469
141.179
141.936
142.669
143.324
143.882
144.346
144.735
145.068
145.358
145.611
145.824
145.994
146.117
146.195
146.229
146.225
146.189
146.126
146.044
145.947
145.843
145.738
145.64
145.558
145.501
145.478
145.494
145.557
145.634
145.852
139.444
139.31
139.159
139.093
139.107
139.167
139.253
139.345
139.412
139.419
139.358
139.253
139.147
139.076
139.056
139.082
139.139
139.207
139.273
139.325
139.354
139.348
139.303
139.234
139.177
139.188
139.331
139.652
140.161
140.821
141.567
142.32
143.017
143.622
144.13
144.552
144.909
145.22
145.491
145.725
145.916
146.063
146.162
146.217
146.231
146.21
146.159
146.086
145.996
145.895
145.789
145.686
145.595
145.525
145.484
145.481
145.519
145.602
145.697
145.926
139.407
139.216
139.106
139.093
139.136
139.209
139.301
139.386
139.426
139.397
139.307
139.195
139.103
139.058
139.065
139.109
139.174
139.242
139.302
139.344
139.356
139.33
139.27
139.2
139.168
139.238
139.468
139.887
140.482
141.197
141.957
142.688
143.34
143.894
144.354
144.74
145.072
145.362
145.615
145.828
145.997
146.119
146.196
146.229
146.224
146.187
146.124
146.042
145.945
145.841
145.736
145.638
145.556
145.5
145.477
145.495
145.554
145.657
145.767
146.002
139.307
139.136
139.088
139.113
139.171
139.254
139.348
139.417
139.423
139.358
139.249
139.141
139.072
139.055
139.084
139.141
139.209
139.275
139.327
139.355
139.349
139.304
139.233
139.174
139.184
139.329
139.655
140.17
140.837
141.587
142.341
143.035
143.636
144.139
144.558
144.914
145.224
145.495
145.729
145.92
146.065
146.164
146.218
146.231
146.209
146.158
146.084
145.994
145.892
145.787
145.684
145.593
145.523
145.483
145.481
145.52
145.6
145.719
145.842
146.076
139.191
139.095
139.099
139.142
139.21
139.302
139.39
139.432
139.399
139.304
139.189
139.097
139.055
139.065
139.111
139.176
139.244
139.304
139.345
139.357
139.331
139.27
139.198
139.164
139.234
139.468
139.893
140.495
141.216
141.978
142.708
143.356
143.905
144.361
144.745
145.076
145.366
145.619
145.832
146
146.122
146.197
146.229
146.223
146.186
146.123
146.04
145.943
145.838
145.733
145.635
145.554
145.498
145.476
145.495
145.556
145.655
145.788
145.921
146.148
139.11
139.092
139.122
139.173
139.253
139.35
139.422
139.427
139.357
139.244
139.135
139.067
139.054
139.086
139.144
139.212
139.277
139.328
139.356
139.35
139.305
139.232
139.171
139.18
139.327
139.657
140.179
140.853
141.607
142.362
143.053
143.65
144.148
144.563
144.918
145.228
145.5
145.733
145.924
146.068
146.166
146.218
146.23
146.207
146.156
146.082
145.991
145.89
145.784
145.682
145.591
145.521
145.482
145.48
145.521
145.602
145.719
145.862
146
146.216
139.082
139.109
139.147
139.208
139.302
139.395
139.438
139.401
139.301
139.182
139.091
139.053
139.066
139.114
139.179
139.246
139.305
139.347
139.359
139.332
139.27
139.196
139.161
139.231
139.467
139.899
140.508
141.235
142
142.728
143.372
143.916
144.368
144.75
145.08
145.371
145.623
145.836
146.003
146.124
146.198
146.229
146.222
146.184
146.121
146.038
145.941
145.836
145.731
145.633
145.552
145.497
145.476
145.495
145.557
145.658
145.789
145.939
146.079
146.278
139.093
139.129
139.173
139.251
139.353
139.429
139.432
139.356
139.238
139.128
139.063
139.053
139.088
139.147
139.215
139.278
139.33
139.357
139.351
139.305
139.231
139.168
139.176
139.324
139.66
140.189
140.87
141.628
142.383
143.071
143.663
144.156
144.569
144.922
145.232
145.504
145.737
145.927
146.071
146.167
146.219
146.23
146.206
146.155
146.08
145.989
145.888
145.782
145.679
145.589
145.52
145.481
145.48
145.521
145.604
145.722
145.864
146.016
146.154
146.332
139.116
139.148
139.204
139.301
139.401
139.445
139.404
139.297
139.175
139.085
139.05
139.067
139.117
139.182
139.249
139.307
139.348
139.36
139.333
139.27
139.194
139.157
139.227
139.467
139.905
140.521
141.254
142.021
142.748
143.388
143.926
144.375
144.754
145.084
145.375
145.628
145.84
146.007
146.126
146.199
146.229
146.222
146.183
146.119
146.035
145.938
145.834
145.729
145.631
145.55
145.495
145.475
145.495
145.558
145.66
145.792
145.941
146.092
146.225
146.378
139.135
139.168
139.247
139.356
139.437
139.437
139.355
139.231
139.121
139.059
139.053
139.09
139.15
139.217
139.28
139.331
139.359
139.352
139.306
139.231
139.165
139.172
139.322
139.662
140.198
140.886
141.649
142.404
143.089
143.676
144.165
144.575
144.927
145.236
145.508
145.741
145.931
146.074
146.169
146.219
146.229
146.205
146.153
146.078
145.987
145.885
145.779
145.677
145.587
145.518
145.48
145.48
145.522
145.606
145.725
145.867
146.019
146.165
146.289
146.415
139.147
139.198
139.301
139.408
139.453
139.406
139.292
139.168
139.08
139.048
139.068
139.12
139.185
139.251
139.308
139.349
139.361
139.335
139.27
139.192
139.153
139.223
139.466
139.911
140.535
141.274
142.043
142.768
143.403
143.937
144.381
144.759
145.088
145.379
145.632
145.844
146.01
146.128
146.2
146.229
146.221
146.182
146.117
146.033
145.936
145.831
145.726
145.629
145.548
145.494
145.474
145.495
145.559
145.662
145.795
145.945
146.096
146.233
146.345
146.442
139.162
139.243
139.361
139.446
139.443
139.353
139.224
139.113
139.055
139.053
139.092
139.153
139.219
139.282
139.332
139.36
139.354
139.307
139.23
139.162
139.168
139.319
139.665
140.208
140.904
141.67
142.425
143.107
143.688
144.173
144.58
144.931
145.24
145.513
145.746
145.935
146.076
146.17
146.219
146.229
146.204
146.151
146.076
145.985
145.883
145.777
145.675
145.585
145.516
145.478
145.479
145.522
145.607
145.727
145.871
146.023
146.169
146.294
146.393
146.46
139.189
139.301
139.416
139.461
139.407
139.287
139.159
139.074
139.047
139.07
139.122
139.187
139.253
139.31
139.35
139.362
139.336
139.27
139.19
139.149
139.219
139.466
139.917
140.549
141.294
142.065
142.788
143.418
143.947
144.388
144.764
145.093
145.384
145.637
145.848
146.013
146.13
146.201
146.229
146.22
146.18
146.115
146.031
145.934
145.829
145.724
145.627
145.546
145.492
145.473
145.495
145.561
145.665
145.799
145.949
146.1
146.238
146.348
146.431
146.468
139.235
139.366
139.456
139.448
139.35
139.216
139.106
139.051
139.054
139.095
139.156
139.222
139.283
139.333
139.361
139.355
139.308
139.229
139.159
139.163
139.316
139.667
140.219
140.921
141.692
142.447
143.124
143.7
144.181
144.585
144.935
145.245
145.517
145.75
145.938
146.079
146.172
146.22
146.228
146.203
146.15
146.074
145.983
145.881
145.775
145.673
145.583
145.514
145.477
145.479
145.523
145.609
145.73
145.874
146.027
146.173
146.299
146.392
146.46
146.467
139.297
139.425
139.47
139.408
139.28
139.151
139.068
139.046
139.072
139.125
139.19
139.254
139.311
139.351
139.364
139.337
139.271
139.188
139.145
139.215
139.465
139.923
140.563
141.314
142.087
142.807
143.433
143.956
144.394
144.768
145.097
145.388
145.641
145.852
146.016
146.132
146.201
146.229
146.219
146.179
146.113
146.029
145.931
145.827
145.722
145.624
145.544
145.491
145.472
145.496
145.562
145.667
145.802
145.953
146.104
146.24
146.352
146.427
146.478
146.456
139.369
139.467
139.454
139.346
139.207
139.098
139.048
139.054
139.098
139.159
139.224
139.285
139.334
139.362
139.356
139.309
139.229
139.156
139.159
139.313
139.67
140.229
140.94
141.714
142.468
143.142
143.712
144.188
144.59
144.94
145.249
145.522
145.754
145.942
146.081
146.173
146.22
146.228
146.202
146.148
146.072
145.98
145.878
145.772
145.67
145.581
145.513
145.476
145.478
145.524
145.611
145.733
145.878
146.031
146.177
146.301
146.397
146.453
146.487
146.438
139.435
139.479
139.408
139.272
139.142
139.063
139.045
139.074
139.128
139.193
139.256
139.312
139.352
139.365
139.339
139.271
139.187
139.141
139.21
139.464
139.929
140.578
141.335
142.11
142.827
143.447
143.966
144.4
144.773
145.101
145.393
145.646
145.856
146.019
146.134
146.202
146.228
146.218
146.177
146.112
146.027
145.929
145.824
145.719
145.622
145.542
145.489
145.472
145.496
145.563
145.669
145.805
145.957
146.108
146.244
146.354
146.432
146.469
146.486
146.41
139.482
139.459
139.341
139.197
139.091
139.046
139.056
139.101
139.161
139.226
139.286
139.335
139.363
139.358
139.31
139.228
139.153
139.154
139.309
139.672
140.24
140.958
141.737
142.49
143.159
143.724
144.195
144.595
144.944
145.254
145.527
145.759
145.946
146.084
146.174
146.22
146.227
146.201
146.146
146.07
145.978
145.876
145.77
145.668
145.578
145.511
145.475
145.478
145.524
145.613
145.736
145.882
146.035
146.18
146.305
146.398
146.458
146.475
146.476
146.376
139.496
139.408
139.263
139.132
139.058
139.045
139.076
139.131
139.195
139.258
139.313
139.353
139.366
139.34
139.272
139.185
139.136
139.205
139.463
139.936
140.593
141.356
142.132
142.846
143.461
143.975
144.405
144.777
145.106
145.397
145.65
145.86
146.022
146.136
146.203
146.228
146.217
146.176
146.11
146.025
145.927
145.822
145.717
145.62
145.54
145.488
145.471
145.496
145.564
145.672
145.809
145.96
146.112
146.248
146.357
146.433
146.473
146.472
146.457
146.334
139.472
139.336
139.187
139.083
139.044
139.058
139.103
139.164
139.228
139.287
139.336
139.364
139.359
139.311
139.228
139.149
139.148
139.306
139.674
140.251
140.977
141.76
142.511
143.176
143.735
144.202
144.6
144.948
145.258
145.531
145.763
145.949
146.086
146.176
146.221
146.227
146.199
146.145
146.068
145.976
145.874
145.768
145.666
145.576
145.509
145.474
145.478
145.525
145.615
145.739
145.886
146.039
146.184
146.308
146.401
146.458
146.479
146.46
146.429
146.286
139.415
139.255
139.123
139.054
139.046
139.079
139.134
139.197
139.259
139.314
139.354
139.367
139.341
139.273
139.183
139.132
139.2
139.462
139.943
140.609
141.378
142.155
142.866
143.475
143.983
144.411
144.781
145.11
145.402
145.655
145.864
146.025
146.138
146.204
146.228
146.216
146.174
146.108
146.023
145.925
145.819
145.714
145.618
145.538
145.486
145.47
145.496
145.566
145.674
145.812
145.964
146.116
146.251
146.36
146.435
146.473
146.476
146.439
146.394
146.233
139.336
139.178
139.077
139.043
139.06
139.106
139.166
139.23
139.289
139.337
139.365
139.361
139.313
139.228
139.146
139.143
139.302
139.677
140.263
140.997
141.783
142.533
143.192
143.746
144.209
144.605
144.953
145.263
145.536
145.768
145.953
146.089
146.177
146.221
146.226
146.198
146.143
146.066
145.974
145.871
145.765
145.663
145.574
145.507
145.473
145.477
145.526
145.617
145.742
145.889
146.043
146.188
146.311
146.403
146.459
146.478
146.464
146.411
146.352
146.175
139.249
139.115
139.051
139.047
139.082
139.137
139.199
139.261
139.315
139.355
139.368
139.343
139.274
139.182
139.127
139.195
139.46
139.95
140.625
141.401
142.178
142.885
143.488
143.992
144.416
144.786
145.115
145.407
145.66
145.868
146.028
146.14
146.204
146.228
146.215
146.173
146.106
146.021
145.922
145.817
145.712
145.616
145.536
145.485
145.469
145.496
145.567
145.677
145.815
145.968
146.12
146.255
146.363
146.436
146.474
146.475
146.443
146.375
146.303
146.113
139.168
139.072
139.043
139.063
139.109
139.169
139.231
139.29
139.338
139.366
139.362
139.314
139.228
139.143
139.137
139.297
139.679
140.275
141.017
141.807
142.554
143.208
143.757
144.215
144.609
144.957
145.268
145.541
145.772
145.956
146.091
146.178
146.221
146.225
146.197
146.141
146.064
145.972
145.869
145.763
145.661
145.572
145.506
145.471
145.477
145.527
145.618
145.745
145.893
146.047
146.192
146.314
146.405
146.46
146.479
146.462
146.414
146.332
146.249
146.049
139.105
139.048
139.049
139.085
139.139
139.201
139.263
139.316
139.355
139.369
139.345
139.275
139.18
139.122
139.189
139.458
139.957
140.642
141.424
142.202
142.904
143.501
144
144.422
144.79
145.119
145.412
145.665
145.872
146.031
146.141
146.205
146.228
146.214
146.171
146.104
146.019
145.92
145.815
145.71
145.613
145.535
145.483
145.469
145.496
145.568
145.679
145.819
145.972
146.124
146.258
146.365
146.438
146.474
146.475
146.441
146.377
146.282
146.19
145.982
139.062
139.043
139.065
139.112
139.17
139.233
139.292
139.339
139.367
139.363
139.316
139.228
139.14
139.131
139.293
139.681
140.287
141.038
141.831
142.576
143.224
143.767
144.222
144.614
144.962
145.273
145.546
145.777
145.96
146.094
146.179
146.221
146.225
146.196
146.14
146.062
145.969
145.867
145.761
145.659
145.57
145.504
145.47
145.477
145.527
145.62
145.748
145.897
146.051
146.196
146.317
146.407
146.461
146.479
146.461
146.411
146.334
146.228
146.126
145.913
139.042
139.051
139.088
139.141
139.203
139.264
139.318
139.356
139.37
139.346
139.276
139.179
139.117
139.182
139.456
139.964
140.66
141.447
142.225
142.923
143.514
144.007
144.427
144.795
145.124
145.417
145.67
145.876
146.034
146.143
146.206
146.227
146.213
146.17
146.103
146.016
145.918
145.812
145.707
145.611
145.533
145.482
145.468
145.497
145.57
145.682
145.822
145.976
146.128
146.262
146.368
146.44
146.475
146.474
146.44
146.375
146.284
146.168
146.06
145.845
139.039
139.067
139.114
139.172
139.235
139.293
139.34
139.367
139.364
139.318
139.228
139.136
139.124
139.287
139.683
140.3
141.06
141.855
142.598
143.24
143.776
144.228
144.619
144.966
145.278
145.551
145.781
145.963
146.096
146.18
146.221
146.224
146.194
146.138
146.06
145.967
145.864
145.758
145.657
145.568
145.502
145.469
145.477
145.528
145.622
145.751
145.901
146.055
146.2
146.32
146.409
146.462
146.479
146.461
146.41
146.331
146.229
146.105
145.992
145.777
139.049
139.089
139.143
139.204
139.266
139.319
139.357
139.371
139.348
139.278
139.178
139.112
139.175
139.454
139.972
140.678
141.471
142.249
142.941
143.526
144.015
144.432
144.799
145.129
145.422
145.674
145.88
146.037
146.145
146.206
146.227
146.213
146.169
146.101
146.014
145.915
145.81
145.705
145.609
145.531
145.48
145.467
145.497
145.571
145.684
145.826
145.98
146.132
146.265
146.37
146.441
146.475
146.474
146.439
146.373
146.281
146.17
146.039
145.922
145.71
139.067
139.115
139.173
139.237
139.295
139.341
139.367
139.365
139.32
139.229
139.133
139.118
139.282
139.686
140.314
141.082
141.88
142.619
143.255
143.786
144.233
144.623
144.971
145.283
145.556
145.786
145.967
146.098
146.182
146.221
146.223
146.193
146.136
146.058
145.965
145.862
145.756
145.654
145.566
145.501
145.468
145.476
145.529
145.624
145.754
145.905
146.06
146.203
146.323
146.411
146.463
146.479
146.46
146.409
146.329
146.226
146.106
145.971
145.852
145.645
139.089
139.143
139.206
139.268
139.321
139.357
139.371
139.349
139.28
139.177
139.106
139.168
139.451
139.98
140.697
141.496
142.273
142.96
143.538
144.022
144.437
144.804
145.134
145.427
145.679
145.885
146.04
146.146
146.207
146.227
146.212
146.167
146.099
146.012
145.913
145.808
145.703
145.607
145.529
145.479
145.466
145.497
145.572
145.687
145.829
145.985
146.136
146.269
146.373
146.442
146.476
146.473
146.438
146.372
146.279
146.166
146.04
145.901
145.784
145.582
139.115
139.174
139.238
139.297
139.342
139.367
139.366
139.322
139.23
139.13
139.11
139.275
139.688
140.328
141.105
141.905
142.64
143.269
143.794
144.239
144.628
144.976
145.288
145.561
145.79
145.97
146.1
146.183
146.222
146.223
146.192
146.135
146.056
145.963
145.86
145.753
145.652
145.564
145.499
145.467
145.476
145.53
145.626
145.757
145.908
146.064
146.207
146.326
146.413
146.464
146.479
146.459
146.407
146.327
146.224
146.102
145.972
145.832
145.717
145.521
139.143
139.206
139.27
139.322
139.357
139.371
139.351
139.282
139.177
139.1
139.16
139.448
139.988
140.717
141.522
142.297
142.977
143.549
144.028
144.442
144.809
145.139
145.433
145.684
145.888
146.043
146.148
146.207
146.226
146.211
146.166
146.097
146.01
145.911
145.805
145.7
145.605
145.527
145.477
145.466
145.497
145.574
145.69
145.833
145.989
146.14
146.272
146.375
146.444
146.476
146.473
146.437
146.37
146.277
146.164
146.036
145.903
145.763
145.652
145.461
139.174
139.24
139.299
139.343
139.367
139.367
139.324
139.232
139.127
139.102
139.268
139.69
140.343
141.129
141.931
142.661
143.283
143.803
144.245
144.633
144.981
145.293
145.567
145.795
145.974
146.102
146.184
146.222
146.222
146.191
146.133
146.054
145.961
145.857
145.751
145.65
145.562
145.497
145.466
145.476
145.531
145.629
145.76
145.912
146.068
146.211
146.329
146.415
146.465
146.479
146.458
146.406
146.326
146.221
146.1
145.967
145.834
145.696
145.59
145.403
139.207
139.272
139.324
139.357
139.371
139.353
139.285
139.177
139.094
139.151
139.444
139.996
140.737
141.548
142.321
142.994
143.559
144.035
144.447
144.814
145.144
145.438
145.689
145.892
146.046
146.149
146.208
146.226
146.21
146.164
146.095
146.008
145.909
145.803
145.698
145.602
145.525
145.476
145.465
145.498
145.575
145.692
145.837
145.993
146.144
146.276
146.378
146.445
146.477
146.473
146.435
146.368
146.275
146.161
146.033
145.898
145.765
145.631
145.531
145.344
139.241
139.302
139.344
139.367
139.367
139.327
139.235
139.124
139.093
139.26
139.692
140.358
141.154
141.957
142.682
143.296
143.81
144.25
144.637
144.986
145.299
145.572
145.799
145.977
146.105
146.184
146.222
146.221
146.19
146.131
146.052
145.958
145.855
145.749
145.647
145.56
145.495
145.465
145.475
145.532
145.631
145.764
145.916
146.072
146.215
146.332
146.417
146.466
146.479
146.458
146.405
146.324
146.219
146.097
145.965
145.829
145.699
145.567
145.475
145.284
139.274
139.327
139.357
139.37
139.354
139.289
139.177
139.088
139.141
139.44
140.006
140.759
141.575
142.344
143.011
143.569
144.041
144.452
144.819
145.15
145.443
145.694
145.896
146.048
146.151
146.208
146.226
146.209
146.163
146.093
146.006
145.906
145.801
145.696
145.6
145.523
145.475
145.464
145.498
145.577
145.695
145.84
145.997
146.148
146.279
146.38
146.447
146.477
146.472
146.434
146.367
146.273
146.158
146.03
145.895
145.76
145.634
145.506
145.421
145.22
139.305
139.345
139.365
139.366
139.33
139.238
139.122
139.084
139.251
139.694
140.375
141.181
141.984
142.702
143.309
143.818
144.255
144.642
144.991
145.304
145.577
145.804
145.98
146.107
146.185
146.221
146.221
146.188
146.13
146.05
145.956
145.853
145.746
145.645
145.558
145.494
145.464
145.475
145.532
145.633
145.767
145.92
146.076
146.218
146.335
146.419
146.467
146.479
146.457
146.403
146.322
146.217
146.094
145.961
145.826
145.693
145.572
145.447
145.369
145.151
139.331
139.357
139.368
139.355
139.293
139.179
139.081
139.129
139.435
140.015
140.782
141.603
142.368
143.027
143.579
144.047
144.457
144.824
145.155
145.449
145.699
145.9
146.051
146.152
146.209
146.225
146.208
146.161
146.091
146.004
145.904
145.798
145.694
145.598
145.521
145.473
145.463
145.498
145.578
145.698
145.844
146.001
146.152
146.282
146.383
146.448
146.477
146.472
146.433
146.365
146.271
146.156
146.027
145.892
145.758
145.629
145.512
145.39
145.316
145.072
139.349
139.364
139.365
139.333
139.243
139.12
139.073
139.241
139.695
140.393
141.208
142.01
142.721
143.321
143.825
144.261
144.648
144.997
145.31
145.582
145.808
145.984
146.109
146.186
146.221
146.22
146.187
146.128
146.048
145.954
145.85
145.744
145.643
145.556
145.492
145.462
145.475
145.533
145.635
145.77
145.924
146.08
146.222
146.338
146.421
146.467
146.479
146.456
146.402
146.32
146.214
146.091
145.958
145.823
145.691
145.566
145.455
145.332
145.262
144.981
139.359
139.365
139.356
139.298
139.181
139.074
139.117
139.429
140.026
140.807
141.632
142.391
143.042
143.587
144.053
144.462
144.829
145.161
145.454
145.704
145.904
146.054
146.154
146.209
146.225
146.207
146.16
146.09
146.002
145.902
145.796
145.691
145.596
145.519
145.472
145.463
145.499
145.58
145.701
145.848
146.005
146.156
146.286
146.385
146.449
146.477
146.471
146.432
146.363
146.268
146.153
146.024
145.889
145.755
145.627
145.506
145.399
145.274
145.203
144.873
139.363
139.364
139.337
139.248
139.118
139.061
139.229
139.697
140.412
141.237
142.037
142.74
143.332
143.832
144.266
144.653
145.002
145.315
145.587
145.813
145.987
146.111
146.187
146.221
146.219
146.186
146.126
146.046
145.952
145.848
145.742
145.641
145.554
145.49
145.461
145.475
145.534
145.637
145.774
145.928
146.085
146.226
146.341
146.422
146.468
146.478
146.455
146.4
146.318
146.212
146.088
145.955
145.82
145.688
145.565
145.448
145.344
145.212
145.136
144.745
139.363
139.357
139.305
139.185
139.067
139.102
139.423
140.038
140.834
141.661
142.414
143.056
143.596
144.059
144.467
144.835
145.166
145.459
145.709
145.908
146.056
146.155
146.209
146.224
146.206
146.158
146.088
145.999
145.899
145.793
145.689
145.594
145.517
145.47
145.462
145.499
145.581
145.703
145.852
146.01
146.16
146.289
146.387
146.45
146.478
146.471
146.431
146.362
146.266
146.15
146.021
145.886
145.752
145.624
145.505
145.392
145.288
145.144
145.057
144.592
139.361
139.342
139.256
139.117
139.048
139.216
139.699
140.434
141.267
142.064
142.758
143.342
143.839
144.272
144.658
145.008
145.321
145.593
145.817
145.99
146.113
146.188
146.221
146.219
146.185
146.125
146.044
145.949
145.845
145.739
145.639
145.552
145.489
145.46
145.474
145.535
145.639
145.777
145.933
146.089
146.23
146.344
146.424
146.469
146.478
146.454
146.399
146.316
146.209
146.085
145.952
145.817
145.685
145.561
145.447
145.336
145.229
145.068
144.963
144.41
139.358
139.312
139.191
139.06
139.085
139.414
140.05
140.863
141.691
142.436
143.069
143.604
144.065
144.473
144.84
145.172
145.465
145.714
145.912
146.059
146.156
146.209
146.224
146.205
146.157
146.086
145.997
145.897
145.791
145.687
145.592
145.516
145.469
145.461
145.499
145.583
145.706
145.856
146.014
146.164
146.292
146.389
146.452
146.478
146.47
146.43
146.36
146.264
146.148
146.018
145.882
145.748
145.621
145.502
145.391
145.28
145.164
144.979
144.848
144.194
139.347
139.264
139.118
139.034
139.199
139.701
140.457
141.299
142.091
142.774
143.352
143.845
144.277
144.664
145.013
145.326
145.598
145.822
145.993
146.114
146.188
146.221
146.218
146.183
146.123
146.042
145.947
145.843
145.737
145.636
145.55
145.487
145.459
145.474
145.536
145.642
145.78
145.937
146.093
146.234
146.347
146.426
146.469
146.478
146.453
146.398
146.314
146.207
146.082
145.949
145.813
145.682
145.559
145.444
145.336
145.22
145.09
144.874
144.707
143.943
139.321
139.199
139.053
139.065
139.404
140.065
140.894
141.722
142.457
143.081
143.611
144.071
144.478
144.846
145.177
145.47
145.718
145.916
146.061
146.158
146.21
146.223
146.204
146.156
146.084
145.995
145.895
145.789
145.684
145.59
145.514
145.467
145.461
145.5
145.585
145.709
145.859
146.018
146.168
146.296
146.392
146.453
146.478
146.469
146.429
146.358
146.262
146.145
146.015
145.879
145.745
145.618
145.499
145.388
145.279
145.155
145.003
144.747
144.536
143.652
139.277
139.122
139.018
139.179
139.703
140.485
141.334
142.116
142.789
143.36
143.852
144.283
144.669
145.019
145.332
145.603
145.826
145.997
146.116
146.189
146.221
146.217
146.182
146.122
146.04
145.945
145.841
145.735
145.634
145.548
145.485
145.458
145.474
145.537
145.644
145.784
145.941
146.097
146.237
146.349
146.427
146.47
146.478
146.452
146.396
146.312
146.204
146.08
145.946
145.81
145.679
145.556
145.442
145.333
145.22
145.082
144.899
144.596
144.33
143.321
139.214
139.049
139.041
139.392
140.083
140.929
141.753
142.476
143.091
143.619
144.077
144.484
144.851
145.183
145.476
145.724
145.92
146.064
146.159
146.21
146.223
146.203
146.154
146.082
145.993
145.892
145.786
145.682
145.587
145.512
145.466
145.46
145.5
145.586
145.712
145.863
146.023
146.172
146.299
146.394
146.454
146.478
146.469
146.428
146.357
146.26
146.142
146.012
145.876
145.742
145.615
145.497
145.386
145.277
145.155
144.995
144.772
144.415
144.083
142.95
139.139
139.001
139.152
139.706
140.517
141.37
142.14
142.802
143.369
143.859
144.29
144.675
145.024
145.337
145.609
145.831
146
146.118
146.19
146.221
146.216
146.181
146.12
146.038
145.942
145.838
145.732
145.632
145.546
145.484
145.457
145.474
145.538
145.646
145.787
145.945
146.102
146.241
146.352
146.429
146.471
146.478
146.452
146.395
146.31
146.202
146.077
145.942
145.807
145.676
145.553
145.439
145.331
145.217
145.081
144.891
144.62
144.202
143.792
142.543
139.058
139.009
139.374
140.106
140.969
141.783
142.492
143.101
143.626
144.084
144.49
144.857
145.188
145.481
145.729
145.924
146.066
146.16
146.21
146.223
146.202
146.153
146.08
145.991
145.89
145.784
145.68
145.585
145.51
145.465
145.459
145.5
145.588
145.715
145.867
146.027
146.176
146.302
146.396
146.455
146.478
146.468
146.426
146.355
146.257
146.14
146.009
145.873
145.739
145.612
145.494
145.383
145.274
145.152
144.994
144.765
144.436
143.953
143.452
142.106
138.988
139.113
139.712
140.557
141.407
142.161
142.813
143.377
143.867
144.296
144.681
145.029
145.343
145.614
145.835
146.003
146.12
146.19
146.221
146.216
146.18
146.118
146.036
145.94
145.836
145.73
145.63
145.544
145.482
145.456
145.474
145.539
145.649
145.791
145.949
146.106
146.245
146.355
146.431
146.471
146.477
146.451
146.393
146.308
146.199
146.074
145.939
145.804
145.673
145.551
145.437
145.328
145.215
145.078
144.889
144.613
144.218
143.664
143.061
141.65
138.956
139.35
140.142
141.014
141.811
142.506
143.11
143.635
144.092
144.496
144.862
145.194
145.487
145.734
145.928
146.068
146.161
146.21
146.222
146.201
146.151
146.078
145.988
145.887
145.782
145.678
145.583
145.508
145.463
145.458
145.501
145.59
145.718
145.871
146.031
146.18
146.305
146.398
146.456
146.478
146.468
146.425
146.353
146.255
146.137
146.005
145.869
145.736
145.61
145.492
145.381
145.272
145.15
144.992
144.763
144.429
143.963
143.335
142.621
141.191
139.023
139.729
140.611
141.442
142.178
142.824
143.387
143.875
144.303
144.686
145.035
145.349
145.62
145.84
146.006
146.121
146.191
146.221
146.215
146.179
146.117
146.034
145.938
145.834
145.728
145.627
145.541
145.48
145.454
145.473
145.54
145.651
145.795
145.954
146.111
146.249
146.358
146.432
146.472
146.477
146.45
146.392
146.306
146.197
146.071
145.936
145.8
145.67
145.548
145.434
145.326
145.213
145.077
144.888
144.61
144.211
143.668
142.962
142.135
140.75
139.284
140.203
141.061
141.832
142.519
143.122
143.646
144.1
144.502
144.868
145.2
145.494
145.74
145.933
146.072
146.163
146.211
146.222
146.201
146.15
146.077
145.986
145.885
145.779
145.675
145.58
145.505
145.461
145.457
145.5
145.591
145.721
145.876
146.036
146.185
146.309
146.401
146.457
146.479
146.468
146.425
146.352
146.253
146.134
146.002
145.866
145.733
145.607
145.489
145.379
145.27
145.15
144.992
144.763
144.428
143.958
143.334
142.547
141.614
140.348
)
;

boundaryField
{
    bottomwall
    {
        type            opaque;
        refValue        uniform 0;
        refGradient     uniform 0;
        valueFraction   uniform 0;
        source          uniform 0;
        value           nonuniform List<scalar> 
60
(
139.047
139.169
139.293
139.359
139.327
139.232
139.144
139.112
139.145
139.221
139.312
139.384
139.407
139.372
139.289
139.189
139.108
139.068
139.075
139.118
139.181
139.249
139.307
139.343
139.346
139.313
139.253
139.196
139.192
139.298
139.564
140.007
140.611
141.321
142.067
142.783
143.424
143.969
144.424
144.805
145.13
145.411
145.654
145.857
146.017
146.132
146.201
146.228
146.218
146.177
146.111