/*--------------------------------*- C++ -*----------------------------------*\
| =========                 |                                                 |
| \\      /  F ield         | OpenFOAM: The Open Source CFD Toolbox           |
|  \\    /   O peration     | Version:  2406                                  |
|   \\  /    A nd           | Website:  www.openfoam.com                      |
|    \\/     M anipulation  |                                                 |
\*---------------------------------------------------------------------------*/
FoamFile
{
    version     2.0;
    format      ascii;
    arch        "LSB;label=32;scalar=64";
    class       volScalarField;
    location    "10000";
    object      ILambda_17_0;
}
// * * * * * * * * * * * * * * * * * * * * * * * * * * * * * * * * * * * * * //

dimensions      [1 0 -3 0 0 0 0];

internalField   nonuniform List<scalar> 
3600
(
144.03
146.228
147.175
147.814
148.243
148.548
148.775
148.953
149.101
149.232
149.353
149.468
149.579
149.686
149.79
149.893
149.996
150.102
150.21
150.322
150.437
150.552
150.666
150.778
150.889
151.007
151.141
151.3
151.481
151.664
151.807
151.862
151.804
151.664
151.559
151.687
152.297
153.619
155.793
158.806
162.481
166.504
170.496
174.088
176.983
178.983
179.987
179.964
178.93
176.936
174.079
170.511
166.449
162.166
157.955
154.059
150.582
147.39
144.099
140.369
145.392
147.277
147.779
148.235
148.541
148.771
148.951
149.1
149.231
149.352
149.468
149.579
149.686
149.79
149.893
149.996
150.102
150.211
150.323
150.437
150.552
150.665
150.776
150.888
151.008
151.146
151.307
151.488
151.665
151.797
151.84
151.774
151.638
151.55
151.708
152.353
153.705
155.892
158.898
162.546
166.531
170.483
174.043
176.917
178.907
179.906
179.881
178.843
176.849
173.996
170.441
166.407
162.169
158.009
154.135
150.595
147.248
143.909
140.748
138.644
146.527
147.954
148.203
148.546
148.77
148.95
149.1
149.231
149.353
149.468
149.579
149.686
149.79
149.893
149.996
150.102
150.211
150.323
150.437
150.551
150.664
150.775
150.888
151.01
151.149
151.312
151.492
151.665
151.789
151.824
151.753
151.618
151.54
151.715
152.38
153.747
155.94
158.94
162.573
166.54
170.476
174.024
176.893
178.881
179.881
179.854
178.814
176.815
173.961
170.413
166.398
162.187
158.048
154.162
150.56
147.14
143.838
140.902
138.988
138.668
147.377
148.374
148.51
148.779
148.95
149.101
149.232
149.353
149.468
149.578
149.685
149.79
149.893
149.996
150.102
150.211
150.323
150.437
150.551
150.663
150.774
150.888
151.011
151.153
151.317
151.496
151.664
151.781
151.809
151.734
151.601
151.533
151.723
152.403
153.782
155.977
158.97
162.589
166.54
170.464
174.006
176.873
178.864
179.867
179.84
178.797
176.795
173.941
170.401
166.402
162.212
158.081
154.174
150.521
147.062
143.805
141.011
139.175
138.64
139.066
147.97
148.645
148.745
148.96
149.1
149.233
149.353
149.468
149.578
149.685
149.79
149.893
149.997
150.103
150.212
150.323
150.437
150.55
150.662
150.773
150.888
151.013
151.156
151.321
151.499
151.662
151.773
151.794
151.715
151.585
151.526
151.731
152.427
153.815
156.012
158.998
162.603
166.539
170.45
173.986
176.854
178.848
179.853
179.827
178.782
176.778
173.925
170.393
166.411
162.237
158.109
154.18
150.486
147.005
143.79
141.092
139.308
138.676
138.937
139.425
148.374
148.84
148.933
149.109
149.232
149.354
149.468
149.578
149.685
149.79
149.893
149.997
150.103
150.212
150.324
150.437
150.55
150.661
150.773
150.888
151.014
151.159
151.325
151.501
151.661
151.765
151.779
151.697
151.569
151.52
151.74
152.45
153.848
156.047
159.025
162.617
166.537
170.436
173.966
176.834
178.831
179.84
179.814
178.768
176.762
173.911
170.389
166.421
162.26
158.132
154.181
150.456
146.963
143.784
141.156
139.409
138.718
138.875
139.345
139.68
148.655
148.996
149.09
149.239
149.353
149.469
149.578
149.685
149.789
149.893
149.997
150.103
150.212
150.324
150.436
150.549
150.66
150.772
150.888
151.016
151.163
151.329
151.504
151.659
151.756
151.764
151.679
151.555
151.515
151.748
152.472
153.88
156.081
159.052
162.63
166.535
170.423
173.947
176.814
178.814
179.826
179.801
178.753
176.747
173.899
170.386
166.431
162.281
158.15
154.181
150.431
146.932
143.784
141.211
139.49
138.76
138.839
139.28
139.659
139.847
148.863
149.133
149.226
149.358
149.468
149.579
149.685
149.789
149.893
149.997
150.103
150.212
150.324
150.436
150.548
150.66
150.771
150.889
151.018
151.166
151.333
151.506
151.656
151.748
151.75
151.662
151.54
151.51
151.756
152.494
153.912
156.114
159.078
162.644
166.535
170.41
173.928
176.794
178.797
179.811
179.787
178.739
176.732
173.888
170.384
166.441
162.299
158.166
154.179
150.409
146.908
143.787
141.258
139.559
138.8
138.819
139.227
139.628
139.844
139.917
149.028
149.257
149.35
149.471
149.578
149.685
149.789
149.893
149.997
150.104
150.213
150.324
150.436
150.548
150.659
150.771
150.889
151.02
151.17
151.337
151.507
151.653
151.739
151.735
151.645
151.527
151.505
151.765
152.516
153.943
156.146
159.104
162.657
166.534
170.398
173.909
176.774
178.779
179.796
179.773
178.724
176.718
173.878
170.382
166.451
162.316
158.178
154.177
150.391
146.89
143.793
141.299
139.618
138.837
138.808
139.183
139.593
139.838
139.914
139.894
149.169
149.374
149.465
149.58
149.684
149.79
149.893
149.998
150.104
150.213
150.324
150.436
150.547
150.658
150.771
150.89
151.022
151.173
151.34
151.509
151.65
151.73
151.721
151.629
151.514
151.501
151.774
152.538
153.973
156.178
159.13
162.671
166.534
170.387
173.891
176.754
178.761
179.78
179.758
178.709
176.704
173.869
170.382
166.46
162.33
158.188
154.174
150.377
146.877
143.801
141.337
139.67
138.871
138.802
139.147
139.559
139.825
139.915
139.891
139.807
149.295
149.485
149.575
149.686
149.789
149.893
149.998
150.104
150.213
150.324
150.435
150.546
150.657
150.77
150.89
151.024
151.176
151.343
151.51
151.647
151.721
151.707
151.613
151.501
151.497
151.782
152.559
154.003
156.209
159.155
162.685
166.534
170.376
173.873
176.735
178.743
179.764
179.743
178.695
176.691
173.861
170.382
166.469
162.343
158.197
154.171
150.364
146.867
143.81
141.371
139.717
138.903
138.8
139.116
139.525
139.809
139.914
139.893
139.809
139.702
149.412
149.593
149.681
149.79
149.893
149.998
150.104
150.213
150.324
150.435
150.546
150.657
150.77
150.891
151.026
151.18
151.346
151.511
151.644
151.712
151.693
151.598
151.489
151.494
151.791
152.58
154.032
156.24
159.18
162.698
166.535
170.365
173.856
176.715
178.724
179.747
179.728
178.68
176.679
173.853
170.382
166.477
162.355
158.204
154.169
150.354
146.86
143.82
141.403
139.759
138.933
138.8
139.09
139.493
139.79
139.91
139.895
139.811
139.709
139.618
149.524
149.698
149.786
149.894
149.998
150.105
150.213
150.324
150.434
150.545
150.656
150.77
150.892
151.029
151.183
151.349
151.511
151.64
151.703
151.68
151.583
151.477
151.491
151.799
152.6
154.061
156.27
159.204
162.712
166.536
170.355
173.839
176.696
178.705
179.73
179.712
178.666
176.667
173.846
170.382
166.484
162.365
158.21
154.167
150.346
146.856
143.831
141.433
139.798
138.961
138.802
139.068
139.463
139.769
139.904
139.896
139.814
139.712
139.625
139.573
149.631
149.802
149.89
149.999
150.105
150.213
150.323
150.434
150.545
150.656
150.77
150.893
151.031
151.186
151.352
151.512
151.636
151.694
151.666
151.568
151.466
151.488
151.808
152.62
154.089
156.3
159.229
162.726
166.537
170.346
173.823
176.677
178.686
179.712
179.696
178.652
176.656
173.84
170.383
166.491
162.374
158.216
154.165
150.339
146.853
143.843
141.461
139.834
138.987
138.806
139.048
139.434
139.748
139.896
139.897
139.817
139.716
139.63
139.578
139.563
149.737
149.906
149.995
150.106
150.213
150.323
150.434
150.544
150.655
150.77
150.894
151.033
151.189
151.354
151.512
151.632
151.685
151.653
151.554
151.455
151.485
151.817
152.64
154.116
156.329
159.253
162.74
166.539
170.337
173.806
176.657
178.667
179.695
179.68
178.638
176.644
173.834
170.383
166.497
162.382
158.221
154.164
150.334
146.852
143.855
141.488
139.867
139.012
138.81
139.031
139.408
139.726
139.887
139.898
139.821
139.72
139.634
139.581
139.564
139.571
149.841
150.011
150.102
150.214
150.323
150.433
150.543
150.655
150.77
150.895
151.036
151.192
151.357
151.512
151.628
151.676
151.64
151.54
151.445
151.483
151.826
152.66
154.143
156.358
159.276
162.753
166.541
170.328
173.79
176.638
178.648
179.677
179.664
178.624
176.634
173.828
170.384
166.503
162.389
158.225
154.163
150.33
146.853
143.867
141.514
139.898
139.035
138.814
139.016
139.383
139.704
139.876
139.897
139.825
139.724
139.638
139.585
139.565
139.569
139.577
149.946
150.118
150.211
150.324
150.433
150.543
150.654
150.77
150.897
151.038
151.195
151.359
151.511
151.623
151.666
151.627
151.526
151.435
151.481
151.835
152.679
154.17
156.386
159.3
162.767
166.543
170.319
173.775
176.619
178.629
179.659
179.648
178.61
176.623
173.823
170.384
166.508
162.396
158.229
154.162
150.328
146.854
143.879
141.538
139.927
139.058
138.819
139.003
139.359
139.683
139.864
139.895
139.829
139.729
139.642
139.588
139.566
139.567
139.573
139.57
150.052
150.226
150.32
150.433
150.542
150.654
150.771
150.898
151.04
151.197
151.361
151.511
151.619
151.657
151.614
151.513
151.426
151.479
151.843
152.699
154.196
156.413
159.323
162.781
166.546
170.311
173.759
176.6
178.609
179.64
179.632
178.596
176.613
173.818
170.385
166.513
162.401
158.232
154.162
150.326
146.857
143.892
141.561
139.955
139.079
138.825
138.991
139.338
139.662
139.852
139.893
139.832
139.734
139.646
139.59
139.568
139.567
139.571
139.567
139.548
150.16
150.335
150.429
150.542
150.653
150.771
150.899
151.043
151.2
151.363
151.51
151.614
151.648
151.602
151.5
151.416
151.478
151.852
152.717
154.222
156.441
159.346
162.795
166.548
170.304
173.744
176.581
178.589
179.622
179.615
178.583
176.603
173.813
170.385
166.517
162.407
158.236
154.162
150.326
146.861
143.905
141.584
139.981
139.098
138.83
138.98
139.317
139.641
139.839
139.889
139.835
139.739
139.651
139.593
139.569
139.566
139.569
139.565
139.547
139.516
150.268
150.444
150.538
150.654
150.771
150.901
151.045
151.203
151.364
151.509
151.609
151.639
151.589
151.487
151.408
151.477
151.861
152.736
154.247
156.468
159.368
162.808
166.551
170.296
173.729
176.563
178.57
179.603
179.599
178.569
176.594
173.808
170.385
166.521
162.412
158.239
154.162
150.326
146.866
143.918
141.606
140.006
139.118
138.836
138.971
139.298
139.621
139.826
139.885
139.838
139.744
139.655
139.596
139.57
139.565
139.568
139.564
139.546
139.516
139.48
150.377
150.553
150.65
150.773
150.902
151.047
151.205
151.366
151.508
151.604
151.63
151.577
151.475
151.399
151.476
151.87
152.755
154.272
156.494
159.391
162.822
166.554
170.289
173.715
176.544
178.55
179.585
179.582
178.556
176.584
173.803
170.385
166.524
162.416
158.242
154.163
150.327
146.871
143.931
141.627
140.03
139.136
138.841
138.962
139.279
139.602
139.813
139.881
139.84
139.749
139.66
139.599
139.571
139.565
139.566
139.562
139.545
139.516
139.481
139.445
150.485
150.666
150.769
150.904
151.049
151.208
151.367
151.507
151.599
151.62
151.565
151.463
151.391
151.475
151.879
152.773
154.297
156.52
159.413
162.836
166.557
170.282
173.7
176.525
178.53
179.566
179.566
178.542
176.575
173.798
170.385
166.527
162.42
158.244
154.164
150.328
146.877
143.945
141.647
140.053
139.153
138.847
138.954
139.262
139.583
139.799
139.876
139.841
139.754
139.665
139.602
139.572
139.564
139.565
139.561
139.544
139.516
139.481
139.446
139.415
150.596
150.786
150.902
151.053
151.21
151.368
151.505
151.594
151.611
151.553
151.451
151.383
151.475
151.888
152.791
154.321
156.546
159.434
162.85
166.56
170.276
173.686
176.507
178.51
179.547
179.549
178.529
176.566
173.794
170.385
166.53
162.424
158.247
154.166
150.33
146.883
143.958
141.667
140.075
139.17
138.852
138.946
139.245
139.565
139.786
139.87
139.843
139.759
139.669
139.605
139.573
139.564
139.564
139.559
139.543
139.516
139.482
139.447
139.416
139.392
150.714
150.92
151.051
151.213
151.369
151.504
151.589
151.602
151.542
151.44
151.375
151.474
151.897
152.809
154.345
156.571
159.456
162.863
166.564
170.27
173.672
176.488
178.491
179.528
179.533
178.516
176.557
173.789
170.384
166.533
162.427
158.25
154.167
150.333
146.89
143.971
141.686
140.096
139.186
138.857
138.939
139.23
139.547
139.772
139.864
139.843
139.763
139.674
139.608
139.574
139.564
139.562
139.558
139.542
139.516
139.482
139.447
139.417
139.392
139.374
150.843
151.071
151.211
151.371
151.502
151.583
151.593
151.53
151.429
151.368
151.474
151.906
152.827
154.369
156.596
159.477
162.877
166.568
170.263
173.659
176.47
178.471
179.509
179.516
178.503
176.548
173.785
170.384
166.535
162.43
158.252
154.169
150.336
146.897
143.985
141.705
140.116
139.202
138.863
138.933
139.215
139.53
139.759
139.858
139.844
139.767
139.679
139.612
139.575
139.563
139.561
139.556
139.541
139.515
139.482
139.448
139.417
139.393
139.374
139.361
150.987
151.233
151.368
151.501
151.577
151.584
151.519
151.418
151.361
151.474
151.915
152.844
154.392
156.621
159.499
162.89
166.571
170.258
173.645
176.452
178.451
179.49
179.499
178.489
176.539
173.78
170.383
166.537
162.433
158.255
154.172
150.34
146.905
143.998
141.724
140.136
139.216
138.868
138.927
139.201
139.513
139.746
139.851
139.844
139.771
139.683
139.615
139.577
139.563
139.56
139.555
139.54
139.515
139.483
139.448
139.418
139.393
139.375
139.361
139.351
151.143
151.389
151.494
151.573
151.575
151.508
151.407
151.354
151.474
151.923
152.861
154.415
156.645
159.52
162.904
166.575
170.252
173.632
176.434
178.431
179.471
179.483
178.476
176.53
173.776
170.383
166.539
162.436
158.258
154.174
150.344
146.913
144.012
141.742
140.155
139.231
138.873
138.922
139.187
139.497
139.732
139.844
139.843
139.774
139.688
139.619
139.578
139.563
139.559
139.554
139.539
139.515
139.483
139.449
139.418
139.393
139.375
139.361
139.351
139.342
151.298
151.514
151.562
151.567
151.496
151.397
151.348
151.475
151.932
152.878
154.438
156.67
159.54
162.917
166.579
170.246
173.619
176.416
178.411
179.452
179.466
178.463
176.521
173.771
170.382
166.54
162.439
158.26
154.177
150.348
146.921
144.025
141.76
140.173
139.245
138.878
138.917
139.174
139.481
139.719
139.837
139.842
139.778
139.693
139.622
139.58
139.563
139.558
139.552
139.538
139.514
139.483
139.449
139.419
139.394
139.375
139.361
139.351
139.342
139.331
151.431
151.577
151.553
151.487
151.386
151.341
151.475
151.941
152.895
154.46
156.693
159.561
162.93
166.583
170.241
173.606
176.398
178.392
179.433
179.449
178.45
176.512
173.766
170.381
166.542
162.441
158.263
154.18
150.353
146.93
144.039
141.777
140.191
139.258
138.884
138.912
139.162
139.466
139.706
139.83
139.841
139.781
139.697
139.626
139.582
139.563
139.557
139.551
139.537
139.514
139.483
139.45
139.419
139.394
139.375
139.362
139.351
139.342
139.331
139.317
151.516
151.561
151.471
151.377
151.335
151.476
151.95
152.912
154.483
156.717
159.581
162.944
166.587
170.236
173.593
176.381
178.372
179.413
179.433
178.437
176.503
173.762
170.38
166.543
162.443
158.265
154.183
150.358
146.939
144.053
141.795
140.209
139.272
138.888
138.907
139.15
139.451
139.694
139.822
139.839
139.783
139.701
139.629
139.584
139.563
139.556
139.55
139.536
139.513
139.483
139.45
139.42
139.394
139.375
139.362
139.351
139.341
139.33
139.317
139.3
151.532
151.471
151.364
151.33
151.476
151.959
152.929
154.505
156.74
159.601
162.957
166.592
170.231
173.581
176.363
178.352
179.394
179.416
178.424
176.494
173.757
170.378
166.544
162.446
158.268
154.187
150.364
146.948
144.066
141.811
140.226
139.284
138.893
138.903
139.138
139.437
139.681
139.815
139.838
139.786
139.705
139.633
139.586
139.563
139.555
139.548
139.535
139.513
139.483
139.451
139.42
139.395
139.376
139.362
139.351
139.341
139.33
139.317
139.3
139.281
151.478
151.357
151.323
151.478
151.968
152.946
154.526
156.763
159.621
162.97
166.596
170.226
173.568
176.346
178.333
179.375
179.399
178.411
176.486
173.752
170.377
166.545
162.448
158.271
154.19
150.369
146.957
144.08
141.828
140.242
139.297
138.898
138.899
139.127
139.423
139.668
139.807
139.835
139.788
139.709
139.637
139.588
139.564
139.554
139.547
139.534
139.512
139.483
139.451
139.421
139.395
139.376
139.362
139.351
139.341
139.33
139.316
139.3
139.281
139.262
151.384
151.312
151.479
151.977
152.962
154.548
156.786
159.641
162.983
166.6
170.222
173.556
176.329
178.314
179.356
179.383
178.398
176.477
173.747
170.375
166.546
162.45
158.273
154.194
150.375
146.967
144.093
141.844
140.258
139.309
138.903
138.895
139.117
139.409
139.656
139.799
139.833
139.79
139.713
139.64
139.59
139.564
139.553
139.546
139.533
139.512
139.483
139.451
139.421
139.396
139.376
139.362
139.351
139.341
139.33
139.316
139.3
139.281
139.263
139.245
151.323
151.474
151.988
152.978
154.569
156.808
159.66
162.996
166.605
170.217
173.544
176.311
178.294
179.337
179.366
178.385
176.468
173.743
170.374
166.547
162.452
158.276
154.198
150.382
146.976
144.106
141.86
140.274
139.321
138.907
138.892
139.106
139.396
139.644
139.791
139.831
139.791
139.717
139.644
139.592
139.565
139.553
139.545
139.532
139.511
139.483
139.452
139.421
139.396
139.376
139.362
139.351
139.341
139.329
139.316
139.3
139.281
139.263
139.246
139.232
151.409
151.999
152.995
154.59
156.831
159.68
163.009
166.609
170.213
173.532
176.294
178.275
179.318
179.349
178.372
176.459
173.738
170.372
166.547
162.454
158.279
154.202
150.388
146.986
144.12
141.876
140.29
139.332
138.912
138.888
139.096
139.383
139.632
139.783
139.828
139.793
139.721
139.647
139.594
139.565
139.552
139.544
139.531
139.511
139.483
139.452
139.422
139.396
139.377
139.362
139.351
139.341
139.329
139.316
139.299
139.281
139.263
139.246
139.233
139.223
151.78
153.038
154.608
156.853
159.699
163.022
166.614
170.208
173.52
176.278
178.256
179.299
179.333
178.359
176.45
173.733
170.37
166.548
162.456
158.282
154.206
150.395
146.996
144.133
141.892
140.305
139.343
138.916
138.885
139.087
139.37
139.621
139.776
139.825
139.794
139.724
139.651
139.597
139.566
139.552
139.543
139.53
139.51
139.483
139.452
139.422
139.397
139.377
139.362
139.351
139.34
139.329
139.315
139.299
139.281
139.263
139.247
139.233
139.223
139.217
152.582
154.699
156.865
159.719
163.035
166.618
170.204
173.509
176.261
178.237
179.28
179.316
178.346
176.441
173.728
170.369
166.548
162.457
158.285
154.211
150.401
147.006
144.147
141.907
140.319
139.354
138.921
138.882
139.078
139.358
139.609
139.768
139.822
139.795
139.727
139.655
139.599
139.567
139.551
139.542
139.529
139.509
139.483
139.452
139.423
139.397
139.377
139.362
139.351
139.34
139.329
139.315
139.299
139.281
139.263
139.247
139.233
139.224
139.217
139.211
153.933
157.019
159.717
163.051
166.622
170.2
173.497
176.244
178.218
179.262
179.299
178.333
176.432
173.722
170.367
166.548
162.459
158.288
154.215
150.408
147.016
144.16
141.922
140.334
139.365
138.925
138.879
139.069
139.346
139.598
139.76
139.818
139.796
139.73
139.658
139.602
139.568
139.551
139.541
139.528
139.509
139.483
139.453
139.423
139.398
139.378
139.362
139.351
139.34
139.329
139.315
139.299
139.281
139.263
139.247
139.234
139.224
139.217
139.211
139.204
155.896
159.945
163.027
166.633
170.195
173.486
176.228
178.199
179.243
179.283
178.32
176.423
173.717
170.365
166.549
162.461
158.291
154.22
150.416
147.026
144.173
141.937
140.348
139.375
138.929
138.876
139.06
139.334
139.586
139.752
139.815
139.796
139.733
139.661
139.604
139.569
139.551
139.54
139.527
139.508
139.482
139.453
139.424
139.398
139.378
139.362
139.351
139.34
139.328
139.315
139.299
139.281
139.263
139.247
139.234
139.224
139.217
139.211
139.204
139.195
158.46
163.333
166.583
170.202
173.473
176.212
178.18
179.224
179.266
178.306
176.414
173.712
170.362
166.549
162.463
158.294
154.225
150.423
147.037
144.186
141.952
140.362
139.386
138.934
138.873
139.052
139.323
139.575
139.744
139.811
139.797
139.736
139.665
139.607
139.57
139.55
139.539
139.526
139.508
139.482
139.453
139.424
139.398
139.378
139.363
139.35
139.34
139.328
139.314
139.299
139.281
139.264
139.247
139.234
139.224
139.217
139.21
139.203
139.194
139.182
161.532
166.961
170.124
173.476
176.193
178.161
179.205
179.25
178.293
176.404
173.706
170.36
166.549
162.465
158.298
154.23
150.43
147.047
144.2
141.967
140.376
139.396
138.938
138.871
139.043
139.312
139.565
139.736
139.808
139.797
139.738
139.668
139.609
139.571
139.55
139.538
139.525
139.507
139.482
139.453
139.424
139.399
139.378
139.363
139.35
139.339
139.328
139.314
139.298
139.281
139.264
139.248
139.234
139.224
139.217
139.21
139.203
139.194
139.182
139.168
164.937
170.56
173.373
176.195
178.139
179.187
179.233
178.28
176.395
173.701
170.358
166.549
162.466
158.301
154.235
150.438
147.058
144.213
141.981
140.389
139.405
138.942
138.868
139.035
139.301
139.554
139.728
139.804
139.797
139.741
139.671
139.612
139.572
139.55
139.537
139.524
139.506
139.482
139.453
139.425
139.399
139.379
139.363
139.35
139.339
139.328
139.314
139.298
139.281
139.264
139.248
139.235
139.225
139.217
139.21
139.203
139.194
139.182
139.168
139.154
168.445
173.845
176.073
178.143
179.164
179.217
178.267
176.386
173.695
170.355
166.549
162.468
158.304
154.24
150.446
147.068
144.226
141.996
140.403
139.415
138.946
138.866
139.028
139.29
139.543
139.72
139.8
139.797
139.743
139.674
139.614
139.573
139.55
139.537
139.524
139.506
139.481
139.453
139.425
139.4
139.379
139.363
139.35
139.339
139.327
139.314
139.298
139.281
139.264
139.248
139.235
139.225
139.217
139.21
139.203
139.194
139.182
139.168
139.154
139.141
171.792
176.549
178.011
179.171
179.195
178.255
176.376
173.69
170.353
166.549
162.47
158.308
154.246
150.453
147.079
144.239
142.01
140.416
139.425
138.95
138.864
139.02
139.28
139.533
139.712
139.796
139.796
139.745
139.677
139.617
139.575
139.55
139.536
139.523
139.505
139.481
139.453
139.425
139.4
139.379
139.363
139.35
139.339
139.327
139.314
139.298
139.281
139.264
139.248
139.235
139.225
139.217
139.21
139.203
139.193
139.182
139.168
139.154
139.141
139.13
174.719
178.458
179.039
179.206
178.235
176.368
173.684
170.351
166.549
162.472
158.311
154.251
150.461
147.089
144.252
142.024
140.429
139.434
138.954
138.861
139.013
139.27
139.523
139.704
139.792
139.796
139.747
139.68
139.619
139.576
139.551
139.535
139.522
139.504
139.481
139.454
139.426
139.4
139.38
139.363
139.35
139.339
139.327
139.313
139.298
139.281
139.264
139.248
139.235
139.225
139.217
139.21
139.202
139.193
139.182
139.168
139.154
139.141
139.13
139.121
176.995
179.423
179.084
178.248
176.353
173.679
170.348
166.549
162.473
158.315
154.257
150.469
147.1
144.265
142.038
140.441
139.443
138.957
138.859
139.006
139.26
139.513
139.697
139.787
139.795
139.749
139.683
139.622
139.578
139.551
139.535
139.521
139.503
139.481
139.454
139.426
139.401
139.38
139.363
139.35
139.339
139.327
139.313
139.298
139.281
139.264
139.249
139.236
139.225
139.217
139.21
139.202
139.193
139.181
139.168
139.154
139.141
139.13
139.122
139.115
178.443
179.376
178.146
176.367
173.668
170.346
166.548
162.475
158.318
154.262
150.477
147.111
144.278
142.051
140.454
139.452
138.961
138.857
138.999
139.25
139.503
139.689
139.783
139.794
139.751
139.686
139.624
139.579
139.551
139.534
139.52
139.503
139.48
139.454
139.426
139.401
139.38
139.364
139.35
139.339
139.326
139.313
139.298
139.281
139.264
139.249
139.236
139.225
139.217
139.21
139.202
139.193
139.181
139.168
139.155
139.142
139.13
139.122
139.115
139.109
178.955
178.324
176.292
173.681
170.338
166.549
162.477
158.322
154.268
150.486
147.121
144.29
142.065
140.466
139.461
138.965
138.855
138.992
139.24
139.493
139.681
139.779
139.793
139.753
139.689
139.627
139.581
139.551
139.534
139.519
139.502
139.48
139.454
139.427
139.401
139.38
139.364
139.35
139.338
139.326
139.313
139.297
139.281
139.264
139.249
139.236
139.225
139.217
139.21
139.202
139.193
139.181
139.168
139.155
139.142
139.131
139.122
139.115
139.109
139.104
178.494
176.34
173.639
170.349
166.545
162.48
158.325
154.274
150.494
147.132
144.303
142.078
140.478
139.47
138.969
138.853
138.985
139.231
139.483
139.673
139.774
139.792
139.754
139.691
139.629
139.582
139.552
139.533
139.518
139.501
139.479
139.454
139.427
139.402
139.381
139.364
139.35
139.338
139.326
139.313
139.297
139.281
139.264
139.249
139.236
139.226
139.217
139.21
139.202
139.192
139.181
139.168
139.155
139.142
139.131
139.122
139.114
139.109
139.104
139.103
177.091
173.553
170.341
166.551
162.479
158.33
154.28
150.502
147.143
144.316
142.092
140.49
139.478
138.972
138.852
138.979
139.222
139.474
139.666
139.77
139.791
139.755
139.694
139.632
139.584
139.552
139.533
139.518
139.501
139.479
139.454
139.427
139.402
139.381
139.364
139.35
139.338
139.326
139.312
139.297
139.281
139.265
139.249
139.236
139.226
139.217
139.21
139.202
139.192
139.181
139.168
139.155
139.142
139.131
139.122
139.114
139.108
139.104
139.104
139.11
174.837
170.125
166.578
162.48
158.333
154.286
150.511
147.154
144.329
142.105
140.502
139.487
138.976
138.85
138.973
139.213
139.464
139.658
139.765
139.79
139.757
139.696
139.634
139.585
139.553
139.533
139.517
139.5
139.479
139.454
139.427
139.403
139.381
139.364
139.35
139.338
139.326
139.312
139.297
139.281
139.265
139.249
139.236
139.226
139.217
139.209
139.201
139.192
139.181
139.168
139.155
139.142
139.131
139.122
139.114
139.108
139.104
139.104
139.111
139.127
171.865
166.245
162.539
158.328
154.293
150.519
147.165
144.341
142.118
140.514
139.495
138.98
138.848
138.966
139.204
139.455
139.651
139.761
139.789
139.758
139.699
139.637
139.587
139.554
139.532
139.516
139.499
139.478
139.454
139.427
139.403
139.382
139.364
139.35
139.338
139.325
139.312
139.297
139.281
139.265
139.25
139.237
139.226
139.217
139.209
139.201
139.192
139.181
139.168
139.155
139.142
139.131
139.122
139.114
139.108
139.104
139.105
139.112
139.128
139.151
168.342
162.108
158.417
154.284
150.53
147.175
144.354
142.131
140.526
139.504
138.983
138.847
138.96
139.195
139.446
139.643
139.756
139.787
139.759
139.701
139.639
139.589
139.554
139.532
139.516
139.499
139.478
139.454
139.428
139.403
139.382
139.364
139.35
139.338
139.325
139.312
139.297
139.281
139.265
139.25
139.237
139.226
139.217
139.209
139.201
139.192
139.181
139.168
139.155
139.142
139.131
139.122
139.114
139.107
139.104
139.105
139.113
139.129
139.15
139.172
164.451
157.911
154.397
150.517
147.19
144.366
142.144
140.537
139.512
138.987
138.845
138.954
139.187
139.437
139.636
139.752
139.786
139.76
139.703
139.641
139.59
139.555
139.532
139.515
139.498
139.477
139.453
139.428
139.403
139.382
139.365
139.35
139.338
139.325
139.312
139.297
139.281
139.265
139.25
139.237
139.226
139.217
139.209
139.201
139.191
139.18
139.168
139.155
139.143
139.131
139.121
139.113
139.107
139.104
139.106
139.114
139.13
139.15
139.17
139.183
160.385
153.843
150.649
147.175
144.384
142.156
140.549
139.52
138.99
138.844
138.949
139.178
139.428
139.628
139.747
139.784
139.761
139.705
139.644
139.592
139.556
139.532
139.514
139.497
139.477
139.453
139.428
139.404
139.382
139.365
139.35
139.338
139.325
139.311
139.297
139.281
139.265
139.25
139.237
139.226
139.217
139.209
139.201
139.191
139.18
139.168
139.155
139.143
139.131
139.121
139.113
139.107
139.104
139.106
139.115
139.13
139.15
139.169
139.181
139.18
156.33
150.076
147.319
144.367
142.175
140.559
139.528
138.994
138.842
138.943
139.17
139.419
139.621
139.742
139.782
139.761
139.707
139.646
139.594
139.556
139.532
139.514
139.497
139.477
139.453
139.428
139.404
139.383
139.365
139.35
139.337
139.325
139.311
139.296
139.281
139.265
139.25
139.237
139.226
139.217
139.209
139.201
139.191
139.18
139.168
139.155
139.143
139.131
139.121
139.113
139.107
139.104
139.106
139.115
139.131
139.15
139.169
139.18
139.179
139.167
152.473
146.752
144.515
142.155
140.575
139.533
138.997
138.84
138.938
139.162
139.411
139.614
139.738
139.781
139.762
139.709
139.648
139.596
139.557
139.532
139.514
139.496
139.476
139.453
139.428
139.404
139.383
139.365
139.35
139.337
139.325
139.311
139.296
139.281
139.265
139.25
139.238
139.227
139.217
139.209
139.201
139.191
139.18
139.168
139.155
139.143
139.131
139.121
139.113
139.107
139.104
139.107
139.116
139.132
139.151
139.168
139.179
139.179
139.167
139.145
148.925
143.971
142.301
140.559
139.555
139.004
138.844
138.934
139.154
139.401
139.605
139.731
139.777
139.761
139.71
139.65
139.597
139.557
139.531
139.512
139.495
139.475
139.452
139.428
139.404
139.383
139.365
139.35
139.337
139.324
139.311
139.296
139.28
139.265
139.25
139.237
139.226
139.217
139.209
139.2
139.191
139.18
139.168
139.155
139.143
139.131
139.121
139.113
139.107
139.105
139.108
139.117
139.132
139.15
139.167
139.177
139.177
139.165
139.144
139.113
146.065
141.878
140.721
139.523
138.991
138.812
138.906
139.132
139.387
139.599
139.732
139.783
139.768
139.718
139.656
139.602
139.561
139.534
139.515
139.498
139.478
139.455
139.431
139.407
139.385
139.367
139.352
139.339
139.326
139.313
139.298
139.282
139.266
139.252
139.239
139.228
139.219
139.21
139.202
139.192
139.181
139.169
139.156
139.144
139.132
139.121
139.112
139.106
139.103
139.106
139.116
139.131
139.15
139.168
139.18
139.182
139.173
139.152
139.118
139.068
142.555
139.852
139.41
138.924
138.889
139.019
139.245
139.471
139.643
139.74
139.766
139.74
139.688
139.631
139.582
139.547
139.522
139.502
139.484
139.464
139.441
139.417
139.395
139.375
139.358
139.344
139.33
139.317
139.303
139.288
139.273
139.258
139.245
139.233
139.222
139.213
139.204
139.195
139.185
139.174
139.162
139.149
139.137
139.126
139.117
139.11
139.107
139.108
139.114
139.125
139.141
139.157
139.17
139.176
139.171
139.154
139.125
139.084
139.031
138.97
)
;

boundaryField
{
    bottomwall
    {
        type            opaque;
        refValue        nonuniform List<scalar> 
60
(
143.315
145.512
146.764
147.542
148.056
148.413
148.672
148.871
149.031
149.169
149.293
149.411
149.525
149.634
149.739
149.841
149.944
150.048
150.155
150.266
150.379
150.494
150.609
150.723
150.834
150.948
151.071
151.214
151.384
151.57
151.742
151.854
151.861
151.76
151.617
151.59
151.91
152.831
154.552
157.148
160.527
164.434
168.51
172.364
175.655
178.13
179.645
180.139
179.608
178.088
175.65
172.415
168.566
164.345
160.038
155.917
152.185
148.914
145.933
142.631
)
;
        refGradient     uniform 0;
        valueFraction   uniform 1;