/*--------------------------------*- C++ -*----------------------------------*\
| =========                 |                                                 |
| \\      /  F ield         | OpenFOAM: The Open Source CFD Toolbox           |
|  \\    /   O peration     | Version:  2406                                  |
|   \\  /    A nd           | Website:  www.openfoam.com                      |
|    \\/     M anipulation  |                                                 |
\*---------------------------------------------------------------------------*/
FoamFile
{
    version     2.0;
    format      ascii;
    arch        "LSB;label=32;scalar=64";
    class       volScalarField;
    location    "10000";
    object      ILambda_9_0;
}
// * * * * * * * * * * * * * * * * * * * * * * * * * * * * * * * * * * * * * //

dimensions      [1 0 -3 0 0 0 0];

internalField   nonuniform List<scalar> 
3600
(
139.168
139.267
139.243
139.25
139.251
139.217
139.186
139.198
139.289
139.534
140.003
140.687
141.487
142.274
142.965
143.537
144.013
144.425
144.792
145.125
145.422
145.677
145.884
146.041
146.147
146.207
146.227
146.213
146.169
146.101
146.014
145.915
145.81
145.705
145.608
145.529
145.477
145.463
145.492
145.566
145.681
145.825
145.983
146.136
146.27
146.375
146.444
146.477
146.475
146.44
146.374
146.282
146.169
146.042
145.907
145.771
145.643
145.514
145.427
145.227
139.238
139.263
139.232
139.254
139.248
139.206
139.182
139.21
139.33
139.625
140.155
140.886
141.698
142.467
143.125
143.668
144.124
144.522
144.881
145.205
145.492
145.736
145.93
146.073
146.167
146.216
146.227
146.204
146.154
146.08
145.99
145.889
145.783
145.679
145.586
145.512
145.469
145.465
145.506
145.592
145.716
145.865
146.023
146.173
146.301
146.397
146.457
146.48
146.469
146.426
146.353
146.255
146.138
146.007
145.872
145.737
145.611
145.484
145.4
145.193
139.264
139.252
139.23
139.258
139.244
139.199
139.183
139.22
139.359
139.684
140.246
140.996
141.808
142.564
143.204
143.733
144.18
144.572
144.926
145.246
145.527
145.764
145.952
146.088
146.176
146.22
146.225
146.198
146.145
146.069
145.977
145.874
145.768
145.665
145.574
145.505
145.466
145.468
145.515
145.607
145.735
145.887
146.045
146.192
146.315
146.406
146.462
146.481
146.465
146.417
146.341
146.24
146.121
145.989
145.853
145.719
145.595
145.468
145.386
145.175
139.291
139.237
139.23
139.263
139.238
139.192
139.184
139.234
139.395
139.757
140.358
141.13
141.941
142.679
143.299
143.811
144.247
144.632
144.981
145.295
145.57
145.799
145.978
146.106
146.186
146.223
146.223
146.191
146.134
146.055
145.96
145.857
145.751
145.649
145.561
145.496
145.463
145.472
145.527
145.626
145.759
145.913
146.07
146.214
146.333
146.418
146.467
146.48
146.459
146.407
146.326
146.222
146.1
145.967
145.831
145.697
145.575
145.449
145.369
145.152
139.311
139.218
139.234
139.267
139.23
139.186
139.187
139.25
139.435
139.834
140.471
141.26
142.066
142.785
143.386
143.883
144.31
144.689
145.033
145.341
145.609
145.83
146.001
146.122
146.194
146.225
146.22
146.184
146.122
146.041
145.945
145.84
145.734
145.634
145.549
145.488
145.462
145.478
145.54
145.645
145.782
145.938
146.094
146.235
146.349
146.428
146.472
146.479
146.453
146.396
146.311
146.204
146.079
145.945
145.81
145.677
145.556
145.431
145.353
145.129
139.317
139.2
139.244
139.269
139.22
139.182
139.193
139.268
139.48
139.919
140.589
141.392
142.19
142.89
143.471
143.954
144.372
144.746
145.084
145.386
145.647
145.861
146.024
146.136
146.202
146.226
146.216
146.176
146.11
146.026
145.928
145.823
145.718
145.619
145.537
145.481
145.461
145.484
145.554
145.665
145.807
145.964
146.118
146.255
146.364
146.438
146.475
146.477
146.446
146.384
146.296
146.185
146.058
145.923
145.788
145.657
145.537
145.413
145.336
145.105
139.3
139.188
139.258
139.267
139.21
139.179
139.2
139.29
139.531
140.009
140.712
141.524
142.31
142.99
143.553
144.024
144.433
144.801
145.134
145.431
145.685
145.89
146.045
146.149
146.208
146.227
146.211
146.167
146.098
146.011
145.912
145.806
145.701
145.605
145.526
145.475
145.462
145.492
145.569
145.686
145.831
145.989
146.142
146.275
146.378
146.446
146.478
146.474
146.438
146.372
146.279
146.165
146.037
145.902
145.767
145.636
145.519
145.395
145.32
145.08
139.256
139.19
139.274
139.262
139.199
139.178
139.209
139.314
139.588
140.107
140.838
141.656
142.428
143.087
143.632
144.091
144.494
144.856
145.184
145.474
145.721
145.918
146.065
146.162
146.214
146.227
146.206
146.157
146.085
145.996
145.895
145.789
145.685
145.591
145.516
145.47
145.463
145.501
145.585
145.707
145.856
146.014
146.165
146.294
146.391
146.454
146.48
146.471
146.43
146.359
146.262
146.146
146.016
145.88
145.746
145.617
145.501
145.377
145.304
145.054
139.199
139.207
139.287
139.252
139.19
139.18
139.22
139.343
139.651
140.21
140.967
141.786
142.542
143.181
143.709
144.158
144.553
144.91
145.232
145.516
145.755
145.945
146.083
146.173
146.218
146.225
146.2
146.147
146.072
145.981
145.879
145.773
145.669
145.577
145.506
145.466
145.466
145.511
145.602
145.729
145.881
146.039
146.187
146.312
146.404
146.46
146.48
146.466
146.42
146.345
146.245
146.126
145.994
145.858
145.725
145.597
145.483
145.359
145.287
145.027
139.152
139.233
139.295
139.24
139.182
139.183
139.232
139.375
139.72
140.319
141.098
141.915
142.653
143.272
143.785
144.223
144.612
144.963
145.28
145.557
145.789
145.97
146.101
146.183
146.222
146.223
146.193
146.137
146.059
145.965
145.862
145.756
145.654
145.564
145.497
145.463
145.47
145.523
145.62
145.752
145.906
146.064
146.209
146.329
146.415
146.466
146.48
146.461
146.41
146.331
146.227
146.106
145.973
145.837
145.704
145.578
145.465
145.341
145.27
144.998
139.131
139.26
139.297
139.226
139.176
139.188
139.246
139.412
139.796
140.434
141.231
142.041
142.761
143.359
143.858
144.287
144.669
145.016
145.327
145.597
145.821
145.995
146.117
146.191
146.224
146.22
146.186
146.125
146.045
145.949
145.845
145.739
145.638
145.552
145.489
145.461
145.475
145.535
145.639
145.776
145.932
146.088
146.23
146.345
146.426
146.47
146.48
146.455
146.399
146.316
146.209
146.085
145.951
145.815
145.684
145.558
145.447
145.323
145.252
144.968
139.137
139.283
139.292
139.211
139.173
139.195
139.263
139.453
139.879
140.553
141.364
142.165
142.864
143.444
143.929
144.35
144.726
145.067
145.372
145.636
145.852
146.017
146.132
146.199
146.226
146.217
146.178
146.114
146.03
145.933
145.828
145.722
145.623
145.54
145.482
145.46
145.481
145.549
145.659
145.8
145.957
146.112
146.251
146.36
146.435
146.474
146.478
146.448
146.388
146.3
146.19
146.064
145.93
145.794
145.663
145.54
145.43
145.305
145.234
144.936
139.159
139.3
139.282
139.197
139.172
139.204
139.281
139.501
139.969
140.677
141.497
142.286
142.965
143.526
143.999
144.412
144.782
145.118
145.417
145.674
145.882
146.039
146.145
146.206
146.226
146.212
146.169
146.102
146.016
145.917
145.811
145.706
145.609
145.529
145.476
145.46
145.489
145.564
145.679
145.824
145.982
146.136
146.27
146.375
146.444
146.477
146.475
146.441
146.376
146.284
146.171
146.043
145.908
145.773
145.643
145.521
145.412
145.287
145.216
144.902
139.187
139.312
139.269
139.184
139.174
139.213
139.302
139.554
140.066
140.805
141.63
142.404
143.061
143.606
144.067
144.472
144.838
145.168
145.461
145.71
145.91
146.059
146.158
146.212
146.226
146.207
146.16
146.089
146
145.9
145.794
145.69
145.595
145.518
145.471
145.462
145.498
145.579
145.701
145.849
146.008
146.159
146.289
146.388
146.452
146.479
146.472
146.432
146.363
146.267
146.152
146.022
145.886
145.752
145.623
145.502
145.395
145.268
145.197
144.867
139.214
139.321
139.252
139.173
139.179
139.224
139.327
139.614
140.17
140.936
141.761
142.518
143.155
143.683
144.134
144.532
144.892
145.217
145.503
145.745
145.937
146.078
146.169
146.216
146.225
146.201
146.15
146.076
145.985
145.883
145.777
145.674
145.581
145.508
145.466
145.464
145.507
145.596
145.723
145.874
146.033
146.182
146.307
146.401
146.458
146.48
146.468
146.423
146.349
146.25
146.132
146.001
145.865
145.731
145.604
145.484
145.378
145.25
145.177
144.829
139.24
139.325
139.232
139.165
139.186
139.235
139.355
139.681
140.28
141.068
141.89
142.628
143.245
143.759
144.199
144.591
144.946
145.265
145.545
145.779
145.963
146.095
146.179
146.22
146.223
146.195
146.14
146.062
145.97
145.867
145.76
145.658
145.568
145.499
145.463
145.468
145.519
145.614
145.746
145.9
146.058
146.204
146.324
146.412
146.464
146.48
146.463
146.413
146.335
146.233
146.111
145.979
145.843
145.71
145.584
145.466
145.36
145.231
145.157
144.79
139.268
139.324
139.211
139.161
139.194
139.247
139.387
139.756
140.396
141.203
142.017
142.735
143.333
143.832
144.264
144.65
144.999
145.312
145.585
145.812
145.988
146.112
146.188
146.223
146.221
146.188
146.129
146.049
145.954
145.85
145.744
145.643
145.555
145.491
145.461
145.473
145.531
145.633
145.769
145.925
146.082
146.225
146.341
146.423
146.469
146.48
146.457
146.403
146.32
146.214
146.091
145.957
145.821
145.689
145.565
145.448
145.343
145.211
145.135
144.748
139.3
139.315
139.189
139.161
139.204
139.26
139.424
139.838
140.517
141.337
142.141
142.839
143.417
143.904
144.327
144.707
145.051
145.358
145.625
145.843
146.011
146.127
146.196
146.225
146.218
146.18
146.117
146.034
145.938
145.833
145.727
145.627
145.543
145.483
145.459
145.479
145.544
145.653
145.793
145.95
146.106
146.246
146.356
146.433
146.473
146.478
146.45
146.391
146.305
146.196
146.07
145.936
145.8
145.669
145.546
145.431
145.326
145.191
145.112
144.704
139.334
139.297
139.169
139.165
139.215
139.275
139.467
139.928
140.643
141.472
142.262
142.938
143.499
143.974
144.39
144.764
145.102
145.403
145.663
145.873
146.032
146.141
146.203
146.226
146.213
146.171
146.105
146.02
145.921
145.816
145.711
145.613
145.531
145.477
145.459
145.486
145.559
145.673
145.818
145.976
146.13
146.265
146.371
146.442
146.476
146.476
146.443
146.379
146.289
146.177
146.049
145.914
145.779
145.649
145.528
145.413
145.309
145.17
145.088
144.657
139.365
139.27
139.152
139.173
139.225
139.291
139.517
140.025
140.773
141.605
142.379
143.035
143.579
144.043
144.451
144.819
145.152
145.448
145.7
145.902
146.053
146.154
146.209
146.226
146.209
146.162
146.093
146.005
145.905
145.799
145.694
145.598
145.521
145.471
145.46
145.494
145.574
145.695
145.843
146.001
146.153
146.285
146.385
146.45
146.479
146.473
146.435
146.367
146.272
146.157
146.028
145.892
145.758
145.629
145.509
145.396
145.291
145.149
145.063
144.608
139.389
139.237
139.141
139.184
139.235
139.31
139.574
140.129
140.905
141.737
142.493
143.128
143.657
144.11
144.512
144.874
145.202
145.491
145.735
145.93
146.072
146.165
146.214
146.225
146.203
146.153
146.08
145.99
145.888
145.782
145.678
145.584
145.51
145.467
145.462
145.504
145.591
145.717
145.868
146.027
146.176
146.303
146.398
146.457
146.48
146.469
146.426
146.353
146.255
146.137
146.007
145.871
145.737
145.609
145.491
145.378
145.273
145.127
145.036
144.556
139.398
139.201
139.137
139.197
139.244
139.332
139.639
140.241
141.04
141.867
142.603
143.218
143.732
144.176
144.571
144.928
145.25
145.533
145.77
145.956
146.09
146.176
146.218
146.224
146.197
146.142
146.066
145.974
145.871
145.765
145.662
145.571
145.501
145.463
145.466
145.514
145.608
145.739
145.893
146.051
146.198
146.32
146.409
146.463
146.48
146.464
146.416
146.339
146.238
146.117
145.985
145.849
145.716
145.59
145.473
145.361
145.255
145.103
145.008
144.501
139.389
139.167
139.141
139.211
139.252
139.359
139.712
140.359
141.176
141.994
142.71
143.305
143.806
144.241
144.63
144.982
145.297
145.573
145.803
145.98
146.107
146.185
146.222
146.221
146.19
146.132
146.053
145.958
145.855
145.748
145.647
145.558
145.492
145.46
145.47
145.526
145.627
145.763
145.918
146.076
146.22
146.337
146.42
146.468
146.48
146.459
146.406
146.325
146.22
146.097
145.964
145.828
145.695
145.57
145.455
145.344
145.236
145.079
144.978
144.442
139.359
139.138
139.152
139.224
139.26
139.391
139.794
140.482
141.312
142.118
142.812
143.39
143.878
144.305
144.688
145.034
145.344
145.613
145.834
146.004
146.122
146.194
146.224
146.218
146.182
146.12
146.038
145.942
145.838
145.732
145.632
145.546
145.485
145.459
145.476
145.539
145.647
145.787
145.944
146.1
146.241
146.353
146.43
146.472
146.479
146.452
146.395
146.31
146.201
146.076
145.942
145.806
145.675
145.551
145.437
145.326
145.217
145.054
144.946
144.381
139.313
139.119
139.167
139.236
139.268
139.43
139.884
140.61
141.448
142.238
142.912
143.472
143.949
144.368
144.745
145.085
145.39
145.652
145.865
146.026
146.136
146.201
146.225
146.214
146.174
146.108
146.024
145.926
145.821
145.715
145.617
145.534
145.478
145.458
145.483
145.554
145.667
145.811
145.969
146.124
146.261
146.367
146.439
146.475
146.477
146.445
146.383
146.294
146.182
146.055
145.92
145.785
145.655
145.533
145.42
145.309
145.198
145.027
144.912
144.317
139.257
139.111
139.186
139.245
139.278
139.476
139.982
140.742
141.582
142.355
143.008
143.552
144.018
144.43
144.801
145.136
145.434
145.689
145.894
146.047
146.149
146.207
146.225
146.21
146.165
146.096
146.009
145.91
145.804
145.699
145.602
145.523
145.472
145.459
145.491
145.569
145.688
145.836
145.995
146.148
146.28
146.381
146.448
146.478
146.474
146.437
146.371
146.277
146.163
146.034
145.898
145.764
145.635
145.514
145.402
145.291
145.178
145
144.876
144.249
139.198
139.114
139.206
139.251
139.29
139.531
140.088
140.877
141.715
142.468
143.1
143.63
144.086
144.491
144.856
145.186
145.478
145.725
145.922
146.066
146.161
146.212
146.225
146.204
146.155
146.083
145.994
145.893
145.787
145.683
145.588
145.513
145.467
145.461
145.5
145.585
145.71
145.861
146.02
146.171
146.298
146.394
146.455
146.48
146.47
146.428
146.357
146.261
146.143
146.013
145.877
145.743
145.615
145.496
145.385
145.273
145.157
144.97
144.837
144.178
139.146
139.126
139.225
139.255
139.306
139.594
140.202
141.014
141.845
142.578
143.19
143.706
144.153
144.551
144.911
145.235
145.52
145.76
145.948
146.084
146.172
146.217
146.224
146.198
146.145
146.07
145.978
145.876
145.77
145.667
145.575
145.503
145.463
145.463
145.51
145.603
145.733
145.886
146.045
146.193
146.316
146.406
146.461
146.48
146.466
146.419
146.344
146.243
146.123
145.991
145.855
145.722
145.595
145.478
145.368
145.255
145.135
144.939
144.796
144.103
139.106
139.145
139.241
139.257
139.328
139.666
140.322
141.151
141.972
142.683
143.277
143.78
144.219
144.61
144.964
145.283
145.561
145.793
145.973
146.101
146.182
146.22
146.222
146.192
146.135
146.056
145.963
145.859
145.753
145.651
145.561
145.494
145.46
145.468
145.522
145.621
145.756
145.912
146.07
146.215
146.333
146.418
146.466
146.48
146.46
146.409
146.329
146.225
146.103
145.97
145.834
145.701
145.576
145.46
145.351
145.237
145.112
144.906
144.752
144.024
139.082
139.167
139.254
139.259
139.355
139.747
140.448
141.289
142.095
142.785
143.362
143.853
144.283
144.668
145.017
145.33
145.601
145.825
145.997
146.117
146.191
146.223
146.219
146.184
146.124
146.042
145.947
145.843
145.736
145.636
145.549
145.486
145.458
145.473
145.535
145.641
145.78
145.937
146.094
146.235
146.349
146.428
146.471
146.479
146.454
146.398
146.314
146.207
146.082
145.948
145.812
145.681
145.557
145.442
145.333
145.218
145.088
144.872
144.705
143.942
139.073
139.191
139.262
139.26
139.389
139.838
140.578
141.426
142.215
142.884
143.444
143.924
144.347
144.726
145.069
145.376
145.64
145.856
146.019
146.132
146.198
146.224
146.215
146.176
146.112
146.028
145.931
145.826
145.72
145.621
145.537
145.479
145.457
145.479
145.549
145.661
145.804
145.963
146.119
146.256
146.364
146.437
146.475
146.477
146.447
146.387
146.299
146.188
146.061
145.926
145.791
145.66
145.538
145.425
145.316
145.199
145.062
144.835
144.656
143.856
139.077
139.214
139.267
139.263
139.432
139.938
140.713
141.561
142.331
142.979
143.524
143.994
144.409
144.782
145.12
145.421
145.678
145.886
146.041
146.145
146.205
146.225
146.211
146.167
146.1
146.013
145.914
145.809
145.703
145.606
145.526
145.473
145.457
145.487
145.564
145.682
145.829
145.988
146.142
146.275
146.378
146.445
146.477
146.475
146.44
146.374
146.282
146.169
146.04
145.905
145.77
145.64
145.52
145.407
145.298
145.179
145.036
144.796
144.603
143.767
139.091
139.235
139.269
139.268
139.484
140.046
140.851
141.694
142.443
143.072
143.603
144.063
144.47
144.838
145.17
145.464
145.714
145.914
146.06
146.157
146.21
146.225
146.206
146.158
146.087
145.998
145.898
145.792
145.687
145.592
145.515
145.467
145.459
145.496
145.58
145.704
145.854
146.014
146.165
146.294
146.391
146.453
146.479
146.471
146.431
146.361
146.266
146.149
146.019
145.883
145.748
145.621
145.501
145.39
145.281
145.158
145.008
144.755
144.547
143.673
139.112
139.253
139.267
139.278
139.545
140.162
140.99
141.823
142.551
143.161
143.679
144.13
144.531
144.893
145.219
145.507
145.75
145.94
146.079
146.169
146.215
146.224
146.2
146.148
146.074
145.983
145.881
145.775
145.671
145.578
145.505
145.463
145.461
145.506
145.597
145.726
145.88
146.039
146.187
146.312
146.403
146.459
146.48
146.467
146.422
146.348
146.248
146.129
145.997
145.861
145.728
145.601
145.483
145.373
145.263
145.136
144.978
144.712
144.488
143.575
139.138
139.268
139.263
139.293
139.616
140.286
141.129
141.95
142.656
143.248
143.754
144.196
144.59
144.947
145.268
145.549
145.783
145.966
146.096
146.179
146.219
146.222
146.193
146.138
146.06
145.967
145.864
145.758
145.655
145.565
145.496
145.46
145.465
145.518
145.615
145.75
145.905
146.064
146.209
146.329
146.415
146.465
146.48
146.462
146.412
146.334
146.23
146.109
145.976
145.84
145.707
145.582
145.465
145.356
145.245
145.114
144.946
144.666
144.425
143.474
139.165
139.28
139.258
139.314
139.698
140.415
141.268
142.072
142.757
143.333
143.827
144.261
144.649
145
145.315
145.59
145.816
145.99
146.112
146.187
146.221
146.219
146.186
146.127
146.046
145.951
145.847
145.741
145.64
145.552
145.488
145.457
145.47
145.53
145.635
145.773
145.931
146.088
146.23
146.345
146.425
146.47
146.479
146.456
146.401
146.319
146.212
146.088
145.954
145.818
145.686
145.563
145.448
145.338
145.226
145.09
144.913
144.617
144.359
143.368
139.193
139.287
139.252
139.343
139.79
140.549
141.406
142.191
142.855
143.416
143.899
144.325
144.707
145.052
145.361
145.629
145.847
146.013
146.127
146.195
146.223
146.216
146.178
146.115
146.032
145.935
145.83
145.725
145.625
145.54
145.48
145.456
145.476
145.544
145.655
145.798
145.956
146.113
146.251
146.36
146.435
146.474
146.478
146.449
146.39
146.303
146.193
146.067
145.932
145.797
145.666
145.544
145.43
145.321
145.207
145.066
144.877
144.565
144.288
143.259
139.221
139.29
139.247
139.381
139.892
140.687
141.541
142.306
142.95
143.496
143.97
144.388
144.763
145.103
145.407
145.667
145.877
146.034
146.141
146.202
146.224
146.212
146.17
146.103
146.017
145.919
145.814
145.708
145.61
145.528
145.474
145.456
145.484
145.559
145.676
145.823
145.982
146.136
146.27
146.374
146.443
146.476
146.475
146.442
146.378
146.287
146.174
146.046
145.911
145.775
145.646
145.525
145.413
145.304
145.187
145.04
144.839
144.511
144.214
143.145
139.248
139.289
139.244
139.43
140.004
140.828
141.674
142.416
143.042
143.575
144.039
144.45
144.819
145.154
145.451
145.704
145.906
146.054
146.153
146.208
146.224
146.207
146.161
146.091
146.002
145.902
145.797
145.692
145.596
145.517
145.468
145.457
145.492
145.575
145.697
145.848
146.007
146.159
146.289
146.388
146.451
146.479
146.472
146.434
146.365
146.271
146.155
146.025
145.889
145.754
145.626
145.507
145.395
145.286
145.167
145.012
144.799
144.454
144.136
143.028
139.274
139.283
139.245
139.49
140.124
140.969
141.803
142.524
143.132
143.653
144.107
144.511
144.874
145.204
145.495
145.74
145.933
146.073
146.165
146.213
146.224
146.201
146.151
146.078
145.987
145.886
145.78
145.676
145.582
145.507
145.463
145.46
145.502
145.592
145.72
145.873
146.033
146.182
146.307
146.4
146.458
146.48
146.468
146.425
146.352
146.253
146.135
146.003
145.867
145.734
145.607
145.489
145.378
145.269
145.146
144.983
144.757
144.393
144.053
142.908
139.296
139.274
139.252
139.561
140.252
141.111
141.928
142.627
143.219
143.728
144.174
144.57
144.929
145.252
145.537
145.774
145.958
146.091
146.175
146.217
146.222
146.195
146.141
146.064
145.972
145.869
145.763
145.66
145.568
145.498
145.46
145.463
145.513
145.61
145.743
145.898
146.058
146.204
146.324
146.412
146.463
146.48
146.463
146.415
146.338
146.236
146.114
145.982
145.846
145.713
145.587
145.471
145.361
145.251
145.123
144.953
144.712
144.33
143.966
142.783
139.314
139.261
139.266
139.644
140.386
141.251
142.049
142.727
143.304
143.802
144.239
144.629
144.982
145.3
145.578
145.807
145.983
146.107
146.184
146.22
146.22
146.188
146.13
146.05
145.956
145.852
145.746
145.644
145.555
145.489
145.457
145.468
145.526
145.629
145.767
145.924
146.082
146.225
146.341
146.422
146.468
146.48
146.458
146.405
146.323
146.218
146.094
145.96
145.824
145.692
145.568
145.453
145.344
145.232
145.1
144.92
144.664
144.262
143.874
142.655
139.326
139.246
139.288
139.739
140.524
141.389
142.166
142.825
143.387
143.875
144.304
144.687
145.035
145.347
145.618
145.838
146.006
146.122
146.192
146.222
146.217
146.18
146.118
146.036
145.94
145.835
145.729
145.629
145.543
145.481
145.455
145.473
145.539
145.649
145.791
145.95
146.107
146.246
146.356
146.432
146.472
146.478
146.451
146.394
146.308
146.199
146.073
145.938
145.803
145.672
145.549
145.435
145.327
145.213
145.076
144.886
144.613
144.192
143.778
142.524
139.332
139.231
139.322
139.845
140.667
141.524
142.279
142.919
143.469
143.946
144.367
144.744
145.087
145.393
145.656
145.869
146.028
146.136
146.2
146.224
146.213
146.172
146.106
146.022
145.923
145.818
145.713
145.614
145.531
145.475
145.455
145.481
145.554
145.67
145.816
145.976
146.131
146.266
146.371
146.441
146.476
146.476
146.444
146.382
146.292
146.18
146.052
145.917
145.781
145.652
145.531
145.418
145.309
145.194
145.051
144.849
144.559
144.118
143.677
142.39
139.331
139.218
139.367
139.962
140.81
141.655
142.388
143.011
143.549
144.016
144.429
144.801
145.138
145.438
145.693
145.897
146.048
146.149
146.206
146.224
146.208
146.163
146.094
146.007
145.907
145.801
145.696
145.599
145.52
145.469
145.456
145.489
145.569
145.691
145.841
146.001
146.154
146.285
146.384
146.449
146.478
146.473
146.436
146.369
146.276
146.16
146.031
145.895
145.76
145.632
145.512
145.401
145.292
145.174
145.024
144.81
144.502
144.04
143.572
142.254
139.322
139.209
139.425
140.088
140.955
141.782
142.494
143.101
143.627
144.085
144.49
144.856
145.188
145.482
145.729
145.925
146.067
146.161
146.211
146.224
146.203
146.154
146.081
145.991
145.89
145.784
145.68
145.585
145.51
145.464
145.458
145.498
145.586
145.714
145.866
146.026
146.177
146.303
146.397
146.456
146.479
146.469
146.428
146.356
146.259
146.141
146.009
145.873
145.739
145.612
145.494
145.383
145.275
145.153
144.996
144.769
144.442
143.959
143.461
142.115
139.308
139.205
139.497
140.222
141.097
141.905
142.596
143.189
143.703
144.152
144.55
144.911
145.237
145.524
145.764
145.951
146.085
146.171
146.215
146.222
146.197
146.144
146.068
145.976
145.874
145.768
145.664
145.572
145.5
145.46
145.461
145.509
145.604
145.737
145.892
146.052
146.199
146.32
146.409
146.462
146.48
146.465
146.418
146.342
146.241
146.12
145.988
145.852
145.719
145.593
145.476
145.366
145.257
145.132
144.966
144.725
144.378
143.874
143.345
141.974
139.29
139.209
139.583
140.363
141.238
142.023
142.696
143.275
143.778
144.218
144.609
144.964
145.285
145.566
145.797
145.976
146.102
146.181
146.219
146.22
146.19
146.133
146.054
145.96
145.857
145.751
145.648
145.559
145.491
145.457
145.465
145.521
145.623
145.76
145.918
146.076
146.22
146.337
146.42
146.467
146.48
146.459
146.408
146.328
146.223
146.1
145.966
145.83
145.698
145.574
145.458
145.349
145.239
145.109
144.934
144.678
144.311
143.785
143.225
141.831
139.268
139.222
139.684
140.508
141.375
142.138
142.793
143.359
143.851
144.282
144.668
145.018
145.333
145.606
145.829
145.999
146.117
146.189
146.221
146.217
146.183
146.122
146.04
145.944
145.84
145.734
145.633
145.546
145.483
145.455
145.471
145.534
145.643
145.784
145.943
146.101
146.241
146.352
146.429
146.471
146.479
146.453
146.397
146.313
146.204
146.079
145.944
145.809
145.678
145.555
145.441
145.332
145.22
145.086
144.9
144.628
144.24
143.692
143.099
141.687
139.242
139.247
139.798
140.655
141.507
142.249
142.888
143.442
143.923
144.346
144.725
145.07
145.379
145.645
145.86
146.021
146.132
146.197
146.223
146.214
146.174
146.11
146.026
145.928
145.823
145.717
145.618
145.534
145.476
145.454
145.477
145.549
145.663
145.809
145.969
146.125
146.261
146.367
146.438
146.475
146.477
146.446
146.385
146.297
146.185
146.058
145.923
145.787
145.658
145.536
145.423
145.315
145.201
145.061
144.864
144.576
144.166
143.595
142.968
141.543
139.214
139.287
139.925
140.802
141.635
142.356
142.98
143.522
143.993
144.408
144.782
145.121
145.424
145.683
145.889
146.042
146.145
146.203
146.223
146.209
146.166
146.098
146.011
145.912
145.806
145.701
145.603
145.523
145.469
145.454
145.485
145.564
145.685
145.834
145.995
146.148
146.28
146.381
146.447
146.477
146.474
146.439
146.373
146.281
146.166
146.037
145.901
145.766
145.638
145.518
145.406
145.298
145.181
145.034
144.826
144.52
144.088
143.494
142.833
141.398
139.182
139.344
140.062
140.948
141.759
142.461
143.071
143.601
144.062
144.469
144.837
145.172
145.469
145.719
145.917
146.061
146.157
146.209
146.223
146.204
146.156
146.085
145.996
145.895
145.789
145.685
145.589
145.512
145.464
145.456
145.495
145.581
145.707
145.86
146.02
146.171
146.298
146.394
146.454
146.479
146.47
146.43
146.36
146.264
146.146
146.015
145.879
145.745
145.618
145.5
145.389
145.28
145.161
145.007
144.785
144.461
144.006
143.389
142.692
141.255
139.151
139.421
140.208
141.09
141.878
142.563
143.16
143.679
144.13
144.53
144.892
145.222
145.512
145.754
145.943
146.08
146.168
146.214
146.222
146.198
146.146
146.072
145.98
145.879
145.772
145.669
145.575
145.502
145.46
145.459
145.505
145.598
145.73
145.885
146.045
146.193
146.316
146.406
146.46
146.48
146.466
146.421
146.347
146.246
146.126
145.994
145.858
145.725
145.599
145.482
145.372
145.263
145.14
144.977
144.742
144.399
143.92
143.28
142.547
141.112
139.125
139.518
140.358
141.227
141.993
142.663
143.247
143.754
144.196
144.589
144.947
145.27
145.554
145.788
145.968
146.097
146.178
146.217
146.221
146.192
146.136
146.058
145.965
145.862
145.756
145.653
145.562
145.493
145.456
145.463
145.517
145.617
145.754
145.911
146.07
146.215
146.333
146.417
146.465
146.48
146.461
146.411
146.332
146.228
146.106
145.972
145.836
145.704
145.58
145.464
145.355
145.245
145.118
144.946
144.696
144.333
143.831
143.166
142.398
140.972
139.112
139.635
140.51
141.359
142.105
142.761
143.332
143.828
144.261
144.648
145
145.318
145.594
145.82
145.992
146.112
146.186
146.22
146.218
146.185
146.125
146.044
145.949
145.845
145.739
145.637
145.549
145.484
145.454
145.468
145.53
145.637
145.778
145.937
146.095
146.236
146.348
146.427
146.47
146.479
146.455
146.4
146.317
146.21
146.085
145.95
145.815
145.684
145.561
145.446
145.338
145.226
145.095
144.913
144.648
144.264
143.737
143.048
142.244
140.835
139.117
139.769
140.66
141.486
142.214
142.856
143.416
143.9
144.324
144.705
145.053
145.365
145.634
145.851
146.014
146.127
146.194
146.222
146.215
146.177
146.113
146.03
145.933
145.828
145.722
145.622
145.537
145.477
145.453
145.474
145.544
145.657
145.803
145.963
146.119
146.256
146.363
146.436
146.474
146.477
146.448
146.389
146.302
146.191
146.064
145.929
145.793
145.664
145.542
145.429
145.32
145.208
145.07
144.878
144.596
144.191
143.64
142.926
142.086
140.702
139.147
139.916
140.805
141.608
142.322
142.95
143.497
143.971
144.387
144.762
145.105
145.411
145.672
145.881
146.036
146.14
146.201
146.223
146.211
146.168
146.101
146.015
145.916
145.811
145.706
145.607
145.525
145.47
145.453
145.482
145.559
145.678
145.828
145.988
146.143
146.275
146.377
146.444
146.476
146.475
146.441
146.377
146.286
146.172
146.043
145.907
145.772
145.644
145.523
145.411
145.303
145.188
145.045
144.841
144.541
144.114
143.538
142.799
141.925
140.573
139.207
140.071
140.944
141.727
142.427
143.042
143.577
144.04
144.448
144.818
145.156
145.456
145.709
145.909
146.055
146.153
146.207
146.223
146.206
146.159
146.088
146
145.9
145.794
145.689
145.593
145.514
145.465
145.454
145.491
145.575
145.701
145.853
146.014
146.166
146.294
146.39
146.452
146.478
146.471
146.433
146.364
146.269
146.152
146.021
145.885
145.751
145.624
145.505
145.394
145.286
145.168
145.018
144.801
144.483
144.034
143.433
142.668
141.761
140.45
139.304
140.226
141.076
141.843
142.53
143.132
143.654
144.107
144.509
144.874
145.206
145.499
145.744
145.936
146.074
146.164
146.212
146.222
146.2
146.149
146.075
145.985
145.883
145.777
145.673
145.579
145.504
145.46
145.457
145.501
145.593
145.724
145.879
146.039
146.188
146.312
146.403
146.458
146.479
146.467
146.424
146.351
146.252
146.132
146
145.864
145.73
145.604
145.487
145.377
145.268
145.148
144.989
144.759
144.422
143.949
143.323
142.532
141.595
140.333
139.449
140.37
141.203
141.957
142.631
143.221
143.73
144.174
144.569
144.929
145.255
145.542
145.779
145.961
146.091
146.174
146.216
146.221
146.194
146.139
146.062
145.969
145.867
145.76
145.657
145.565
145.495
145.456
145.46
145.512
145.611
145.747
145.904
146.064
146.21
146.328
146.414
146.464
146.48
146.463
146.414
146.337
146.234
146.112
145.978
145.842
145.71
145.585
145.469
145.36
145.251
145.126
144.959
144.714
144.358
143.861
143.209
142.393
141.427
140.224
)
;

boundaryField
{
    bottomwall
    {
        type            opaque;
        refValue        uniform 0;
        refGradient     uniform 0;
        valueFraction   uniform 0;
        source          uniform 0;
        value           nonuniform List<scalar> 
60
(
139.168
139.267
139.243
139.25
139.251
139.217
139.186
139.198
139.289
139.534
140.003
140.687
141.487
142.274
142.965
143.537
144.013
144.425
144.792
145.125
145.422
145.677
145.884
146.041
146.147
146.207
146.227
146.213
146.169
146.101
146.014
145.915
145.81
145.705
145.608
145.529
145.477
145.463
145.492
145.566
145.681
145.825
145.983
146.136
146.27
146.375
146.444
146.477
146.475
146.44
146.374
146.282
146.169
146.042
145.907
145.771
145.643