/*--------------------------------*- C++ -*----------------------------------*\
| =========                 |                                                 |
| \\      /  F ield         | OpenFOAM: The Open Source CFD Toolbox           |
|  \\    /   O peration     | Version:  2406                                  |
|   \\  /    A nd           | Website:  www.openfoam.com                      |
|    \\/     M anipulation  |                                                 |
\*---------------------------------------------------------------------------*/
FoamFile
{
    version     2.0;
    format      ascii;
    arch        "LSB;label=32;scalar=64";
    class       volScalarField;
    location    "10000";
    object      ILambda_4_0;
}
// * * * * * * * * * * * * * * * * * * * * * * * * * * * * * * * * * * * * * //

dimensions      [1 0 -3 0 0 0 0];

internalField   nonuniform List<scalar> 
3600
(
139.427
140.574
141.839
143.088
144.242
145.267
146.153
146.902
147.527
148.041
148.461
148.803
149.081
149.307
149.492
149.645
149.774
149.886
149.986
150.079
150.169
150.258
150.348
150.44
150.534
150.631
150.73
150.837
150.955
151.088
151.232
151.377
151.505
151.594
151.634
151.643
151.678
151.839
152.259
153.073
154.391
156.26
158.648
161.447
164.487
167.561
170.459
172.986
174.978
176.306
176.88
176.649
175.613
173.819
171.37
168.409
165.132
161.61
158.499
153.217
138.959
138.778
138.773
138.977
139.383
139.955
140.654
141.437
142.264
143.103
143.928
144.717
145.457
146.139
146.757
147.309
147.798
148.225
148.595
148.914
149.186
149.418
149.616
149.787
149.935
150.065
150.182
150.288
150.385
150.478
150.572
150.67
150.778
150.897
151.022
151.139
151.232
151.285
151.293
151.274
151.273
151.359
151.62
152.143
153
154.234
155.846
157.8
160.023
162.414
164.856
167.222
169.381
171.209
172.598
173.453
173.749
173.338
172.78
170.101
139.124
139.034
138.897
138.751
138.637
138.59
138.636
138.789
139.053
139.424
139.892
140.442
141.057
141.719
142.411
143.115
143.816
144.502
145.162
145.786
146.37
146.909
147.401
147.845
148.243
148.596
148.908
149.182
149.42
149.628
149.809
149.967
150.108
150.239
150.366
150.491
150.613
150.723
150.808
150.853
150.845
150.781
150.675
150.555
150.47
150.48
150.647
151.034
151.688
152.64
153.9
155.454
157.267
159.279
161.414
163.578
165.676
167.599
169.204
170.956
139.176
139.169
139.143
139.09
139.008
138.902
138.786
138.676
138.59
138.546
138.558
138.637
138.791
139.023
139.333
139.717
140.167
140.676
141.232
141.825
142.442
143.073
143.706
144.331
144.941
145.527
146.085
146.608
147.095
147.544
147.954
148.325
148.657
148.954
149.219
149.456
149.67
149.864
150.039
150.195
150.326
150.423
150.477
150.481
150.432
150.336
150.212
150.084
149.991
149.975
150.08
150.352
150.827
151.535
152.491
153.7
155.125
156.822
158.35
161.377
139.224
139.217
139.213
139.207
139.195
139.169
139.125
139.062
138.981
138.886
138.784
138.685
138.6
138.54
138.515
138.535
138.609
138.74
138.934
139.191
139.51
139.887
140.317
140.795
141.311
141.859
142.428
143.011
143.599
144.184
144.758
145.316
145.852
146.362
146.841
147.288
147.702
148.083
148.432
148.752
149.044
149.309
149.546
149.75
149.916
150.039
150.111
150.131
150.099
150.023
149.917
149.802
149.705
149.659
149.698
149.861
150.162
150.704
151.205
152.841
139.31
139.295
139.282
139.271
139.263
139.256
139.249
139.236
139.216
139.184
139.138
139.077
139.003
138.917
138.824
138.729
138.641
138.567
138.515
138.493
138.507
138.565
138.671
138.829
139.041
139.306
139.623
139.991
140.403
140.856
141.343
141.858
142.393
142.941
143.496
144.05
144.597
145.132
145.649
146.146
146.619
147.067
147.49
147.885
148.253
148.59
148.894
149.16
149.382
149.556
149.677
149.743
149.757
149.724
149.654
149.567
149.474
149.428
149.368
149.598
139.416
139.4
139.383
139.367
139.351
139.337
139.326
139.316
139.307
139.298
139.287
139.271
139.248
139.216
139.173
139.117
139.05
138.972
138.887
138.797
138.708
138.625
138.554
138.502
138.475
138.479
138.52
138.601
138.726
138.898
139.118
139.385
139.698
140.055
140.452
140.885
141.349
141.838
142.346
142.867
143.395
143.924
144.45
144.969
145.475
145.967
146.442
146.895
147.324
147.725
148.094
148.424
148.71
148.948
149.133
149.264
149.341
149.367
149.358
149.279
139.478
139.473
139.465
139.455
139.444
139.431
139.418
139.404
139.391
139.379
139.369
139.359
139.35
139.34
139.328
139.311
139.289
139.259
139.22
139.171
139.111
139.041
138.963
138.879
138.792
138.705
138.624
138.554
138.499
138.465
138.457
138.48
138.538
138.634
138.771
138.951
139.174
139.44
139.747
140.094
140.478
140.894
141.338
141.805
142.291
142.79
143.299
143.812
144.326
144.835
145.337
145.827
146.299
146.749
147.171
147.559
147.908
148.214
148.455
148.736
139.443
139.454
139.463
139.469
139.472
139.473
139.471
139.466
139.46
139.452
139.443
139.434
139.424
139.415
139.407
139.398
139.39
139.38
139.369
139.354
139.334
139.307
139.273
139.23
139.179
139.117
139.047
138.97
138.887
138.802
138.717
138.636
138.564
138.505
138.463
138.443
138.449
138.485
138.555
138.662
138.806
138.99
139.214
139.477
139.778
140.115
140.486
140.887
141.314
141.765
142.236
142.721
143.217
143.721
144.226
144.729
145.221
145.712
146.121
146.792
139.322
139.345
139.366
139.386
139.404
139.42
139.434
139.445
139.454
139.46
139.463
139.465
139.464
139.461
139.457
139.453
139.447
139.442
139.436
139.43
139.424
139.416
139.407
139.394
139.377
139.355
139.327
139.291
139.247
139.194
139.133
139.064
138.988
138.907
138.823
138.739
138.657
138.583
138.519
138.469
138.438
138.429
138.446
138.493
138.571
138.684
138.832
139.018
139.24
139.499
139.794
140.122
140.483
140.872
141.289
141.73
142.186
142.678
143.094
143.892
139.184
139.205
139.227
139.25
139.273
139.296
139.318
139.34
139.36
139.379
139.397
139.412
139.425
139.436
139.445
139.451
139.456
139.459
139.46
139.46
139.459
139.458
139.456
139.453
139.45
139.445
139.439
139.429
139.417
139.4
139.377
139.348
139.312
139.268
139.216
139.156
139.088
139.014
138.935
138.852
138.768
138.687
138.61
138.541
138.484
138.443
138.421
138.42
138.446
138.499
138.583
138.7
138.851
139.036
139.256
139.512
139.798
140.135
140.425
141.066
139.093
139.104
139.117
139.132
139.148
139.166
139.185
139.206
139.227
139.249
139.271
139.293
139.314
139.335
139.354
139.373
139.389
139.404
139.417
139.428
139.437
139.445
139.451
139.456
139.46
139.462
139.464
139.466
139.466
139.465
139.462
139.457
139.449
139.437
139.421
139.399
139.37
139.335
139.292
139.242
139.183
139.118
139.046
138.969
138.888
138.805
138.723
138.644
138.571
138.508
138.458
138.423
138.407
138.414
138.445
138.504
138.59
138.718
138.832
139.162
139.071
139.071
139.072
139.076
139.081
139.088
139.096
139.107
139.12
139.134
139.15
139.168
139.187
139.206
139.227
139.248
139.269
139.29
139.31
139.33
139.348
139.366
139.382
139.396
139.409
139.421
139.432
139.441
139.449
139.456
139.462
139.467
139.471
139.474
139.476
139.475
139.472
139.465
139.455
139.44
139.419
139.392
139.359
139.318
139.27
139.214
139.151
139.082
139.007
138.928
138.846
138.764
138.684
138.608
138.54
138.481
138.435
138.409
138.389
138.43
139.091
139.086
139.081
139.077
139.074
139.072
139.071
139.072
139.074
139.077
139.083
139.09
139.099
139.11
139.122
139.136
139.152
139.169
139.187
139.206
139.226
139.246
139.266
139.286
139.305
139.324
139.342
139.359
139.375
139.39
139.404
139.417
139.429
139.439
139.449
139.458
139.466
139.473
139.479
139.482
139.484
139.483
139.478
139.47
139.457
139.438
139.414
139.383
139.345
139.299
139.247
139.187
139.12
139.048
138.971
138.891
138.81
138.728
138.657
138.547
139.121
139.116
139.111
139.105
139.1
139.095
139.089
139.085
139.08
139.077
139.074
139.072
139.072
139.073
139.075
139.079
139.085
139.092
139.101
139.112
139.124
139.138
139.153
139.17
139.187
139.206
139.224
139.243
139.263
139.282
139.301
139.319
139.337
139.354
139.37
139.385
139.4
139.414
139.427
139.44
139.451
139.462
139.471
139.479
139.486
139.489
139.491
139.489
139.482
139.472
139.456
139.434
139.406
139.371
139.329
139.279
139.224
139.158
139.101
138.978
139.14
139.137
139.134
139.131
139.127
139.123
139.119
139.114
139.109
139.103
139.098
139.093
139.088
139.083
139.079
139.076
139.074
139.073
139.073
139.074
139.076
139.081
139.087
139.094
139.103
139.114
139.126
139.139
139.154
139.17
139.187
139.204
139.222
139.241
139.259
139.278
139.296
139.314
139.332
139.349
139.366
139.382
139.398
139.413
139.428
139.442
139.455
139.466
139.477
139.485
139.492
139.495
139.495
139.492
139.484
139.471
139.453
139.426
139.402
139.334
139.149
139.148
139.147
139.145
139.144
139.142
139.139
139.137
139.133
139.13
139.126
139.122
139.117
139.112
139.107
139.102
139.097
139.092
139.087
139.083
139.079
139.076
139.074
139.073
139.073
139.075
139.078
139.082
139.088
139.096
139.105
139.115
139.127
139.14
139.154
139.169
139.186
139.202
139.22
139.238
139.256
139.274
139.292
139.31
139.328
139.346
139.363
139.381
139.398
139.414
139.43
139.444
139.458
139.471
139.482
139.49
139.497
139.499
139.5
139.488
139.159
139.157
139.155
139.154
139.152
139.151
139.15
139.149
139.147
139.145
139.143
139.141
139.139
139.136
139.132
139.129
139.124
139.12
139.115
139.11
139.105
139.1
139.095
139.09
139.086
139.082
139.078
139.076
139.074
139.074
139.074
139.076
139.079
139.084
139.09
139.097
139.106
139.116
139.127
139.14
139.154
139.168
139.184
139.2
139.217
139.235
139.252
139.27
139.289
139.307
139.325
139.344
139.362
139.38
139.398
139.415
139.432
139.448
139.461
139.48
139.181
139.176
139.172
139.169
139.166
139.163
139.161
139.159
139.157
139.155
139.154
139.152
139.151
139.149
139.147
139.145
139.143
139.141
139.138
139.135
139.131
139.127
139.123
139.119
139.114
139.109
139.104
139.099
139.094
139.089
139.085
139.081
139.078
139.076
139.075
139.074
139.075
139.077
139.08
139.085
139.091
139.098
139.106
139.116
139.127
139.14
139.153
139.167
139.182
139.198
139.215
139.232
139.25
139.268
139.286
139.305
139.324
139.343
139.36
139.39
139.222
139.214
139.207
139.2
139.194
139.189
139.183
139.179
139.175
139.171
139.168
139.165
139.163
139.16
139.158
139.157
139.155
139.153
139.151
139.15
139.148
139.145
139.143
139.14
139.137
139.134
139.13
139.126
139.122
139.117
139.113
139.108
139.103
139.098
139.093
139.089
139.085
139.081
139.078
139.076
139.075
139.075
139.076
139.078
139.081
139.086
139.091
139.098
139.107
139.116
139.127
139.139
139.152
139.166
139.18
139.196
139.212
139.23
139.245
139.275
139.284
139.273
139.263
139.253
139.243
139.234
139.226
139.218
139.21
139.203
139.197
139.191
139.186
139.181
139.177
139.173
139.17
139.167
139.164
139.162
139.16
139.158
139.156
139.154
139.152
139.15
139.148
139.145
139.143
139.14
139.137
139.133
139.129
139.125
139.121
139.116
139.111
139.107
139.102
139.097
139.092
139.088
139.084
139.081
139.078
139.076
139.075
139.075
139.076
139.078
139.082
139.086
139.092
139.099
139.107
139.116
139.126
139.138
139.149
139.172
139.359
139.347
139.334
139.322
139.311
139.299
139.288
139.277
139.266
139.256
139.247
139.238
139.229
139.221
139.213
139.207
139.2
139.194
139.189
139.184
139.18
139.176
139.172
139.169
139.166
139.164
139.161
139.159
139.157
139.155
139.153
139.151
139.148
139.145
139.143
139.139
139.136
139.132
139.128
139.124
139.12
139.115
139.11
139.106
139.101
139.096
139.092
139.088
139.084
139.081
139.078
139.077
139.076
139.076
139.077
139.079
139.082
139.087
139.091
139.103
139.431
139.421
139.409
139.398
139.386
139.374
139.362
139.35
139.338
139.326
139.314
139.303
139.291
139.28
139.27
139.26
139.25
139.241
139.232
139.224
139.217
139.21
139.203
139.197
139.192
139.187
139.182
139.178
139.175
139.171
139.168
139.166
139.163
139.161
139.158
139.156
139.153
139.151
139.148
139.145
139.142
139.139
139.136
139.132
139.128
139.123
139.119
139.114
139.109
139.105
139.1
139.095
139.091
139.087
139.084
139.081
139.078
139.077
139.076
139.077
139.485
139.478
139.471
139.462
139.453
139.444
139.433
139.423
139.412
139.4
139.389
139.377
139.365
139.353
139.341
139.329
139.317
139.306
139.295
139.284
139.273
139.263
139.254
139.244
139.236
139.228
139.22
139.213
139.206
139.2
139.195
139.19
139.185
139.181
139.177
139.173
139.17
139.167
139.165
139.162
139.159
139.157
139.154
139.151
139.149
139.146
139.142
139.139
139.135
139.131
139.127
139.123
139.118
139.113
139.109
139.104
139.099
139.095
139.091
139.085
139.505
139.505
139.503
139.5
139.496
139.491
139.485
139.479
139.471
139.463
139.455
139.445
139.435
139.425
139.414
139.403
139.391
139.379
139.368
139.356
139.344
139.332
139.321
139.309
139.298
139.287
139.277
139.267
139.257
139.248
139.239
139.231
139.223
139.216
139.209
139.203
139.197
139.192
139.188
139.183
139.179
139.176
139.172
139.169
139.166
139.163
139.16
139.158
139.155
139.152
139.149
139.146
139.142
139.139
139.135
139.131
139.126
139.122
139.118
139.11
139.486
139.491
139.496
139.5
139.502
139.504
139.504
139.503
139.502
139.499
139.496
139.491
139.486
139.479
139.472
139.464
139.456
139.447
139.437
139.427
139.416
139.405
139.394
139.382
139.371
139.359
139.347
139.335
139.324
139.313
139.302
139.291
139.28
139.27
139.26
139.251
139.242
139.234
139.226
139.219
139.212
139.206
139.2
139.195
139.19
139.186
139.182
139.178
139.174
139.171
139.168
139.165
139.162
139.159
139.155
139.152
139.149
139.146
139.143
139.136
139.429
139.44
139.45
139.46
139.469
139.476
139.483
139.489
139.494
139.498
139.5
139.502
139.503
139.502
139.501
139.499
139.495
139.491
139.486
139.48
139.473
139.465
139.457
139.448
139.439
139.429
139.418
139.407
139.396
139.385
139.373
139.362
139.35
139.339
139.327
139.316
139.305
139.294
139.284
139.274
139.264
139.255
139.246
139.238
139.23
139.222
139.216
139.209
139.203
139.198
139.193
139.188
139.184
139.18
139.176
139.173
139.169
139.166
139.163
139.158
139.347
139.361
139.375
139.389
139.402
139.414
139.426
139.437
139.447
139.457
139.466
139.474
139.481
139.487
139.492
139.496
139.499
139.501
139.501
139.501
139.5
139.498
139.495
139.491
139.486
139.48
139.474
139.466
139.458
139.449
139.44
139.43
139.42
139.41
139.399
139.387
139.376
139.365
139.353
139.342
139.33
139.319
139.308
139.297
139.287
139.277
139.267
139.258
139.249
139.241
139.233
139.226
139.219
139.212
139.206
139.201
139.195
139.191
139.187
139.18
139.256
139.27
139.285
139.3
139.315
139.329
139.344
139.358
139.372
139.385
139.398
139.411
139.423
139.434
139.444
139.454
139.463
139.471
139.478
139.484
139.489
139.494
139.497
139.499
139.5
139.5
139.499
139.497
139.495
139.491
139.486
139.481
139.474
139.467
139.459
139.451
139.442
139.432
139.422
139.412
139.401
139.39
139.379
139.367
139.356
139.345
139.334
139.322
139.311
139.301
139.29
139.28
139.271
139.261
139.253
139.244
139.236
139.229
139.222
139.212
139.171
139.183
139.197
139.21
139.224
139.238
139.253
139.267
139.282
139.297
139.311
139.326
139.34
139.355
139.368
139.382
139.395
139.407
139.419
139.431
139.441
139.451
139.46
139.468
139.476
139.482
139.487
139.492
139.495
139.497
139.499
139.499
139.498
139.497
139.494
139.491
139.486
139.481
139.475
139.468
139.46
139.452
139.443
139.434
139.424
139.414
139.403
139.392
139.381
139.37
139.359
139.348
139.337
139.326
139.315
139.304
139.294
139.284
139.275
139.261
139.103
139.113
139.123
139.133
139.144
139.156
139.168
139.181
139.194
139.207
139.221
139.235
139.25
139.264
139.279
139.293
139.308
139.323
139.337
139.351
139.365
139.379
139.392
139.404
139.416
139.428
139.438
139.448
139.457
139.466
139.473
139.479
139.485
139.49
139.493
139.496
139.497
139.498
139.497
139.496
139.494
139.49
139.486
139.481
139.475
139.469
139.461
139.453
139.445
139.435
139.426
139.416
139.405
139.395
139.384
139.373
139.362
139.35
139.341
139.323
139.059
139.065
139.071
139.078
139.085
139.093
139.102
139.111
139.121
139.131
139.142
139.154
139.166
139.178
139.191
139.205
139.218
139.232
139.247
139.261
139.276
139.29
139.305
139.319
139.334
139.348
139.362
139.375
139.388
139.401
139.413
139.424
139.435
139.445
139.454
139.463
139.47
139.477
139.483
139.487
139.491
139.494
139.496
139.497
139.496
139.495
139.493
139.49
139.486
139.481
139.476
139.469
139.462
139.454
139.446
139.437
139.428
139.417
139.409
139.392
139.038
139.04
139.043
139.046
139.049
139.054
139.058
139.064
139.07
139.076
139.083
139.091
139.1
139.109
139.119
139.129
139.14
139.151
139.163
139.176
139.189
139.202
139.215
139.229
139.244
139.258
139.272
139.287
139.302
139.316
139.33
139.345
139.358
139.372
139.385
139.398
139.41
139.421
139.432
139.442
139.452
139.46
139.468
139.475
139.48
139.485
139.489
139.492
139.494
139.495
139.495
139.494
139.492
139.49
139.486
139.481
139.476
139.47
139.464
139.451
139.036
139.035
139.035
139.035
139.036
139.037
139.038
139.04
139.042
139.045
139.048
139.052
139.057
139.062
139.068
139.075
139.082
139.09
139.098
139.107
139.117
139.127
139.138
139.149
139.161
139.173
139.186
139.199
139.213
139.226
139.241
139.255
139.269
139.284
139.298
139.313
139.327
139.341
139.355
139.369
139.382
139.394
139.407
139.418
139.429
139.439
139.449
139.457
139.465
139.472
139.478
139.483
139.487
139.49
139.493
139.494
139.494
139.493
139.492
139.487
139.047
139.044
139.042
139.04
139.039
139.037
139.036
139.035
139.035
139.035
139.035
139.036
139.037
139.039
139.041
139.044
139.047
139.051
139.056
139.061
139.067
139.073
139.08
139.088
139.096
139.105
139.115
139.125
139.135
139.147
139.158
139.171
139.183
139.196
139.21
139.224
139.238
139.252
139.266
139.281
139.295
139.309
139.324
139.338
139.352
139.365
139.378
139.391
139.403
139.415
139.426
139.436
139.446
139.455
139.462
139.47
139.476
139.481
139.485
139.49
139.065
139.062
139.058
139.055
139.052
139.05
139.047
139.045
139.042
139.04
139.039
139.037
139.036
139.035
139.035
139.034
139.035
139.035
139.037
139.038
139.041
139.043
139.047
139.05
139.055
139.06
139.066
139.072
139.079
139.086
139.094
139.103
139.113
139.123
139.133
139.144
139.156
139.168
139.181
139.194
139.207
139.221
139.235
139.249
139.263
139.277
139.292
139.306
139.32
139.335
139.348
139.362
139.375
139.388
139.4
139.412
139.423
139.433
139.442
139.456
139.088
139.084
139.08
139.076
139.073
139.069
139.066
139.062
139.059
139.056
139.053
139.05
139.047
139.045
139.042
139.04
139.039
139.037
139.036
139.035
139.034
139.034
139.034
139.035
139.036
139.038
139.04
139.042
139.046
139.049
139.054
139.059
139.064
139.07
139.077
139.085
139.093
139.101
139.111
139.121
139.131
139.142
139.154
139.166
139.178
139.191
139.204
139.218
139.232
139.246
139.26
139.274
139.289
139.303
139.317
139.331
139.345
139.359
139.37
139.391
139.113
139.109
139.105
139.1
139.096
139.092
139.089
139.085
139.081
139.077
139.073
139.07
139.066
139.063
139.06
139.056
139.053
139.05
139.048
139.045
139.043
139.04
139.039
139.037
139.036
139.035
139.034
139.034
139.034
139.034
139.035
139.037
139.039
139.042
139.045
139.048
139.053
139.057
139.063
139.069
139.076
139.083
139.091
139.1
139.109
139.119
139.129
139.14
139.151
139.163
139.175
139.188
139.201
139.215
139.229
139.243
139.257
139.271
139.284
139.307
139.141
139.136
139.131
139.127
139.123
139.118
139.114
139.11
139.106
139.102
139.098
139.093
139.09
139.086
139.082
139.078
139.074
139.071
139.067
139.063
139.06
139.057
139.054
139.051
139.048
139.045
139.043
139.041
139.039
139.037
139.036
139.034
139.034
139.033
139.034
139.034
139.035
139.036
139.038
139.041
139.044
139.047
139.052
139.056
139.062
139.068
139.074
139.081
139.089
139.098
139.107
139.116
139.127
139.138
139.149
139.161
139.173
139.186
139.197
139.219
139.171
139.166
139.161
139.156
139.151
139.147
139.142
139.137
139.133
139.128
139.124
139.12
139.115
139.111
139.107
139.103
139.099
139.095
139.091
139.087
139.083
139.079
139.075
139.071
139.068
139.064
139.061
139.057
139.054
139.051
139.048
139.045
139.043
139.041
139.039
139.037
139.035
139.034
139.034
139.033
139.033
139.034
139.034
139.036
139.038
139.04
139.043
139.046
139.05
139.055
139.06
139.066
139.073
139.08
139.088
139.096
139.105
139.115
139.123
139.141
139.203
139.198
139.193
139.187
139.182
139.177
139.172
139.167
139.162
139.158
139.153
139.148
139.143
139.139
139.134
139.13
139.125
139.121
139.117
139.112
139.108
139.104
139.1
139.096
139.092
139.087
139.084
139.08
139.076
139.072
139.068
139.065
139.061
139.058
139.055
139.051
139.049
139.046
139.043
139.041
139.039
139.037
139.035
139.034
139.033
139.033
139.033
139.033
139.034
139.035
139.037
139.039
139.042
139.045
139.049
139.054
139.059
139.065
139.07
139.082
139.237
139.232
139.226
139.221
139.216
139.21
139.205
139.2
139.194
139.189
139.184
139.179
139.174
139.169
139.164
139.159
139.154
139.15
139.145
139.14
139.136
139.131
139.127
139.122
139.118
139.114
139.109
139.105
139.101
139.097
139.093
139.088
139.084
139.08
139.077
139.073
139.069
139.065
139.062
139.058
139.055
139.052
139.049
139.046
139.043
139.041
139.039
139.037
139.035
139.034
139.033
139.033
139.033
139.033
139.033
139.035
139.036
139.039
139.041
139.047
139.272
139.266
139.261
139.255
139.25
139.245
139.239
139.234
139.228
139.223
139.217
139.212
139.207
139.201
139.196
139.191
139.186
139.181
139.175
139.17
139.166
139.161
139.156
139.151
139.146
139.142
139.137
139.133
139.128
139.124
139.119
139.115
139.11
139.106
139.102
139.098
139.094
139.089
139.085
139.081
139.077
139.074
139.07
139.066
139.062
139.059
139.056
139.052
139.049
139.046
139.044
139.041
139.039
139.037
139.035
139.034
139.033
139.033
139.032
139.033
139.304
139.299
139.294
139.289
139.284
139.279
139.273
139.268
139.262
139.257
139.252
139.246
139.241
139.235
139.23
139.224
139.219
139.214
139.208
139.203
139.198
139.192
139.187
139.182
139.177
139.172
139.167
139.162
139.157
139.153
139.148
139.143
139.139
139.134
139.129
139.125
139.12
139.116
139.112
139.107
139.103
139.099
139.095
139.09
139.086
139.082
139.078
139.074
139.071
139.067
139.063
139.06
139.056
139.053
139.05
139.047
139.044
139.042
139.039
139.036
139.331
139.327
139.323
139.319
139.315
139.31
139.305
139.3
139.295
139.29
139.285
139.28
139.275
139.269
139.264
139.259
139.253
139.248
139.242
139.237
139.231
139.226
139.221
139.215
139.21
139.205
139.199
139.194
139.189
139.184
139.179
139.174
139.169
139.164
139.159
139.154
139.149
139.145
139.14
139.135
139.131
139.126
139.122
139.117
139.113
139.109
139.104
139.1
139.096
139.091
139.087
139.083
139.079
139.075
139.071
139.067
139.064
139.06
139.057
139.052
139.351
139.348
139.345
139.342
139.339
139.336
139.332
139.328
139.324
139.32
139.316
139.311
139.307
139.302
139.297
139.292
139.287
139.282
139.276
139.271
139.266
139.26
139.255
139.249
139.244
139.239
139.233
139.228
139.222
139.217
139.212
139.206
139.201
139.196
139.191
139.185
139.18
139.175
139.17
139.165
139.16
139.156
139.151
139.146
139.141
139.137
139.132
139.128
139.123
139.119
139.114
139.11
139.105
139.101
139.097
139.092
139.088
139.084
139.081
139.074
139.361
139.36
139.358
139.357
139.355
139.353
139.351
139.349
139.346
139.343
139.34
139.337
139.333
139.329
139.325
139.321
139.317
139.312
139.308
139.303
139.298
139.293
139.288
139.283
139.278
139.273
139.267
139.262
139.257
139.251
139.246
139.24
139.235
139.229
139.224
139.219
139.213
139.208
139.203
139.197
139.192
139.187
139.182
139.177
139.172
139.167
139.162
139.157
139.152
139.148
139.143
139.138
139.134
139.129
139.124
139.12
139.115
139.111
139.107
139.1
139.362
139.363
139.363
139.362
139.362
139.362
139.361
139.36
139.359
139.357
139.356
139.354
139.352
139.349
139.347
139.344
139.341
139.337
139.334
139.33
139.326
139.322
139.318
139.314
139.309
139.304
139.3
139.295
139.29
139.285
139.279
139.274
139.269
139.264
139.258
139.253
139.247
139.242
139.236
139.231
139.226
139.22
139.215
139.21
139.204
139.199
139.194
139.189
139.184
139.179
139.174
139.169
139.164
139.159
139.154
139.149
139.144
139.14
139.136
139.128
139.36
139.361
139.361
139.362
139.362
139.362
139.363
139.363
139.363
139.363
139.362
139.362
139.361
139.36
139.359
139.357
139.356
139.354
139.352
139.35
139.347
139.344
139.341
139.338
139.335
139.331
139.327
139.323
139.319
139.315
139.31
139.306
139.301
139.296
139.291
139.286
139.281
139.276
139.27
139.265
139.26
139.254
139.249
139.244
139.238
139.233
139.227
139.222
139.217
139.211
139.206
139.201
139.196
139.19
139.185
139.18
139.175
139.17
139.166
139.158
139.358
139.358
139.358
139.359
139.359
139.36
139.36
139.361
139.361
139.362
139.362
139.363
139.363
139.363
139.363
139.363
139.362
139.362
139.361
139.36
139.359
139.358
139.356
139.354
139.352
139.35
139.348
139.345
139.342
139.339
139.336
139.332
139.328
139.324
139.32
139.316
139.311
139.307
139.302
139.297
139.292
139.287
139.282
139.277
139.272
139.267
139.261
139.256
139.251
139.245
139.24
139.234
139.229
139.224
139.218
139.213
139.208
139.202
139.198
139.189
139.355
139.356
139.356
139.357
139.357
139.358
139.358
139.358
139.359
139.359
139.36
139.36
139.361
139.361
139.362
139.362
139.362
139.363
139.363
139.363
139.363
139.363
139.362
139.362
139.361
139.36
139.359
139.358
139.356
139.355
139.353
139.351
139.348
139.346
139.343
139.34
139.336
139.333
139.329
139.325
139.321
139.317
139.313
139.308
139.303
139.299
139.294
139.289
139.284
139.279
139.273
139.268
139.263
139.258
139.252
139.247
139.242
139.236
139.231
139.223
139.347
139.349
139.351
139.352
139.353
139.354
139.355
139.356
139.356
139.357
139.357
139.358
139.358
139.359
139.359
139.36
139.36
139.361
139.361
139.362
139.362
139.362
139.363
139.363
139.363
139.363
139.363
139.363
139.363
139.362
139.361
139.361
139.36
139.358
139.357
139.355
139.353
139.351
139.349
139.346
139.343
139.34
139.337
139.334
139.33
139.326
139.322
139.318
139.314
139.309
139.305
139.3
139.295
139.29
139.285
139.28
139.275
139.27
139.265
139.257
139.325
139.33
139.334
139.338
139.341
139.344
139.346
139.348
139.35
139.351
139.353
139.354
139.355
139.356
139.356
139.357
139.358
139.358
139.359
139.359
139.36
139.36
139.361
139.361
139.361
139.362
139.362
139.363
139.363
139.363
139.363
139.363
139.363
139.363
139.363
139.362
139.362
139.361
139.36
139.359
139.357
139.355
139.354
139.352
139.349
139.347
139.344
139.341
139.338
139.334
139.331
139.327
139.323
139.319
139.315
139.31
139.306
139.301
139.297
139.289
139.284
139.292
139.299
139.306
139.312
139.318
139.323
139.328
139.332
139.336
139.339
139.342
139.345
139.347
139.349
139.351
139.352
139.353
139.354
139.355
139.356
139.357
139.358
139.358
139.359
139.359
139.36
139.36
139.361
139.361
139.362
139.362
139.363
139.363
139.363
139.363
139.364
139.364
139.364
139.363
139.363
139.363
139.362
139.361
139.36
139.359
139.357
139.356
139.354
139.352
139.35
139.347
139.345
139.342
139.339
139.335
139.332
139.328
139.325
139.318
139.227
139.237
139.247
139.256
139.265
139.273
139.281
139.289
139.296
139.303
139.309
139.315
139.32
139.325
139.33
139.334
139.337
139.34
139.343
139.346
139.348
139.35
139.351
139.353
139.354
139.355
139.356
139.357
139.358
139.358
139.359
139.359
139.36
139.361
139.361
139.362
139.362
139.362
139.363
139.363
139.363
139.364
139.364
139.364
139.364
139.364
139.363
139.363
139.362
139.361
139.36
139.359
139.358
139.356
139.354
139.352
139.35
139.348
139.346
139.341
139.164
139.174
139.184
139.195
139.205
139.215
139.225
139.234
139.244
139.253
139.262
139.27
139.278
139.286
139.293
139.3
139.307
139.312
139.318
139.323
139.327
139.331
139.335
139.338
139.341
139.344
139.346
139.348
139.35
139.352
139.353
139.354
139.355
139.356
139.357
139.358
139.359
139.359
139.36
139.361
139.361
139.362
139.362
139.363
139.363
139.363
139.364
139.364
139.364
139.364
139.364
139.364
139.363
139.363
139.362
139.361
139.361
139.359
139.358
139.356
139.101
139.111
139.121
139.131
139.141
139.152
139.162
139.172
139.182
139.193
139.203
139.213
139.223
139.232
139.242
139.251
139.26
139.268
139.276
139.284
139.291
139.298
139.304
139.31
139.316
139.321
139.326
139.33
139.334
139.337
139.34
139.343
139.346
139.348
139.35
139.352
139.353
139.354
139.356
139.357
139.358
139.358
139.359
139.36
139.361
139.361
139.362
139.362
139.363
139.363
139.364
139.364
139.364
139.364
139.365
139.365
139.365
139.364
139.364
139.363
139.034
139.045
139.056
139.067
139.077
139.087
139.097
139.108
139.118
139.128
139.138
139.148
139.158
139.168
139.178
139.188
139.198
139.208
139.218
139.227
139.237
139.246
139.254
139.263
139.271
139.279
139.286
139.293
139.299
139.305
139.311
139.316
139.321
139.326
139.33
139.333
139.337
139.34
139.342
139.345
139.347
139.349
139.35
139.352
139.353
139.354
139.355
139.356
139.357
139.358
139.359
139.36
139.36
139.361
139.362
139.362
139.363
139.363
139.363
139.364
138.957
138.971
138.985
138.998
139.011
139.024
139.036
139.048
139.059
139.071
139.082
139.093
139.104
139.115
139.125
139.136
139.146
139.157
139.167
139.177
139.187
139.197
139.207
139.217
139.226
139.236
139.245
139.254
139.262
139.271
139.278
139.286
139.293
139.3
139.306
139.312
139.318
139.323
139.328
139.332
139.336
139.34
139.343
139.346
139.349
139.351
139.353
139.355
139.356
139.358
139.359
139.36
139.361
139.362
139.362
139.363
139.363
139.364
139.364
139.365
138.841
138.852
138.863
138.875
138.887
138.899
138.911
138.924
138.936
138.948
138.961
138.973
138.985
138.997
139.009
139.02
139.032
139.043
139.055
139.066
139.077
139.088
139.099
139.11
139.121
139.132
139.142
139.153
139.163
139.173
139.183
139.193
139.203
139.212
139.222
139.231
139.24
139.248
139.256
139.264
139.271
139.279
139.285
139.292
139.298
139.303
139.309
139.314
139.318
139.323
139.327
139.33
139.334
139.337
139.34
139.342
139.345
139.347
139.349
139.351
)
;

boundaryField
{
    bottomwall
    {
        type            opaque;
        refValue        nonuniform List<scalar> 
60
(
143.315
145.512
146.764
147.542
148.056
148.413
148.672
148.871
149.031
149.169
149.293
149.411
149.525
149.634
149.739
149.841
149.944
150.048
150.155
150.266
150.379
150.494
150.609
150.723
150.834
150.948
151.071
151.214
151.384
151.57
151.742
151.854
151.861
151.76
151.617
151.59
151.91
152.831
154.552
157.148
160.527
164.434
168.51
172.364
175.655
178.13
179.645
180.139
179.608
178.088
175.65
172.415
168.566
164.345
160.038
155.917
152.185
148.914
145.933
142.631
)
;
        refGradient     uniform 0;
        valueFraction   uniform 1;