/*--------------------------------*- C++ -*----------------------------------*\
| =========                 |                                                 |
| \\      /  F ield         | OpenFOAM: The Open Source CFD Toolbox           |
|  \\    /   O peration     | Version:  2406                                  |
|   \\  /    A nd           | Website:  www.openfoam.com                      |
|    \\/     M anipulation  |                                                 |
\*---------------------------------------------------------------------------*/
FoamFile
{
    version     2.0;
    format      ascii;
    arch        "LSB;label=32;scalar=64";
    class       volScalarField;
    location    "10000";
    object      ILambda_16_0;
}
// * * * * * * * * * * * * * * * * * * * * * * * * * * * * * * * * * * * * * //

dimensions      [1 0 -3 0 0 0 0];

internalField   nonuniform List<scalar> 
3600
(
144.706
146.728
147.463
148.016
148.386
148.655
148.859
149.024
149.164
149.29
149.408
149.521
149.63
149.736
149.839
149.942
150.047
150.155
150.265
150.377
150.49
150.603
150.714
150.827
150.947
151.082
151.237
151.411
151.587
151.731
151.802
151.769
151.647
151.518
151.542
151.941
152.944
154.724
157.336
160.682
164.521
168.515
172.298
175.54
177.992
179.5
179.991
179.456
177.931
175.5
172.295
168.507
164.376
160.161
156.088
152.305
148.835
145.599
142.496
139.605
146.828
148.089
148.318
148.633
148.84
149.012
149.155
149.283
149.402
149.515
149.625
149.731
149.835
149.94
150.045
150.152
150.261
150.371
150.483
150.595
150.709
150.828
150.956
151.098
151.254
151.417
151.566
151.674
151.711
151.666
151.568
151.505
151.627
152.128
153.203
154.999
157.559
160.794
164.492
168.348
172.023
175.2
177.627
179.139
179.652
179.149
177.672
175.311
172.203
168.531
164.51
160.367
156.301
152.453
148.898
145.666
142.807
140.46
138.893
138.379
148.092
148.732
148.819
149.019
149.153
149.282
149.399
149.512
149.621
149.727
149.832
149.937
150.042
150.148
150.256
150.365
150.476
150.589
150.706
150.83
150.963
151.107
151.259
151.409
151.538
151.624
151.646
151.604
151.533
151.518
151.698
152.246
153.337
155.105
157.594
160.734
164.334
168.115
171.751
174.93
177.39
178.95
179.516
179.067
177.646
175.345
172.303
168.695
164.722
160.593
156.503
152.607
149.013
145.796
143.03
140.81
139.261
138.484
138.441
138.86
148.751
149.069
149.146
149.289
149.398
149.511
149.618
149.724
149.829
149.934
150.038
150.144
150.251
150.36
150.471
150.585
150.705
150.832
150.968
151.112
151.259
151.398
151.51
151.579
151.591
151.553
151.507
151.535
151.764
152.35
153.453
155.192
157.613
160.657
164.158
167.859
171.454
174.635
177.134
178.758
179.396
179.019
177.666
175.43
172.45
168.896
164.961
160.846
156.741
152.81
149.183
145.958
143.217
141.039
139.492
138.615
138.36
138.561
138.948
139.253
149.108
149.31
149.395
149.513
149.616
149.722
149.826
149.93
150.035
150.14
150.246
150.355
150.466
150.582
150.704
150.834
150.971
151.114
151.255
151.384
151.483
151.538
151.544
151.512
151.487
151.551
151.82
152.44
153.553
155.269
157.631
160.59
163.998
167.619
171.165
174.337
176.866
178.549
179.262
178.963
177.686
175.52
172.601
169.098
165.199
161.101
156.991
153.04
149.387
146.145
143.402
141.225
139.661
138.72
138.349
138.421
138.743
139.107
139.369
139.511
149.353
149.523
149.612
149.72
149.823
149.927
150.031
150.136
150.242
150.35
150.462
150.579
150.703
150.835
150.973
151.113
151.249
151.368
151.456
151.502
151.504
151.478
151.473
151.566
151.87
152.518
153.639
155.335
157.646
160.53
163.852
167.396
170.89
174.046
176.597
178.332
179.117
178.898
177.699
175.604
172.747
169.295
165.432
161.353
157.245
153.281
149.608
146.346
143.587
141.394
139.803
138.808
138.356
138.337
138.595
138.956
139.28
139.499
139.626
139.717
149.563
149.729
149.818
149.924
150.027
150.131
150.237
150.346
150.459
150.577
150.703
150.835
150.973
151.111
151.241
151.352
151.431
151.469
151.469
151.45
151.462
151.582
151.915
152.585
153.713
155.391
157.658
160.474
163.718
167.189
170.63
173.765
176.33
178.111
178.963
178.823
177.704
175.682
172.889
169.486
165.66
161.601
157.499
153.527
149.837
146.555
143.773
141.556
139.93
138.886
138.37
138.28
138.481
138.823
139.173
139.447
139.623
139.728
139.803
139.868
149.766
149.932
150.02
150.128
150.233
150.343
150.456
150.576
150.702
150.835
150.972
151.107
151.232
151.335
151.406
151.439
151.438
151.427
151.455
151.597
151.955
152.645
153.778
155.439
157.665
160.42
163.592
166.994
170.384
173.495
176.068
177.888
178.804
178.74
177.7
175.753
173.024
169.673
165.883
161.847
157.752
153.776
150.072
146.768
143.961
141.713
140.05
138.96
138.386
138.238
138.39
138.708
139.067
139.376
139.596
139.732
139.811
139.864
139.902
139.921
149.968
150.135
150.227
150.34
150.453
150.574
150.701
150.834
150.969
151.102
151.221
151.318
151.383
151.411
151.411
151.407
151.45
151.612
151.992
152.698
153.834
155.48
157.669
160.369
163.474
166.811
170.15
173.234
175.812
177.666
178.64
178.649
177.688
175.816
173.153
169.854
166.103
162.09
158.006
154.026
150.309
146.984
144.15
141.869
140.167
139.03
138.405
138.205
138.314
138.607
138.965
139.298
139.554
139.721
139.818
139.871
139.901
139.915
139.908
139.879
150.173
150.348
150.448
150.573
150.7
150.833
150.967
151.095
151.21
151.302
151.361
151.386
151.387
151.39
151.446
151.627
152.026
152.745
153.883
155.514
157.669
160.318
163.362
166.638
169.927
172.983
175.561
177.444
178.472
178.552
177.667
175.871
173.275
170.031
166.32
162.332
158.259
154.278
150.549
147.203
144.34
142.025
140.282
139.1
138.427
138.179
138.248
138.516
138.869
139.217
139.501
139.698
139.817
139.879
139.906
139.914
139.905
139.878
139.835
139.78
150.392
150.584
150.696
150.831
150.963
151.089
151.199
151.285
151.339
151.362
151.365
151.376
151.445
151.642
152.057
152.788
153.927
155.543
157.666
160.267
163.255
166.473
169.714
172.742
175.317
177.225
178.301
178.448
177.639
175.918
173.39
170.202
166.533
162.572
158.511
154.53
150.79
147.423
144.531
142.181
140.398
139.17
138.45
138.158
138.19
138.433
138.779
139.136
139.442
139.666
139.808
139.883
139.914
139.918
139.906
139.879
139.838
139.786
139.729
139.675
150.634
150.843
150.955
151.082
151.187
151.268
151.319
151.34
151.345
151.364
151.444
151.656
152.086
152.826
153.965
155.567
157.66
160.217
163.151
166.315
169.51
172.509
175.079
177.008
178.129
178.339
177.603
175.957
173.498
170.368
166.742
162.81
158.763
154.783
151.032
147.644
144.724
142.338
140.514
139.242
138.476
138.141
138.137
138.357
138.693
139.056
139.38
139.628
139.792
139.883
139.921
139.925
139.91
139.88
139.84
139.79
139.736
139.683
139.636
139.6
150.89
151.088
151.172
151.253
151.3
151.32
151.328
151.353
151.445
151.67
152.113
152.861
153.998
155.587
157.651
160.167
163.051
166.163
169.314
172.284
174.847
176.794
177.956
178.226
177.561
175.989
173.598
170.527
166.947
163.045
159.014
155.036
151.275
147.867
144.918
142.496
140.631
139.315
138.505
138.129
138.09
138.286
138.611
138.977
139.315
139.584
139.77
139.878
139.926
139.933
139.916
139.884
139.843
139.794
139.741
139.689
139.642
139.606
139.581
139.567
151.112
151.25
151.278
151.302
151.312
151.344
151.446
151.684
152.138
152.893
154.028
155.603
157.64
160.117
162.954
166.017
169.125
172.067
174.622
176.583
177.783
178.109
177.512
176.013
173.692
170.681
167.147
163.278
159.264
155.289
151.519
148.091
145.114
142.656
140.75
139.391
138.537
138.12
138.048
138.219
138.533
138.9
139.249
139.537
139.743
139.869
139.929
139.941
139.924
139.89
139.847
139.797
139.746
139.694
139.648
139.61
139.584
139.569
139.564
139.565
151.238
151.292
151.295
151.337
151.447
151.697
152.161
152.921
154.054
155.615
157.627
160.067
162.859
165.876
168.943
171.857
174.402
176.376
177.611
177.99
177.458
176.03
173.778
170.828
167.343
163.507
159.512
155.542
151.763
148.317
145.311
142.817
140.871
139.469
138.572
138.115
138.01
138.157
138.458
138.824
139.183
139.487
139.712
139.856
139.928
139.948
139.933
139.898
139.852
139.802
139.75
139.699
139.653
139.615
139.587
139.571
139.564
139.564
139.569
139.575
151.272
151.333
151.448
151.709
152.182
152.947
154.077
155.625
157.612
160.017
162.767
165.739
168.767
171.653
174.188
176.173
177.439
177.868
177.4
176.041
173.857
170.969
167.534
163.734
159.759
155.795
152.008
148.543
145.509
142.981
140.994
139.549
138.61
138.114
137.975
138.099
138.386
138.749
139.115
139.434
139.678
139.839
139.925
139.953
139.942
139.906
139.859
139.807
139.755
139.704
139.658
139.62
139.591
139.573
139.564
139.563
139.567
139.572
139.577
139.578
151.393
151.73
152.201
152.971
154.097
155.632
157.596
159.967
162.676
165.606
168.596
171.455
173.979
175.973
177.268
177.744
177.337
176.045
173.93
171.103
167.719
163.956
160.003
156.046
152.254
148.771
145.709
143.146
141.119
139.632
138.651
138.116
137.945
138.044
138.317
138.676
139.048
139.38
139.64
139.818
139.919
139.957
139.95
139.916
139.868
139.814
139.76
139.708
139.662
139.624
139.594
139.575
139.565
139.563
139.566
139.57
139.575
139.576
139.573
139.566
152.001
153.028
154.109
155.638
157.577
159.917
162.587
165.477
168.431
171.263
173.776
175.776
177.099
177.619
177.27
176.044
173.996
171.231
167.899
164.175
160.246
156.297
152.5
148.999
145.911
143.313
141.247
139.717
138.695
138.121
137.917
137.992
138.25
138.604
138.981
139.324
139.6
139.794
139.91
139.958
139.958
139.926
139.877
139.821
139.766
139.713
139.667
139.628
139.598
139.577
139.566
139.562
139.564
139.569
139.573
139.574
139.572
139.566
139.555
139.541
153.619
155.733
157.541
159.869
162.5
165.351
168.27
171.076
173.577
175.584
176.931
177.494
177.2
176.038
174.056
171.353
168.073
164.389
160.485
156.547
152.745
149.229
146.114
143.482
141.377
139.806
138.742
138.13
137.893
137.943
138.186
138.534
138.914
139.267
139.557
139.768
139.898
139.958
139.964
139.936
139.887
139.83
139.772
139.718
139.671
139.631
139.601
139.579
139.567
139.562
139.563
139.567
139.571
139.573
139.571
139.565
139.555
139.541
139.525
139.507
156.652
159.992
162.381
165.235
168.112
170.894
173.383
175.394
176.764
177.367
177.127
176.028
174.11
171.469
168.243
164.599
160.722
156.795
152.991
149.459
146.319
143.653
141.509
139.897
138.791
138.141
137.872
137.897
138.124
138.465
138.847
139.209
139.513
139.739
139.883
139.955
139.97
139.945
139.897
139.839
139.78
139.724
139.675
139.635
139.604
139.581
139.568
139.562
139.562
139.565
139.569
139.571
139.57
139.564
139.555
139.542
139.526
139.508
139.489
139.471
161.108
165.369
167.906
170.727
173.191
175.209
176.599
177.24
177.052
176.013
174.159
171.579
168.406
164.805
160.955
157.042
153.236
149.69
146.525
143.826
141.644
139.99
138.844
138.156
137.855
137.854
138.064
138.398
138.78
139.15
139.467
139.708
139.867
139.951
139.974
139.954
139.908
139.849
139.788
139.731
139.68
139.639
139.606
139.583
139.569
139.562
139.561
139.564
139.567
139.569
139.568
139.564
139.555
139.542
139.527
139.509
139.491
139.472
139.454
139.437
166.431
170.858
172.937
175.041
176.433
177.113
176.974
175.994
174.202
171.683
168.564
165.006
161.186
157.286
153.481
149.922
146.733
144.002
141.781
140.087
138.9
138.174
137.84
137.813
138.006
138.331
138.713
139.09
139.419
139.674
139.848
139.944
139.977
139.962
139.918
139.86
139.797
139.738
139.685
139.642
139.609
139.585
139.57
139.563
139.561
139.563
139.566
139.568
139.567
139.563
139.555
139.543
139.528
139.51
139.492
139.473
139.455
139.438
139.423
139.409
171.58
175.157
176.2
177.003
176.89
175.972
174.241
171.782
168.717
165.202
161.412
157.529
153.725
150.154
146.942
144.179
141.921
140.187
138.96
138.196
137.828
137.776
137.95
138.267
138.647
139.03
139.37
139.639
139.826
139.935
139.978
139.97
139.929
139.87
139.807
139.745
139.691
139.646
139.612
139.587
139.571
139.563
139.56
139.561
139.564
139.566
139.566
139.562
139.554
139.543
139.528
139.511
139.493
139.474
139.456
139.439
139.424
139.41
139.397
139.387
175.318
177.09
176.75
175.961
174.271
171.877
168.864
165.394
161.636
157.769
153.968
150.387
147.152
144.359
142.064
140.289
139.022
138.22
137.82
137.741
137.897
138.203
138.582
138.97
139.319
139.601
139.803
139.925
139.977
139.976
139.939
139.882
139.817
139.754
139.697
139.651
139.615
139.589
139.572
139.563
139.56
139.56
139.563
139.565
139.565
139.561
139.554
139.543
139.529
139.512
139.494
139.476
139.458
139.44
139.424
139.41
139.398
139.387
139.378
139.37
176.615
176.005
174.27
171.975
169.004
165.582
161.855
158.007
154.21
150.619
147.364
144.54
142.209
140.394
139.087
138.248
137.814
137.708
137.845
138.141
138.517
138.909
139.268
139.563
139.778
139.912
139.975
139.982
139.949
139.893
139.827
139.762
139.704
139.656
139.618
139.591
139.573
139.563
139.559
139.559
139.561
139.563
139.563
139.56
139.554
139.543
139.529
139.513
139.495
139.477
139.459
139.441
139.425
139.411
139.399
139.388
139.379
139.371
139.364
139.359
174.978
171.962
169.149
165.766
162.07
158.243
154.451
150.852
147.576
144.724
142.357
140.503
139.155
138.278
137.811
137.678
137.796
138.08
138.453
138.848
139.216
139.522
139.751
139.898
139.972
139.986
139.958
139.904
139.838
139.772
139.711
139.661
139.621
139.593
139.574
139.563
139.559
139.558
139.56
139.562
139.562
139.559
139.553
139.543
139.53
139.514
139.496
139.478
139.46
139.442
139.426
139.412
139.399
139.388
139.379
139.371
139.364
139.359
139.354
139.349
170.59
165.687
162.328
158.468
154.691
151.084
147.79
144.909
142.507
140.614
139.227
138.312
137.811
137.651
137.749
138.021
138.389
138.787
139.162
139.48
139.722
139.882
139.967
139.989
139.966
139.915
139.849
139.782
139.719
139.667
139.625
139.595
139.575
139.564
139.558
139.557
139.559
139.56
139.561
139.558
139.553
139.543
139.53
139.515
139.498
139.479
139.461
139.444
139.427
139.413
139.4
139.389
139.379
139.371
139.365
139.359
139.354
139.349
139.345
139.34
164.232
158.328
155.007
151.301
148.008
145.095
142.659
140.728
139.301
138.349
137.814
137.626
137.703
137.963
138.326
138.725
139.108
139.437
139.691
139.864
139.96
139.991
139.974
139.926
139.861
139.792
139.728
139.673
139.629
139.597
139.576
139.564
139.558
139.557
139.558
139.559
139.559
139.557
139.552
139.543
139.531
139.516
139.499
139.48
139.462
139.445
139.428
139.414
139.401
139.389
139.38
139.372
139.365
139.359
139.354
139.349
139.345
139.34
139.334
139.328
157.029
151.114
148.318
145.263
142.819
140.844
139.379
138.388
137.82
137.604
137.66
137.906
138.263
138.664
139.053
139.392
139.659
139.844
139.952
139.992
139.981
139.936
139.872
139.803
139.737
139.679
139.634
139.6
139.577
139.564
139.557
139.556
139.556
139.558
139.558
139.556
139.551
139.543
139.531
139.516
139.499
139.482
139.463
139.446
139.429
139.414
139.401
139.39
139.38
139.372
139.365
139.359
139.354
139.349
139.345
139.34
139.334
139.328
139.321
139.314
150.137
145.054
143.073
140.941
139.465
138.43
137.829
137.584
137.619
137.851
138.202
138.602
138.998
139.347
139.625
139.823
139.942
139.992
139.987
139.946
139.884
139.814
139.746
139.686
139.639
139.603
139.579
139.564
139.557
139.555
139.555
139.557
139.557
139.555
139.551
139.543
139.531
139.517
139.5
139.483
139.465
139.447
139.43
139.415
139.402
139.39
139.381
139.372
139.365
139.359
139.354
139.349
139.345
139.34
139.334
139.328
139.321
139.314
139.305
139.296
144.463
140.737
139.633
138.455
137.846
137.566
137.58
137.797
138.141
138.541
138.942
139.3
139.59
139.8
139.931
139.99
139.993
139.956
139.895
139.825
139.756
139.694
139.644
139.606
139.58
139.565
139.557
139.554
139.554
139.555
139.556
139.554
139.55
139.542
139.531
139.517
139.501
139.484
139.466
139.448
139.432
139.416
139.403
139.391
139.381
139.373
139.365
139.359
139.354
139.349
139.345
139.34
139.334
139.328
139.322
139.314
139.305
139.296
139.286
139.276
140.5
138.28
137.923
137.535
137.548
137.744
138.081
138.48
138.885
139.252
139.554
139.776
139.918
139.987
139.997
139.965
139.907
139.836
139.766
139.702
139.65
139.61
139.582
139.565
139.556
139.553
139.553
139.554
139.555
139.553
139.549
139.542
139.531
139.518
139.502
139.485
139.467
139.449
139.433
139.417
139.403
139.392
139.381
139.373
139.366
139.36
139.354
139.349
139.345
139.34
139.334
139.328
139.322
139.314
139.306
139.296
139.287
139.277
139.267
139.258
138.3
137.402
137.551
137.682
138.025
138.418
138.828
139.203
139.516
139.75
139.904
139.983
140.001
139.973
139.918
139.848
139.776
139.711
139.656
139.614
139.584
139.566
139.556
139.552
139.552
139.553
139.553
139.552
139.549
139.542
139.531
139.518
139.503
139.486
139.468
139.45
139.434
139.418
139.404
139.392
139.382
139.373
139.366
139.36
139.354
139.349
139.345
139.34
139.334
139.328
139.322
139.314
139.306
139.297
139.287
139.277
139.268
139.258
139.25
139.242
137.56
137.597
137.982
138.352
138.773
139.153
139.477
139.723
139.888
139.977
140.003
139.981
139.928
139.86
139.787
139.72
139.662
139.618
139.587
139.567
139.556
139.551
139.55
139.551
139.552
139.551
139.548
139.541
139.531
139.519
139.504
139.487
139.469
139.452
139.435
139.419
139.405
139.393
139.382
139.374
139.366
139.36
139.354
139.349
139.345
139.34
139.334
139.329
139.322
139.314
139.306
139.297
139.288
139.278
139.268
139.259
139.25
139.242
139.235
139.23
137.784
138.311
138.715
139.102
139.438
139.694
139.871
139.97
140.004
139.988
139.939
139.871
139.798
139.729
139.67
139.623
139.589
139.568
139.555
139.55
139.549
139.55
139.551
139.55
139.547
139.541
139.531
139.519
139.504
139.488
139.47
139.453
139.436
139.42
139.406
139.394
139.383
139.374
139.366
139.36
139.354
139.349
139.345
139.34
139.334
139.329
139.322
139.315
139.306
139.297
139.288
139.278
139.269
139.259
139.251
139.243
139.236
139.23
139.225
139.221
138.457
139.094
139.387
139.666
139.852
139.962
140.005
139.995
139.949
139.883
139.809
139.739
139.677
139.628
139.592
139.569
139.555
139.549
139.548
139.549
139.55
139.549
139.546
139.54
139.531
139.519
139.505
139.489
139.471
139.454
139.437
139.421
139.407
139.394
139.383
139.374
139.367
139.36
139.355
139.35
139.345
139.34
139.334
139.329
139.322
139.315
139.307
139.298
139.288
139.279
139.269
139.26
139.251
139.243
139.236
139.23
139.226
139.222
139.218
139.215
139.171
139.679
139.822
139.955
140.004
140.001
139.959
139.894
139.821
139.749
139.685
139.634
139.596
139.57
139.556
139.548
139.547
139.547
139.548
139.548
139.545
139.54
139.531
139.52
139.505
139.489
139.472
139.455
139.438
139.422
139.408
139.395
139.384
139.375
139.367
139.36
139.355
139.35
139.345
139.34
139.334
139.329
139.322
139.315
139.307
139.298
139.289
139.279
139.27
139.26
139.252
139.244
139.237
139.231
139.226
139.222
139.218
139.215
139.213
139.21
139.694
139.977
139.993
140.008
139.968
139.906
139.832
139.759
139.693
139.64
139.599
139.572
139.556
139.548
139.545
139.546
139.547
139.547
139.545
139.539
139.531
139.52
139.506
139.49
139.473
139.456
139.439
139.423
139.409
139.396
139.385
139.375
139.367
139.36
139.355
139.35
139.345
139.34
139.335
139.329
139.322
139.315
139.307
139.298
139.289
139.28
139.27
139.261
139.252
139.244
139.237
139.231
139.226
139.222
139.218
139.215
139.213
139.21
139.206
139.202
139.953
140.027
139.971
139.918
139.843
139.77
139.702
139.646
139.603
139.574
139.556
139.547
139.544
139.544
139.545
139.546
139.544
139.539
139.531
139.52
139.507
139.491
139.474
139.457
139.44
139.424
139.409
139.396
139.385
139.375
139.367
139.361
139.355
139.35
139.345
139.34
139.335
139.329
139.322
139.315
139.307
139.299
139.289
139.28
139.271
139.261
139.253
139.245
139.238
139.231
139.226
139.222
139.219
139.215
139.212
139.209
139.206
139.202
139.197
139.192
139.99
139.931
139.853
139.781
139.711
139.653
139.608
139.577
139.557
139.547
139.543
139.543
139.544
139.544
139.543
139.538
139.531
139.52
139.507
139.492
139.475
139.458
139.441
139.425
139.41
139.397
139.386
139.376
139.368
139.361
139.355
139.35
139.345
139.34
139.335
139.329
139.322
139.315
139.307
139.299
139.29
139.28
139.271
139.262
139.253
139.245
139.238
139.232
139.227
139.222
139.219
139.215
139.212
139.209
139.206
139.202
139.197
139.192
139.186
139.179
139.899
139.786
139.721
139.66
139.613
139.579
139.558
139.546
139.542
139.541
139.542
139.543
139.542
139.538
139.531
139.52
139.508
139.493
139.476
139.459
139.442
139.426
139.411
139.398
139.386
139.376
139.368
139.361
139.355
139.35
139.345
139.34
139.335
139.329
139.322
139.315
139.308
139.299
139.29
139.281
139.272
139.262
139.254
139.246
139.238
139.232
139.227
139.222
139.219
139.215
139.212
139.209
139.206
139.202
139.197
139.192
139.186
139.179
139.172
139.165
139.766
139.659
139.62
139.582
139.559
139.546
139.541
139.54
139.541
139.542
139.541
139.537
139.53
139.521
139.508
139.493
139.477
139.46
139.443
139.427
139.412
139.399
139.387
139.377
139.368
139.361
139.355
139.35
139.345
139.34
139.335
139.329
139.323
139.316
139.308
139.299
139.291
139.281
139.272
139.263
139.254
139.246
139.239
139.233
139.227
139.223
139.219
139.216
139.212
139.209
139.206
139.202
139.197
139.192
139.186
139.18
139.173
139.165
139.158
139.15
139.651
139.578
139.562
139.546
139.54
139.538
139.539
139.54
139.539
139.536
139.53
139.521
139.508
139.494
139.478
139.461
139.444
139.428
139.413
139.4
139.388
139.377
139.369
139.361
139.355
139.35
139.345
139.34
139.335
139.329
139.323
139.316
139.308
139.3
139.291
139.282
139.272
139.263
139.255
139.247
139.239
139.233
139.227
139.223
139.219
139.216
139.212
139.209
139.206
139.202
139.198
139.192
139.186
139.18
139.173
139.165
139.158
139.151
139.144
139.138
139.578
139.542
139.54
139.537
139.538
139.539
139.538
139.535
139.53
139.521
139.509
139.495
139.479
139.462
139.446
139.429
139.414
139.4
139.388
139.378
139.369
139.362
139.355
139.35
139.345
139.34
139.335
139.329
139.323
139.316
139.308
139.3
139.291
139.282
139.273
139.264
139.255
139.247
139.24
139.233
139.228
139.223
139.219
139.216
139.212
139.209
139.206
139.202
139.198
139.192
139.187
139.18
139.173
139.166
139.158
139.151
139.144
139.138
139.132
139.127
139.544
139.533
139.537
139.537
139.537
139.534
139.529
139.52
139.509
139.495
139.48
139.463
139.447
139.43
139.415
139.401
139.389
139.378
139.369
139.362
139.356
139.35
139.345
139.34
139.335
139.329
139.323
139.316
139.308
139.3
139.292
139.283
139.273
139.264
139.256
139.247
139.24
139.234
139.228
139.223
139.219
139.216
139.212
139.209
139.206
139.202
139.198
139.192
139.187
139.18
139.173
139.166
139.159
139.152
139.145
139.138
139.133
139.128
139.123
139.12
139.535
139.535
139.536
139.533
139.529
139.52
139.509
139.496
139.481
139.464
139.448
139.431
139.416
139.402
139.39
139.379
139.37
139.362
139.356
139.35
139.345
139.34
139.335
139.329
139.323
139.316
139.309
139.301
139.292
139.283
139.274
139.265
139.256
139.248
139.241
139.234
139.228
139.223
139.219
139.216
139.212
139.209
139.206
139.202
139.198
139.193
139.187
139.18
139.174
139.166
139.159
139.152
139.145
139.139
139.133
139.128
139.124
139.12
139.117
139.114
139.534
139.533
139.528
139.52
139.51
139.496
139.481
139.465
139.449
139.432
139.417
139.403
139.39
139.38
139.37
139.362
139.356
139.35
139.345
139.34
139.335
139.329
139.323
139.316
139.309
139.301
139.292
139.283
139.274
139.265
139.257
139.248
139.241
139.234
139.229
139.224
139.22
139.216
139.212
139.209
139.206
139.202
139.198
139.193
139.187
139.181
139.174
139.167
139.16
139.152
139.146
139.139
139.133
139.128
139.124
139.12
139.117
139.113
139.111
139.108
139.529
139.52
139.51
139.497
139.482
139.466
139.45
139.433
139.418
139.404
139.391
139.38
139.371
139.363
139.356
139.35
139.345
139.34
139.335
139.329
139.323
139.316
139.309
139.301
139.293
139.284
139.275
139.266
139.257
139.249
139.241
139.235
139.229
139.224
139.22
139.216
139.213
139.209
139.206
139.202
139.198
139.193
139.187
139.181
139.174
139.167
139.16
139.153
139.146
139.14
139.134
139.129
139.124
139.12
139.117
139.113
139.11
139.108
139.105
139.103
139.514
139.497
139.483
139.467
139.451
139.434
139.419
139.405
139.392
139.381
139.371
139.363
139.356
139.35
139.345
139.34
139.335
139.329
139.323
139.316
139.309
139.301
139.293
139.284
139.275
139.266
139.257
139.249
139.242
139.235
139.229
139.224
139.22
139.216
139.213
139.209
139.206
139.202
139.198
139.193
139.187
139.181
139.174
139.167
139.16
139.153
139.146
139.14
139.134
139.129
139.124
139.12
139.117
139.113
139.11
139.108
139.105
139.103
139.103
139.103
139.49
139.467
139.452
139.435
139.42
139.406
139.393
139.381
139.372
139.363
139.356
139.35
139.345
139.34
139.335
139.329
139.323
139.317
139.309
139.302
139.293
139.284
139.275
139.267
139.258
139.25
139.242
139.235
139.23
139.224
139.22
139.216
139.213
139.209
139.206
139.202
139.198
139.193
139.187
139.181
139.175
139.168
139.161
139.154
139.147
139.14
139.134
139.129
139.124
139.12
139.117
139.113
139.11
139.108
139.105
139.103
139.103
139.104
139.107
139.113
139.461
139.435
139.421
139.406
139.393
139.382
139.372
139.364
139.357
139.35
139.345
139.34
139.335
139.329
139.323
139.317
139.31
139.302
139.293
139.285
139.276
139.267
139.258
139.25
139.243
139.236
139.23
139.225
139.22
139.216
139.213
139.209
139.206
139.202
139.198
139.193
139.187
139.181
139.175
139.168
139.161
139.154
139.147
139.141
139.135
139.129
139.125
139.12
139.117
139.113
139.11
139.107
139.105
139.104
139.103
139.104
139.108
139.113
139.122
139.133
139.43
139.405
139.395
139.382
139.373
139.364
139.357
139.351
139.345
139.34
139.335
139.329
139.323
139.317
139.31
139.302
139.294
139.285
139.276
139.267
139.259
139.251
139.243
139.236
139.23
139.225
139.22
139.216
139.213
139.209
139.206
139.202
139.198
139.193
139.188
139.182
139.175
139.168
139.161
139.154
139.147
139.141
139.135
139.13
139.125
139.121
139.117
139.113
139.11
139.107
139.105
139.104
139.103
139.105
139.108
139.114
139.122
139.132
139.145
139.157
139.402
139.382
139.374
139.364
139.357
139.351
139.345
139.34
139.335
139.329
139.323
139.317
139.31
139.302
139.294
139.285
139.277
139.268
139.259
139.251
139.243
139.237
139.231
139.225
139.221
139.216
139.213
139.209
139.206
139.202
139.198
139.193
139.188
139.182
139.175
139.169
139.162
139.155
139.148
139.141
139.135
139.13
139.125
139.121
139.117
139.113
139.11
139.107
139.105
139.104
139.104
139.105
139.108
139.114
139.122
139.132
139.144
139.156
139.168
139.177
139.379
139.363
139.358
139.351
139.345
139.34
139.335
139.329
139.323
139.317
139.31
139.302
139.294
139.286
139.277
139.268
139.26
139.252
139.244
139.237
139.231
139.225
139.221
139.217
139.213
139.209
139.206
139.202
139.198
139.193
139.188
139.182
139.176
139.169
139.162
139.155
139.148
139.142
139.136
139.13
139.125
139.121
139.117
139.113
139.11
139.107
139.105
139.104
139.104
139.105
139.109
139.114
139.122
139.132
139.143
139.155
139.166
139.175
139.181
139.184
139.362
139.35
139.345
139.34
139.335
139.329
139.323
139.317
139.31
139.303
139.295
139.286
139.277
139.269
139.26
139.252
139.244
139.237
139.231
139.226
139.221
139.217
139.213
139.209
139.206
139.202
139.198
139.193
139.188
139.182
139.176
139.169
139.162
139.155
139.149
139.142
139.136
139.131
139.125
139.121
139.117
139.113
139.11
139.107
139.105
139.104
139.104
139.105
139.109
139.114
139.122
139.132
139.143
139.154
139.165
139.174
139.18
139.183
139.182
139.178
139.348
139.339
139.335
139.329
139.323
139.317
139.31
139.303
139.295
139.286
139.278
139.269
139.261
139.252
139.245
139.238
139.231
139.226
139.221
139.217
139.213
139.209
139.206
139.202
139.198
139.193
139.188
139.182
139.176
139.169
139.163
139.156
139.149
139.143
139.136
139.131
139.126
139.121
139.117
139.113
139.11
139.107
139.105
139.104
139.104
139.106
139.109
139.115
139.122
139.132
139.142
139.153
139.164
139.173
139.179
139.182
139.182
139.178
139.171
139.162
139.337
139.329
139.324
139.317
139.311
139.303
139.295
139.287
139.278
139.27
139.261
139.253
139.245
139.238
139.232
139.226
139.221
139.217
139.213
139.21
139.206
139.202
139.198
139.193
139.188
139.183
139.176
139.17
139.163
139.156
139.149
139.143
139.137
139.131
139.126
139.121
139.117
139.113
139.11
139.107
139.105
139.104
139.104
139.106
139.109
139.115
139.122
139.132
139.142
139.153
139.163
139.172
139.179
139.182
139.182
139.178
139.172
139.163
139.152
139.139
139.326
139.316
139.31
139.303
139.295
139.287
139.278
139.27
139.261
139.253
139.245
139.238
139.232
139.226
139.221
139.217
139.213
139.209
139.206
139.202
139.198
139.193
139.188
139.182
139.176
139.17
139.163
139.156
139.15
139.143
139.137
139.131
139.126
139.122
139.117
139.114
139.111
139.108
139.106
139.105
139.105
139.106
139.11
139.115
139.122
139.131
139.141
139.151
139.161
139.17
139.176
139.179
139.18
139.177
139.171
139.162
139.151
139.138
139.122
139.103
139.316
139.305
139.298
139.289
139.281
139.272
139.263
139.255
139.247
139.24
139.233
139.228
139.223
139.218
139.214
139.211
139.207
139.203
139.199
139.195
139.19
139.184
139.178
139.172
139.165
139.158
139.151
139.144
139.138
139.132
139.127
139.122
139.117
139.113
139.11
139.106
139.104
139.103
139.103
139.104
139.108
139.113
139.121
139.13
139.14
139.151
139.162
139.171
139.179
139.183
139.185
139.183
139.178
139.171
139.16
139.147
139.13
139.109
139.084
139.053
139.292
139.279
139.272
139.263
139.255
139.247
139.24
139.234
139.228
139.223
139.218
139.214
139.209
139.206
139.202
139.197
139.193
139.188
139.183
139.177
139.171
139.164
139.158
139.151
139.145
139.138
139.133
139.127
139.122
139.118
139.114
139.111
139.109
139.107
139.106
139.107
139.108
139.112
139.117
139.123
139.131
139.14
139.149
139.158
139.166
139.172
139.176
139.177
139.175
139.17
139.162
139.151
139.137
139.119
139.099
139.075
139.048
139.018
138.986
138.954
)
;

boundaryField
{
    bottomwall
    {
        type            opaque;
        refValue        nonuniform List<scalar> 
60
(
143.315
145.512
146.764
147.542
148.056
148.413
148.672
148.871
149.031
149.169
149.293
149.411
149.525
149.634
149.739
149.841
149.944
150.048
150.155
150.266
150.379
150.494
150.609
150.723
150.834
150.948
151.071
151.214
151.384
151.57
151.742
151.854
151.861
151.76
151.617
151.59
151.91
152.831
154.552
157.148
160.527
164.434
168.51
172.364
175.655
178.13
179.645
180.139
179.608
178.088
175.65
172.415
168.566
164.345
160.038
155.917
152.185
148.914
145.933
142.631
)
;
        refGradient     uniform 0;
        valueFraction   uniform 1;
        source          uniform 0;