/*--------------------------------*- C++ -*----------------------------------*\
| =========                 |                                                 |
| \\      /  F ield         | OpenFOAM: The Open Source CFD Toolbox           |
|  \\    /   O peration     | Version:  2406                                  |
|   \\  /    A nd           | Website:  www.openfoam.com                      |
|    \\/     M anipulation  |                                                 |
\*---------------------------------------------------------------------------*/
FoamFile
{
    version     2.0;
    format      ascii;
    arch        "LSB;label=32;scalar=64";
    class       volScalarField;
    location    "10000";
    object      ILambda_1_0;
}
// * * * * * * * * * * * * * * * * * * * * * * * * * * * * * * * * * * * * * //

dimensions      [1 0 -3 0 0 0 0];

internalField   nonuniform List<scalar> 
3600
(
141.868
145.051
146.569
147.399
147.945
148.333
148.614
148.826
148.994
149.136
149.263
149.382
149.496
149.606
149.712
149.815
149.918
150.022
150.128
150.237
150.35
150.465
150.58
150.694
150.806
150.918
151.038
151.176
151.339
151.522
151.701
151.831
151.868
151.793
151.653
151.581
151.792
152.54
154.044
156.415
159.605
163.402
167.466
171.409
174.87
177.573
179.343
180.102
179.832
178.56
176.348
173.304
169.594
165.446
161.137
156.947
153.102
149.713
146.706
143.108
140.127
143.488
145.841
147.061
147.721
148.158
148.481
148.725
148.913
149.066
149.2
149.322
149.439
149.551
149.659
149.763
149.866
149.969
150.073
150.181
150.292
150.406
150.521
150.636
150.749
150.861
150.976
151.104
151.254
151.428
151.611
151.771
151.858
151.84
151.726
151.604
151.65
152.102
153.202
155.123
157.903
161.413
165.373
169.414
173.155
176.272
178.536
179.819
180.076
179.312
177.572
174.939
171.55
167.601
163.346
159.07
155.029
151.396
148.306
144.208
139.311
141.829
144.662
146.502
147.452
147.976
148.335
148.61
148.823
148.992
149.134
149.261
149.38
149.494
149.604
149.71
149.814
149.916
150.02
150.126
150.235
150.348
150.463
150.578
150.692
150.804
150.916
151.037
151.175
151.337
151.518
151.694
151.823
151.86
151.79
151.659
151.598
151.817
152.562
154.051
156.394
159.55
163.314
167.355
171.29
174.76
177.483
179.281
180.066
179.821
178.572
176.383
173.361
169.672
165.543
161.246
157.061
153.188
149.982
145.457
139.033
140.5
143.22
145.609
147.036
147.764
148.182
148.483
148.721
148.911
149.065
149.198
149.321
149.437
149.548
149.656
149.761
149.864
149.967
150.072
150.179
150.29
150.404
150.519
150.634
150.746
150.858
150.974
151.103
151.252
151.425
151.607
151.764
151.851
151.834
151.725
151.61
151.662
152.112
153.202
155.103
157.855
161.336
165.275
169.307
173.054
176.188
178.477
179.789
180.071
179.33
177.61
174.996
171.625
167.691
163.448
159.179
155.095
151.746
146.841
139.019
139.636
141.798
144.414
146.369
147.457
148.013
148.352
148.61
148.82
148.99
149.133
149.26
149.378
149.492
149.602
149.708
149.812
149.914
150.018
150.124
150.233
150.346
150.46
150.575
150.689
150.801
150.914
151.035
151.174
151.336
151.516
151.689
151.816
151.854
151.786
151.66
151.605
151.825
152.565
154.038
156.358
159.487
163.227
167.253
171.188
174.67
177.415
179.24
180.052
179.832
178.604
176.433
173.428
169.755
165.638
161.356
157.11
153.609
148.347
139.122
139.19
140.618
143.072
145.416
146.968
147.786
148.213
148.494
148.72
148.907
149.063
149.197
149.319
149.435
149.546
149.654
149.759
149.862
149.965
150.07
150.177
150.288
150.402
150.517
150.631
150.744
150.856
150.972
151.101
151.251
151.423
151.604
151.759
151.845
151.829
151.724
151.614
151.669
152.118
153.197
155.079
157.806
161.261
165.18
169.205
172.957
176.109
178.423
179.762
180.07
179.351
177.651
175.056
171.701
167.78
163.558
159.213
155.575
149.968
139.265
139.045
139.786
141.776
144.24
146.235
147.432
148.041
148.375
148.615
148.817
148.987
149.131
149.258
149.377
149.49
149.6
149.706
149.81
149.913
150.016
150.122
150.231
150.344
150.458
150.573
150.687
150.799
150.912
151.033
151.172
151.334
151.513
151.685
151.81
151.848
151.783
151.661
151.61
151.832
152.566
154.025
156.322
159.425
163.141
167.154
171.087
174.581
177.348
179.199
180.039
179.843
178.636
176.484
173.496
169.836
165.748
161.375
157.635
151.703
139.392
139.085
139.302
140.684
142.97
145.258
146.885
147.787
148.241
148.511
148.722
148.904
149.06
149.195
149.318
149.433
149.544
149.652
149.757
149.86
149.963
150.068
150.175
150.286
150.4
150.514
150.629
150.742
150.854
150.97
151.099
151.249
151.421
151.6
151.754
151.839
151.824
151.722
151.617
151.676
152.123
153.192
155.055
157.757
161.187
165.087
169.103
172.86
176.03
178.369
179.735
180.069
179.373
177.693
175.115
171.773
167.887
163.563
159.775
153.548
139.452
139.207
139.104
139.885
141.756
144.104
146.109
147.39
148.057
148.4
148.626
148.816
148.983
149.129
149.257
149.375
149.488
149.598
149.704
149.808
149.911
150.014
150.12
150.229
150.342
150.456
150.571
150.684
150.796
150.91
151.032
151.171
151.332
151.51
151.68
151.804
151.842
151.779
151.662
151.616
151.839
152.567
154.012
156.287
159.364
163.057
167.055
170.986
174.491
177.28
179.158
180.024
179.853
178.667
176.535
173.56
169.94
165.738
161.967
155.494
139.42
139.327
139.099
139.393
140.727
142.888
145.122
146.798
147.774
148.264
148.53
148.727
148.902
149.057
149.193
149.316
149.432
149.543
149.65
149.755
149.858
149.961
150.066
150.173
150.284
150.397
150.512
150.626
150.739
150.852
150.968
151.098
151.248
151.419
151.596
151.748
151.833
151.819
151.721
151.621
151.682
152.128
153.187
155.032
157.709
161.114
164.994
169.002
172.764
175.95
178.313
179.706
180.067
179.394
177.735
175.17
171.872
167.864
164.18
157.528
139.32
139.388
139.187
139.165
139.959
141.737
143.991
145.993
147.338
148.063
148.423
148.64
148.818
148.98
149.125
149.255
149.374
149.487
149.596
149.702
149.806
149.909
150.012
150.118
150.227
150.339
150.454
150.568
150.682
150.794
150.908
151.03
151.169
151.33
151.507
151.676
151.799
151.836
151.776
151.663
151.621
151.845
152.568
153.998
156.252
159.303
162.973
166.957
170.886
174.402
177.211
179.115
180.009
179.862
178.699
176.58
173.653
169.903
166.377
159.63
139.205
139.375
139.284
139.122
139.468
140.758
142.819
145.002
146.71
147.751
148.28
148.551
148.736
148.901
149.053
149.19
149.314
149.43
149.541
149.648
149.753
149.856
149.96
150.064
150.172
150.282
150.395
150.51
150.624
150.737
150.849
150.966
151.096
151.246
151.416
151.593
151.743
151.827
151.814
151.719
151.624
151.689
152.132
153.182
155.009
157.662
161.042
164.902
168.901
172.668
175.87
178.257
179.677
180.063
179.415
177.77
175.256
171.821
168.518
161.773
139.122
139.307
139.338
139.175
139.219
140.018
141.719
143.893
145.885
147.28
148.061
148.444
148.656
148.822
148.978
149.122
149.252
149.372
149.485
149.594
149.7
149.804
149.907
150.011
150.116
150.225
150.337
150.451
150.566
150.679
150.792
150.906
151.028
151.167
151.328
151.504
151.671
151.793
151.83
151.772
151.664
151.626
151.851
152.569
153.985
156.217
159.244
162.891
166.859
170.786
174.312
177.142
179.072
179.992
179.872
178.724
176.659
173.589
170.567
163.928
139.088
139.223
139.335
139.248
139.144
139.53
140.782
142.76
144.895
146.624
147.72
148.29
148.571
148.747
148.902
149.05
149.187
149.312
149.428
149.539
149.646
149.751
149.854
149.958
150.062
150.17
150.28
150.393
150.508
150.622
150.734
150.847
150.964
151.094
151.244
151.414
151.589
151.738
151.821
151.809
151.718
151.627
151.695
152.136
153.177
154.985
157.615
160.97
164.811
168.801
172.572
175.789
178.2
179.647
180.061
179.428
177.84
175.18
172.49
166.061
139.091
139.154
139.288
139.295
139.166
139.264
140.065
141.702
143.806
145.784
147.22
148.051
148.461
148.674
148.829
148.977
149.118
149.25
149.37
149.483
149.592
149.698
149.802
149.905
150.009
150.115
150.223
150.335
150.449
150.564
150.677
150.789
150.904
151.026
151.166
151.326
151.501
151.667
151.787
151.825
151.769
151.664
151.631
151.857
152.569
153.972
156.183
159.185
162.809
166.763
170.687
174.222
177.072
179.027
179.977
179.873
178.785
176.57
174.253
168.139
139.11
139.115
139.226
139.3
139.219
139.163
139.58
140.8
142.707
144.797
146.54
147.684
148.295
148.59
148.761
148.905
149.047
149.184
149.31
149.426
149.537
149.644
149.749
149.853
149.956
150.06
150.168
150.278
150.391
150.505
150.619
150.732
150.845
150.962
151.093
151.242
151.412
151.585
151.733
151.815
151.805
151.716
151.63
151.7
152.14
153.172
154.963
157.569
160.9
164.721
168.702
172.475
175.708
178.141
179.617
180.049
179.48
177.741
175.83
170.127
139.129
139.104
139.17
139.271
139.26
139.161
139.302
140.103
141.686
143.728
145.689
147.157
148.035
148.475
148.691
148.838
148.977
149.115
149.246
149.368
149.481
149.59
149.696
149.8
149.903
150.007
150.113
150.221
150.333
150.447
150.561
150.675
150.787
150.901
151.024
151.164
151.324
151.498
151.663
151.782
151.819
151.766
151.665
151.635
151.863
152.57
153.959
156.149
159.126
162.728
166.667
170.587
174.133
177.001
178.984
179.951
179.913
178.676
177.198
171.995
139.145
139.109
139.132
139.225
139.272
139.197
139.181
139.622
140.814
142.659
144.708
146.458
147.643
148.295
148.607
148.775
148.91
149.046
149.18
149.307
149.424
149.535
149.643
149.747
149.851
149.954
150.059
150.166
150.276
150.389
150.503
150.617
150.73
150.842
150.96
151.091
151.241
151.409
151.582
151.728
151.809
151.8
151.715
151.633
151.706
152.144
153.166
154.94
157.524
160.83
164.632
168.603
172.38
175.626
178.084
179.577
180.076
179.361
178.337
173.713
139.163
139.123
139.114
139.179
139.256
139.233
139.158
139.335
140.135
141.67
143.658
145.6
147.093
148.015
148.484
148.709
148.848
148.978
149.112
149.243
149.365
149.48
149.588
149.694
149.798
149.901
150.005
150.111
150.219
150.331
150.445
150.559
150.672
150.785
150.899
151.023
151.162
151.322
151.495
151.658
151.776
151.814
151.762
151.666
151.64
151.868
152.57
153.946
156.116
159.069
162.648
166.572
170.489
174.042
176.932
178.93
179.964
179.787
179.23
175.255
139.19
139.14
139.112
139.143
139.222
139.249
139.181
139.197
139.658
140.824
142.616
144.625
146.378
147.6
148.29
148.622
148.79
148.916
149.045
149.177
149.304
149.422
149.534
149.641
149.745
149.849
149.952
150.057
150.164
150.274
150.387
150.501
150.614
150.727
150.84
150.958
151.089
151.239
151.407
151.578
151.723
151.804
151.796
151.714
151.635
151.711
152.148
153.161
154.918
157.478
160.761
164.544
168.505
172.283
175.546
178.017
179.576
179.944
179.865
176.598
139.234
139.164
139.12
139.122
139.183
139.241
139.211
139.158
139.363
140.161
141.654
143.593
145.516
147.03
147.99
148.491
148.725
148.86
148.981
149.11
149.239
149.362
149.477
149.587
149.692
149.796
149.899
150.003
150.109
150.217
150.329
150.442
150.556
150.67
150.782
150.897
151.021
151.161
151.32
151.492
151.654
151.771
151.809
151.759
151.667
151.644
151.873
152.57
153.933
156.083
159.012
162.569
166.478
170.39
173.954
176.853
178.914
179.827
180.231
177.722
139.294
139.197
139.137
139.114
139.15
139.216
139.229
139.168
139.212
139.687
140.832
142.575
144.548
146.302
147.555
148.282
148.635
148.805
148.924
149.045
149.173
149.3
149.42
149.532
149.639
149.743
149.847
149.95
150.055
150.162
150.272
150.384
150.498
150.612
150.725
150.838
150.956
151.087
151.237
151.404
151.574
151.718
151.798
151.791
151.712
151.638
151.717
152.151
153.155
154.896
157.434
160.693
164.456
168.407
172.189
175.456
177.986
179.434
180.321
178.61
139.364
139.243
139.163
139.119
139.127
139.184
139.227
139.194
139.159
139.387
140.182
141.639
143.533
145.436
146.966
147.963
148.493
148.74
148.872
148.986
149.108
149.236
149.359
149.475
149.585
149.691
149.794
149.897
150.001
150.107
150.215
150.327
150.44
150.554
150.667
150.78
150.895
151.019
151.159
151.318
151.489
151.649
151.765
151.803
151.756
151.667
151.648
151.878
152.569
153.92
156.05
158.956
162.491
166.384
170.294
173.856
176.807
178.77
180.131
179.248
139.43
139.302
139.2
139.136
139.117
139.154
139.21
139.212
139.159
139.226
139.713
140.837
142.537
144.476
146.227
147.508
148.269
148.645
148.82
148.933
149.046
149.171
149.297
149.417
149.53
149.637
149.742
149.845
149.948
150.053
150.16
150.27
150.382
150.496
150.61
150.722
150.836
150.954
151.086
151.235
151.402
151.571
151.713
151.793
151.787
151.711
151.641
151.722
152.154
153.149
154.874
157.39
160.625
164.369
168.312
172.088
175.397
177.843
179.66
179.625
139.478
139.367
139.251
139.164
139.121
139.131
139.183
139.215
139.179
139.161
139.409
140.2
141.624
143.476
145.36
146.904
147.933
148.493
148.754
148.885
148.991
149.107
149.232
149.356
149.473
149.583
149.689
149.792
149.896
149.999
150.105
150.213
150.325
150.438
150.552
150.665
150.778
150.893
151.017
151.157
151.316
151.486
151.645
151.76
151.798
151.753
151.668
151.653
151.883
152.569
153.907
156.018
158.9
162.413
166.292
170.19
173.787
176.666
178.913
179.733
139.494
139.425
139.311
139.206
139.137
139.12
139.155
139.202
139.197
139.152
139.238
139.735
140.84
142.502
144.407
146.155
147.46
148.254
148.653
148.835
148.943
149.049
149.168
149.293
149.414
149.527
149.635
149.74
149.843
149.946
150.051
150.158
150.268
150.38
150.494
150.607
150.72
150.834
150.953
151.084
151.233
151.399
151.567
151.708
151.787
151.783
151.71
151.643
151.726
152.157
153.144
154.852
157.347
160.558
164.285
168.21
172.009
175.263
177.9
179.568
139.474
139.466
139.373
139.259
139.168
139.123
139.134
139.18
139.203
139.167
139.164
139.428
140.214
141.608
143.423
145.288
146.842
147.9
148.49
148.767
148.899
148.998
149.107
149.229
149.352
149.47
149.581
149.687
149.791
149.894
149.997
150.103
150.211
150.323
150.436
150.549
150.663
150.775
150.891
151.015
151.155
151.314
151.483
151.641
151.755
151.793
151.75
151.668
151.656
151.887
152.568
153.894
155.986
158.845
162.337
166.196
170.107
173.661
176.638
179.13
139.42
139.478
139.427
139.319
139.212
139.141
139.123
139.156
139.194
139.184
139.147
139.25
139.753
140.841
142.467
144.343
146.086
147.411
148.237
148.659
148.849
148.954
149.052
149.166
149.289
149.41
149.525
149.633
149.738
149.841
149.944
150.049
150.156
150.266
150.378
150.491
150.605
150.718
150.831
150.951
151.082
151.232
151.397
151.563
151.703
151.782
151.779
151.708
151.645
151.731
152.16
153.138
154.83
157.303
160.494
164.196
168.124
171.897
175.149
178.424
139.342
139.458
139.462
139.379
139.267
139.173
139.127
139.136
139.176
139.191
139.157
139.167
139.444
140.227
141.593
143.373
145.219
146.78
147.866
148.485
148.778
148.912
149.005
149.108
149.226
149.349
149.467
149.579
149.685
149.789
149.892
149.996
150.101
150.209
150.32
150.433
150.547
150.66
150.773
150.889
151.013
151.154
151.312
151.48
151.637
151.75
151.789
151.748
151.669
151.66
151.891
152.568
153.881
155.954
158.792
162.258
166.11
170.01
173.465
177.461
139.255
139.408
139.47
139.429
139.327
139.219
139.145
139.127
139.155
139.186
139.172
139.143
139.261
139.77
140.841
142.434
144.282
146.018
147.362
148.217
148.663
148.863
148.965
149.057
149.165
149.286
149.407
149.522
149.631
149.736
149.839
149.943
150.047
150.154
150.264
150.376
150.489
150.603
150.715
150.829
150.949
151.08
151.23
151.394
151.56
151.698
151.777
151.775
151.707
151.648
151.735
152.162
153.132
154.809
157.261
160.427
164.113
168.046
171.622
176.259
139.172
139.336
139.447
139.458
139.384
139.274
139.179
139.131
139.138
139.172
139.181
139.148
139.171
139.459
140.237
141.577
143.325
145.152
146.72
147.831
148.477
148.788
148.925
149.013
149.11
149.223
149.345
149.464
149.577
149.683
149.787
149.89
149.994
150.099
150.207
150.318
150.431
150.545
150.658
150.771
150.887
151.012
151.152
151.309
151.477
151.632
151.745
151.784
151.745
151.669
151.664
151.895
152.567
153.868
155.923
158.737
162.181
166.054
169.663
174.84
139.106
139.256
139.398
139.461
139.429
139.333
139.225
139.15
139.13
139.154
139.178
139.162
139.14
139.271
139.784
140.84
142.403
144.223
145.953
147.312
148.195
148.664
148.875
148.976
149.062
149.165
149.282
149.403
149.52
149.629
149.735
149.838
149.941
150.045
150.152
150.262
150.374
150.487
150.6
150.713
150.827
150.947
151.079
151.228
151.392
151.556
151.694
151.772
151.771
151.706
151.65
151.74
152.164
153.126
154.788
157.22
160.356
164.081
167.635
173.236
139.062
139.179
139.329
139.437
139.454
139.387
139.281
139.185
139.135
139.139
139.167
139.171
139.141
139.174
139.473
140.245
141.562
143.28
145.088
146.66
147.794
148.467
148.796
148.938
149.022
149.112
149.221
149.341
149.461
149.574
149.681
149.785
149.888
149.992
150.097
150.205
150.316
150.429
150.542
150.655
150.768
150.885
151.01
151.15
151.307
151.474
151.628
151.74
151.779
151.742
151.67
151.667
151.899
152.566
153.856
155.893
158.674
162.174
165.588
171.483
139.04
139.116
139.253
139.387
139.453
139.428
139.338
139.232
139.156
139.133
139.153
139.171
139.152
139.138
139.28
139.796
140.838
142.372
144.167
145.889
147.263
148.171
148.664
148.887
148.988
149.068
149.165
149.279
149.4
149.517
149.627
149.733
149.836
149.939
150.043
150.15
150.26
150.371
150.485
150.598
150.711
150.825
150.945
151.077
151.226
151.389
151.552
151.689
151.767
151.767
151.705
151.652
151.744
152.167
153.12
154.769
157.164
160.374
163.571
169.621
139.036
139.071
139.18
139.321
139.427
139.449
139.389
139.287
139.191
139.14
139.14
139.162
139.161
139.134
139.178
139.485
140.251
141.546
143.236
145.027
146.602
147.756
148.455
148.802
148.951
149.032
149.115
149.22
149.338
149.457
149.572
149.68
149.784
149.887
149.99
150.095
150.204
150.314
150.427
150.54
150.653
150.766
150.883
151.008
151.148
151.305
151.471
151.624
151.735
151.775
151.739
151.67
151.671
151.903
152.564
153.846
155.845
158.716
161.63
167.695
139.046
139.047
139.119
139.249
139.378
139.446
139.426
139.342
139.238
139.162
139.137
139.151
139.163
139.144
139.136
139.289
139.807
140.835
142.343
144.113
145.827
147.213
148.146
148.662
148.897
149
149.075
149.165
149.277
149.396
149.514
149.625
149.731
149.834
149.937
150.041
150.148
150.258
150.369
150.482
150.595
150.708
150.823
150.943
151.075
151.224
151.386
151.549
151.684
151.762
151.763
151.703
151.654
151.748
152.168
153.118
154.727
157.228
159.809
165.751
139.065
139.04
139.076
139.18
139.315
139.418
139.444
139.39
139.292
139.198
139.145
139.141
139.158
139.153
139.129
139.182
139.496
140.257
141.531
143.193
144.967
146.545
147.718
148.441
148.807
148.963
149.042
149.119
149.219
149.334
149.454
149.569
149.677
149.782
149.885
149.988
150.094
150.202
150.312
150.425
150.538
150.651
150.764
150.88
151.006
151.146
151.303
151.467
151.62
151.73
151.77
151.737
151.671
151.674
151.906
152.568
153.81
155.929
158.142
163.834
139.088
139.048
139.051
139.122
139.245
139.37
139.438
139.425
139.346
139.245
139.168
139.14
139.149
139.156
139.136
139.135
139.297
139.817
140.831
142.314
144.061
145.767
147.164
148.119
148.658
148.906
149.012
149.082
149.167
149.274
149.392
149.51
149.623
149.729
149.833
149.935
150.04
150.146
150.255
150.367
150.48
150.593
150.706
150.82
150.941
151.073
151.222
151.384
151.545
151.68
151.757
151.759
151.702
151.656
151.75
152.175
153.086
154.826
156.657
161.986
139.115
139.065
139.044
139.079
139.179
139.309
139.41
139.439
139.391
139.297
139.205
139.15
139.142
139.153
139.145
139.124
139.185
139.505
140.261
141.515
143.152
144.91
146.488
147.679
148.426
148.81
148.975
149.052
149.124
149.218
149.331
149.45
149.566
149.675
149.78
149.883
149.986
150.092
150.2
150.31
150.422
150.535
150.648
150.762
150.878
151.004
151.144
151.301
151.464
151.616
151.725
151.766
151.734
151.671
151.676
151.915
152.539
153.921
155.371
160.246
139.143
139.088
139.05
139.055
139.123
139.242
139.363
139.431
139.422
139.349
139.251
139.174
139.143
139.147
139.149
139.129
139.134
139.304
139.825
140.826
142.286
144.011
145.708
147.114
148.091
148.652
148.915
149.024
149.09
149.169
149.272
149.389
149.507
149.62
149.727
149.831
149.934
150.038
150.144
150.253
150.365
150.478
150.591
150.704
150.818
150.939
151.071
151.22
151.381
151.542
151.675
151.752
151.756
151.701
151.656
151.76
152.148
153.203
154.293
158.646
139.174
139.115
139.066
139.046
139.083
139.179
139.303
139.402
139.434
139.392
139.302
139.211
139.156
139.143
139.148
139.137
139.119
139.189
139.514
140.264
141.499
143.113
144.854
146.432
147.639
148.409
148.812
148.986
149.063
149.129
149.218
149.328
149.447
149.563
149.673
149.778
149.881
149.985
150.09
150.198
150.308
150.42
150.533
150.646
150.759
150.876
151.002
151.142
151.298
151.461
151.612
151.72
151.761
151.732
151.67
151.685
151.889
152.659
153.42
157.209
139.207
139.144
139.088
139.051
139.058
139.125
139.239
139.356
139.425
139.42
139.351
139.257
139.181
139.147
139.145
139.143
139.122
139.133
139.311
139.832
140.821
142.259
143.962
145.651
147.065
148.062
148.645
148.922
149.035
149.098
149.172
149.27
149.385
149.504
149.617
149.725
149.829
149.932
150.036
150.142
150.251
150.363
150.475
150.588
150.701
150.816
150.937
151.069
151.218
151.378
151.538
151.671
151.748
151.752
151.699
151.665
151.735
152.266
152.743
155.952
139.241
139.176
139.115
139.066
139.049
139.085
139.178
139.298
139.395
139.43
139.392
139.306
139.217
139.161
139.144
139.144
139.13
139.116
139.192
139.522
140.266
141.484
143.075
144.8
146.378
147.599
148.391
148.813
148.996
149.073
149.135
149.218
149.325
149.443
149.56
149.671
149.776
149.88
149.983
150.088
150.196
150.306
150.418
150.531
150.644
150.757
150.874
151
151.141
151.296
151.458
151.607
151.715
151.757
151.728
151.677
151.66
152.002
152.244
154.881
139.274
139.209
139.145
139.089
139.053
139.061
139.126
139.236
139.349
139.419
139.417
139.353
139.262
139.187
139.15
139.143
139.137
139.117
139.133
139.317
139.838
140.815
142.232
143.915
145.595
147.017
148.032
148.636
148.928
149.047
149.107
149.175
149.269
149.382
149.5
149.615
149.723
149.827
149.93
150.034
150.14
150.249
150.361
150.473
150.586
150.699
150.814
150.935
151.067
151.216
151.376
151.534
151.666
151.743
151.747
151.704
151.64
151.84
151.9
153.997
139.305
139.242
139.177
139.116
139.067
139.051
139.087
139.177
139.293
139.389
139.425
139.391
139.31
139.223
139.165
139.145
139.14
139.124
139.112
139.195
139.529
140.267
141.468
143.037
144.747
146.324
147.559
148.372
148.812
149.006
149.084
149.141
149.219
149.323
149.439
149.556
149.668
149.775
149.878
149.981
150.086
150.194
150.304
150.416
150.529
150.641
150.755
150.872
150.998
151.139
151.294
151.455
151.603
151.711
151.751
151.731
151.653
151.754
151.686
153.29
139.331
139.275
139.21
139.146
139.089
139.055
139.063
139.127
139.233
139.343
139.413
139.415
139.355
139.268
139.192
139.153
139.142
139.131
139.111
139.133
139.323
139.843
140.809
142.206
143.869
145.54
146.968
148.002
148.626
148.933
149.058
149.116
149.179
149.268
149.379
149.496
149.612
149.721
149.826
149.929
150.032
150.138
150.247
150.358
150.471
150.584
150.697
150.812
150.933
151.066
151.213
151.373
151.531
151.662
151.737
151.75
151.68
151.722
151.573
152.746
139.35
139.305
139.244
139.179
139.117
139.069
139.053
139.089
139.176
139.289
139.383
139.42
139.391
139.314
139.229
139.17
139.146
139.136
139.118
139.109
139.198
139.535
140.268
141.453
143.001
144.696
146.271
147.518
148.351
148.81
149.014
149.095
149.148
149.221
149.32
149.435
149.553
149.666
149.773
149.876
149.979
150.084
150.192
150.302
150.414
150.526
150.639
150.753
150.87
150.996
151.137
151.291
151.452
151.6
151.705
151.753
151.709
151.722
151.535
152.346
139.36
139.329
139.276
139.213
139.147
139.09
139.056
139.065
139.127
139.23
139.338
139.407
139.412
139.357
139.273
139.198
139.156
139.14
139.126
139.106
139.132
139.328
139.848
140.802
142.18
143.825
145.487
146.92
147.971
148.615
148.937
149.068
149.125
149.183
149.268
149.375
149.493
149.608
149.719
149.824
149.927
150.031
150.137
150.245
150.356
150.469
150.581
150.694
150.809
150.931
151.064
151.211
151.37
151.527
151.656
151.738
151.729
151.737
151.547
152.068
139.362
139.347
139.305
139.246
139.181
139.118
139.07
139.055
139.091
139.175
139.284
139.377
139.416
139.39
139.318
139.235
139.175
139.147
139.132
139.112
139.106
139.2
139.541
140.268
141.437
142.966
144.645
146.219
147.477
148.329
148.807
149.022
149.105
149.155
149.223
149.319
149.432
149.549
149.663
149.771
149.874
149.978
150.082
150.19
150.299
150.411
150.524
150.637
150.75
150.868
150.994
151.135
151.289
151.449
151.594
151.705
151.734
151.753
151.587
151.888
139.361
139.357
139.329
139.278
139.215
139.149
139.092
139.058
139.067
139.128
139.228
139.333
139.402
139.409
139.358
139.277
139.204
139.159
139.139
139.121
139.102
139.132
139.332
139.851
140.796
142.155
143.781
145.435
146.872
147.939
148.603
148.94
149.078
149.135
149.188
149.268
149.373
149.489
149.605
149.716
149.822
149.925
150.029
150.135
150.243
150.354
150.466
150.579
150.692
150.807
150.929
151.062
151.209
151.368
151.523
151.656
151.721
151.762
151.636
151.784
139.359
139.361
139.345
139.306
139.248
139.182
139.119
139.071
139.057
139.092
139.174
139.28
139.371
139.412
139.39
139.321
139.24
139.18
139.148
139.129
139.107
139.103
139.203
139.546
140.267
141.422
142.932
144.597
146.167
147.436
148.307
148.803
149.03
149.116
149.163
149.226
149.317
149.428
149.546
149.66
149.768
149.873
149.976
150.081
150.188
150.297
150.409
150.522
150.634
150.748
150.866
150.993
151.133
151.287
151.445
151.594
151.691
151.757
151.681
151.732
139.354
139.362
139.356
139.328
139.279
139.217
139.151
139.093
139.06
139.069
139.128
139.225
139.328
139.397
139.407
139.36
139.282
139.209
139.162
139.138
139.117
139.097
139.132
139.336
139.854
140.788
142.13
143.739
145.383
146.825
147.906
148.589
148.942
149.088
149.145
149.193
149.268
149.37
149.485
149.602
149.714
149.82
149.923
150.027
150.133
150.241
150.352
150.464
150.577
150.69
150.805
150.927
151.06
151.207
151.364
151.522
151.644
151.737
151.713
151.715
139.342
139.36
139.361
139.345
139.306
139.25
139.184
139.121
139.073
139.059
139.093
139.173
139.276
139.366
139.408
139.389
139.324
139.245
139.184
139.149
139.126
139.103
139.101
139.205
139.55
140.266
141.407
142.898
144.549
146.117
147.396
148.284
148.797
149.036
149.126
149.171
149.229
149.316
149.425
149.542
149.657
149.766
149.871
149.974
150.079
150.186
150.295
150.407
150.519
150.632
150.746
150.864
150.991
151.131
151.284
151.444
151.584
151.7
151.726
151.716
139.317
139.353
139.363
139.356
139.328
139.28
139.218
139.152
139.095
139.062
139.071
139.128
139.223
139.323
139.392
139.404
139.361
139.286
139.214
139.165
139.137
139.112
139.094
139.132
139.34
139.857
140.781
142.106
143.698
145.333
146.778
147.873
148.575
148.943
149.097
149.154
149.199
149.269
149.367
149.482
149.599
149.711
149.818
149.922
150.025
150.131
150.239
150.35
150.462
150.574
150.687
150.803
150.925
151.058
151.205
151.363
151.514
151.649
151.717
151.723
139.276
139.337
139.361
139.363
139.345
139.307
139.251
139.186
139.122
139.075
139.061
139.094
139.172
139.273
139.361
139.404
139.388
139.326
139.25
139.188
139.15
139.123
139.099
139.099
139.207
139.554
140.264
141.391
142.865
144.502
146.067
147.355
148.26
148.791
149.042
149.136
149.179
149.232
149.315
149.422
149.539
149.654
149.764
149.869
149.973
150.077
150.184
150.293
150.405
150.517
150.63
150.744
150.862
150.989
151.128
151.282
151.438
151.585
151.689
151.725
139.221
139.309
139.353
139.365
139.356
139.328
139.281
139.22
139.154
139.096
139.064
139.072
139.128
139.22
139.318
139.387
139.401
139.361
139.29
139.219
139.168
139.136
139.109
139.09
139.132
139.344
139.859
140.773
142.082
143.657
145.283
146.731
147.839
148.558
148.942
149.104
149.163
149.205
149.27
149.365
149.478
149.595
149.708
149.816
149.92
150.024
150.129
150.237
150.348
150.46
150.572
150.685
150.801
150.923
151.056
151.203
151.359
151.513
151.641
151.718
139.161
139.269
139.335
139.363
139.364
139.345
139.307
139.252
139.187
139.124
139.077
139.063
139.095
139.171
139.269
139.356
139.4
139.387
139.329
139.255
139.192
139.151
139.121
139.094
139.097
139.209
139.557
140.263
141.377
142.835
144.46
146.022
147.319
148.24
148.788
149.05
149.149
149.189
149.237
149.315
149.419
149.535
149.651
149.762
149.868
149.971
150.076
150.182
150.291
150.403
150.515
150.628
150.742
150.86
150.987
151.127
151.279
151.437
151.58
151.698
139.096
139.215
139.303
139.35
139.366
139.357
139.329
139.282
139.222
139.156
139.099
139.067
139.075
139.129
139.218
139.313
139.381
139.398
139.361
139.294
139.224
139.172
139.136
139.106
139.088
139.132
139.346
139.858
140.761
142.05
143.604
145.216
146.663
147.784
148.524
148.928
149.104
149.169
149.21
149.272
149.363
149.474
149.59
149.704
149.812
149.917
150.02
150.126
150.234
150.344
150.456
150.568
150.681
150.797
150.919
151.052
151.199
151.355
151.505
151.662
139.03
139.167
139.272
139.338
139.367
139.367
139.346
139.306
139.251
139.186
139.122
139.075
139.062
139.096
139.172
139.27
139.357
139.4
139.388
139.33
139.256
139.192
139.148
139.116
139.089
139.094
139.213
139.57
140.285
141.407
142.871
144.5
146.065
147.364
148.284
148.828
149.082
149.17
149.201
149.242
149.317
149.42
149.537
149.654
149.766
149.872
149.976
150.08
150.186
150.295
150.407
150.519
150.632
150.746
150.864
150.992
151.132
151.286
151.438
151.625
138.909
139.055
139.184
139.28
139.339
139.364
139.362
139.338
139.295
139.238
139.173
139.114
139.075
139.073
139.114
139.194
139.286
139.361
139.392
139.371
139.314
139.246
139.188
139.145
139.11
139.086
139.115
139.288
139.724
140.523
141.707
143.186
144.78
146.273
147.488
148.338
148.838
149.078
149.17
149.211
149.261
149.34
149.443
149.558
149.673
149.784
149.89
149.994
150.099
150.206
150.315
150.427
150.539
150.652
150.767
150.887
151.018
151.162
151.305
151.525
)
;

boundaryField
{
    bottomwall
    {
        type            opaque;
        refValue        nonuniform List<scalar> 
60
(
143.315
145.512
146.764
147.542
148.056
148.413
148.672
148.871
149.031
149.169
149.293
149.411
149.525
149.634
149.739
149.841
149.944
150.048
150.155
150.266
150.379
150.494
150.609
150.723
150.834
150.948
151.071
151.214
151.384
151.57
151.742
151.854
151.861
151.76
151.617
151.59
151.91
152.831
154.552
157.148
160.527
164.434
168.51
172.364
175.655
178.13
179.645
180.139
179.608
178.088
175.65
172.415
168.566
164.345
160.038
155.917
152.185
148.914
145.933
142.631
)
;
        refGradient     uniform 0;
        valueFraction   uniform 1;
        source          uniform 0;