/*--------------------------------*- C++ -*----------------------------------*\
| =========                 |                                                 |
| \\      /  F ield         | OpenFOAM: The Open Source CFD Toolbox           |
|  \\    /   O peration     | Version:  2406                                  |
|   \\  /    A nd           | Website:  www.openfoam.com                      |
|    \\/     M anipulation  |                                                 |
\*---------------------------------------------------------------------------*/
FoamFile
{
    version     2.0;
    format      ascii;
    arch        "LSB;label=32;scalar=64";
    class       volScalarField;
    location    "10000";
    object      ILambda_3_0;
}
// * * * * * * * * * * * * * * * * * * * * * * * * * * * * * * * * * * * * * //

dimensions      [1 0 -3 0 0 0 0];

internalField   nonuniform List<scalar> 
3600
(
140.241
142.813
144.955
146.497
147.506
148.128
148.506
148.745
148.914
149.05
149.173
149.292
149.409
149.523
149.633
149.74
149.844
149.947
150.052
150.159
150.269
150.381
150.496
150.61
150.724
150.836
150.952
151.079
151.224
151.391
151.568
151.726
151.824
151.831
151.75
151.655
151.695
152.084
153.053
154.78
157.332
160.624
164.426
168.406
172.195
175.459
177.94
179.478
179.996
179.482
177.972
175.547
172.337
168.527
164.357
160.097
156.004
152.245
149.052
144.788
138.908
139.525
141.01
142.879
144.691
146.188
147.29
148.031
148.496
148.78
148.96
149.089
149.199
149.305
149.414
149.523
149.633
149.74
149.846
149.952
150.057
150.165
150.274
150.387
150.5
150.614
150.727
150.841
150.96
151.091
151.241
151.406
151.572
151.71
151.786
151.782
151.72
151.681
151.816
152.321
153.395
155.183
157.729
160.943
164.611
168.432
172.073
175.223
177.634
179.138
179.646
179.132
177.631
175.226
172.055
168.31
164.241
160.004
156.395
150.678
139.013
138.809
139.061
139.947
141.356
143.019
144.658
146.073
147.173
147.953
148.467
148.788
148.987
149.12
149.225
149.323
149.424
149.528
149.634
149.741
149.848
149.954
150.061
150.17
150.28
150.392
150.504
150.616
150.728
150.843
150.965
151.103
151.259
151.426
151.585
151.702
151.749
151.716
151.64
151.618
151.808
152.398
153.57
155.444
158.038
161.251
164.871
168.611
172.159
175.225
177.57
179.026
179.497
178.952
177.421
174.988
171.834
167.991
164.498
158.014
139.159
138.991
138.798
138.828
139.293
140.249
141.596
143.136
144.662
146.011
147.093
147.891
148.435
148.784
149.002
149.143
149.248
149.342
149.436
149.535
149.637
149.743
149.85
149.957
150.065
150.174
150.285
150.396
150.507
150.618
150.729
150.846
150.975
151.121
151.282
151.446
151.588
151.674
151.682
151.616
151.529
151.533
151.788
152.474
153.751
155.715
158.363
161.581
165.161
168.831
172.297
175.282
177.557
178.953
179.373
178.773
177.23
174.636
172.034
165.882
139.222
139.173
139.032
138.841
138.743
138.921
139.495
140.478
141.778
143.236
144.681
145.976
147.038
147.84
148.404
148.775
149.01
149.161
149.268
149.36
149.449
149.543
149.642
149.746
149.852
149.96
150.069
150.178
150.289
150.399
150.509
150.619
150.732
150.853
150.989
151.14
151.302
151.457
151.575
151.627
151.598
151.508
151.423
151.464
151.791
152.572
153.948
155.992
158.684
161.905
165.448
169.054
172.443
175.35
177.554
178.877
179.268
178.49
177.402
172.856
139.295
139.263
139.211
139.093
138.915
138.755
138.749
139.027
139.669
140.665
141.928
143.324
144.708
145.958
146.998
147.799
148.375
148.763
149.013
149.174
149.285
149.376
149.462
149.552
149.648
149.749
149.855
149.962
150.072
150.182
150.292
150.402
150.511
150.621
150.737
150.863
151.005
151.16
151.319
151.458
151.55
151.569
151.509
151.402
151.329
151.414
151.814
152.687
154.153
156.267
158.996
162.216
165.725
169.271
172.59
175.414
177.57
178.729
179.395
177.463
139.397
139.35
139.311
139.26
139.163
139.006
138.826
138.712
138.781
139.135
139.822
140.823
142.058
143.405
144.738
145.949
146.969
147.766
148.35
148.751
149.013
149.184
149.3
149.391
149.475
149.561
149.654
149.754
149.858
149.966
150.075
150.185
150.295
150.404
150.513
150.625
150.744
150.875
151.022
151.179
151.33
151.452
151.516
151.503
151.417
151.302
151.247
151.381
151.855
152.813
154.361
156.537
159.298
162.515
165.992
169.479
172.744
175.449
177.633
178.696
139.471
139.438
139.399
139.361
139.314
139.234
139.102
138.926
138.761
138.695
138.828
139.239
139.96
140.963
142.172
143.479
144.77
145.948
146.948
147.739
148.327
148.738
149.012
149.191
149.312
149.404
149.487
149.571
149.661
149.759
149.862
149.969
150.078
150.188
150.297
150.406
150.515
150.629
150.753
150.89
151.04
151.195
151.337
151.438
151.473
151.431
151.325
151.209
151.178
151.364
151.909
152.948
154.57
156.802
159.591
162.803
166.251
169.698
172.747
176.395
139.455
139.469
139.461
139.437
139.407
139.367
139.303
139.195
139.038
138.858
138.716
138.695
138.882
139.339
140.085
141.089
142.277
143.549
144.804
145.952
146.933
147.718
148.308
148.726
149.009
149.196
149.322
149.416
149.498
149.581
149.669
149.764
149.866
149.973
150.081
150.191
150.299
150.408
150.518
150.635
150.764
150.906
151.058
151.209
151.337
151.416
151.424
151.356
151.234
151.123
151.121
151.359
151.975
153.089
154.781
157.064
159.865
163.14
166.204
171.342
139.347
139.408
139.446
139.462
139.458
139.441
139.413
139.364
139.28
139.149
138.977
138.802
138.686
138.707
138.941
139.436
140.201
141.204
142.372
143.615
144.838
145.959
146.923
147.7
148.291
148.715
149.006
149.199
149.33
149.427
149.509
149.591
149.677
149.771
149.871
149.976
150.084
150.192
150.301
150.409
150.522
150.643
150.777
150.923
151.076
151.22
151.332
151.388
151.369
151.278
151.147
151.045
151.075
151.367
152.05
153.24
154.974
157.403
159.772
165.017
139.208
139.281
139.35
139.405
139.441
139.458
139.458
139.445
139.414
139.353
139.249
139.1
138.922
138.756
138.667
138.728
139.002
139.529
140.31
141.31
142.461
143.678
144.872
145.97
146.916
147.686
148.276
148.705
149.002
149.202
149.338
149.437
149.52
149.6
149.685
149.777
149.876
149.98
150.087
150.194
150.302
150.412
150.528
150.653
150.792
150.941
151.091
151.226
151.321
151.353
151.309
151.199
151.062
150.974
151.039
151.39
152.114
153.478
154.834
159.035
139.106
139.156
139.219
139.287
139.351
139.402
139.438
139.457
139.461
139.448
139.41
139.334
139.214
139.051
138.871
138.719
138.658
138.755
139.064
139.618
140.412
141.409
142.544
143.738
144.907
145.982
146.913
147.675
148.264
148.696
148.998
149.204
149.344
149.446
149.529
149.609
149.693
149.784
149.881
149.984
150.089
150.196
150.304
150.416
150.535
150.665
150.808
150.958
151.105
151.228
151.304
151.313
151.246
151.121
150.981
150.916
150.995
151.489
151.944
154.559
139.071
139.085
139.116
139.165
139.226
139.291
139.351
139.401
139.437
139.459
139.464
139.448
139.4
139.31
139.175
139.004
138.826
138.69
138.656
138.786
139.127
139.704
140.508
141.502
142.623
143.795
144.941
145.996
146.912
147.666
148.253
148.687
148.994
149.205
149.349
149.454
149.539
149.619
149.701
149.79
149.886
149.987
150.091
150.197
150.306
150.42
150.544
150.678
150.824
150.975
151.115
151.225
151.282
151.268
151.18
151.047
150.893
150.906
150.83
151.973
139.085
139.074
139.075
139.091
139.125
139.174
139.233
139.295
139.352
139.401
139.438
139.462
139.466
139.444
139.385
139.282
139.135
138.959
138.787
138.668
138.661
138.821
139.19
139.787
140.6
141.59
142.698
143.85
144.975
146.011
146.914
147.659
148.244
148.68
148.991
149.206
149.354
149.461
149.547
149.627
149.709
149.797
149.891
149.99
150.093
150.199
150.309
150.426
150.554
150.693
150.841
150.99
151.122
151.218
151.254
151.222
151.106
150.991
150.77
150.961
139.115
139.098
139.083
139.074
139.078
139.097
139.132
139.181
139.238
139.298
139.354
139.403
139.441
139.464
139.466
139.437
139.367
139.252
139.095
138.917
138.753
138.652
138.67
138.858
139.253
139.867
140.687
141.674
142.769
143.903
145.009
146.027
146.917
147.654
148.236
148.673
148.987
149.206
149.358
149.468
149.556
149.636
149.717
149.803
149.896
149.993
150.095
150.201
150.313
150.434
150.565
150.708
150.858
151.003
151.126
151.207
151.22
151.173
151.04
150.861
139.137
139.125
139.11
139.094
139.081
139.075
139.082
139.103
139.139
139.187
139.243
139.301
139.357
139.407
139.445
139.467
139.464
139.426
139.346
139.219
139.056
138.878
138.723
138.641
138.683
138.898
139.315
139.945
140.771
141.754
142.838
143.955
145.042
146.044
146.921
147.651
148.229
148.667
148.984
149.207
149.362
149.474
149.564
149.644
149.724
149.81
149.9
149.997
150.098
150.204
150.319
150.442
150.578
150.724
150.873
151.014
151.127
151.188
151.203
151.047
139.148
139.143
139.134
139.122
139.107
139.091
139.08
139.077
139.085
139.108
139.145
139.193
139.248
139.306
139.361
139.411
139.449
139.468
139.459
139.413
139.322
139.186
139.017
138.841
138.698
138.634
138.7
138.939
139.377
140.021
140.852
141.831
142.903
144.005
145.076
146.062
146.927
147.649
148.224
148.661
148.981
149.207
149.365
149.48
149.571
149.652
149.732
149.815
149.905
150
150.101
150.208
150.325
150.452
150.592
150.74
150.889
151.02
151.134
151.149
139.157
139.152
139.148
139.141
139.131
139.118
139.103
139.089
139.079
139.078
139.089
139.114
139.151
139.198
139.253
139.31
139.366
139.416
139.453
139.468
139.453
139.397
139.296
139.152
138.98
138.808
138.676
138.631
138.719
138.981
139.438
140.095
140.93
141.905
142.967
144.054
145.108
146.08
146.934
147.648
148.22
148.657
148.978
149.207
149.368
149.486
149.578
149.659
149.738
149.821
149.909
150.003
150.104
150.213
150.332
150.463
150.607
150.755
150.899
151.062
139.176
139.165
139.158
139.152
139.147
139.139
139.129
139.115
139.1
139.087
139.079
139.08
139.093
139.118
139.156
139.204
139.258
139.316
139.372
139.421
139.456
139.467
139.444
139.379
139.268
139.118
138.944
138.778
138.658
138.631
138.741
139.024
139.499
140.167
141.005
141.977
143.028
144.101
145.141
146.099
146.942
147.649
148.216
148.653
148.976
149.207
149.371
149.491
149.585
149.666
149.745
149.826
149.913
150.006
150.108
150.219
150.341
150.478
150.608
150.837
139.214
139.193
139.177
139.166
139.158
139.152
139.146
139.137
139.126
139.112
139.098
139.086
139.079
139.082
139.096
139.123
139.161
139.209
139.264
139.322
139.378
139.426
139.458
139.463
139.433
139.359
139.24
139.084
138.911
138.75
138.644
138.635
138.765
139.068
139.559
140.237
141.078
142.045
143.087
144.147
145.173
146.118
146.95
147.65
148.214
148.65
148.973
149.207
149.374
149.496
149.591
149.673
149.751
149.831
149.917
150.01
150.112
150.229
150.334
150.562
139.272
139.241
139.214
139.193
139.178
139.167
139.159
139.152
139.145
139.135
139.123
139.109
139.095
139.085
139.08
139.084
139.1
139.127
139.166
139.214
139.27
139.328
139.384
139.431
139.459
139.458
139.42
139.337
139.211
139.051
138.878
138.725
138.632
138.641
138.791
139.112
139.619
140.305
141.149
142.112
143.145
144.192
145.205
146.137
146.959
147.652
148.212
148.647
148.972
149.207
149.377
149.5
149.596
149.679
149.757
149.836
149.92
150.018
150.101
150.299
139.345
139.307
139.272
139.24
139.214
139.194
139.179
139.167
139.159
139.151
139.143
139.133
139.12
139.107
139.093
139.084
139.08
139.086
139.103
139.131
139.171
139.22
139.276
139.335
139.39
139.435
139.459
139.452
139.406
139.315
139.182
139.019
138.848
138.703
138.623
138.649
138.818
139.157
139.677
140.372
141.218
142.177
143.2
144.237
145.236
146.157
146.969
147.655
148.211
148.645
148.97
149.208
149.379
149.505
149.602
149.685
149.761
149.845
149.912
150.074
139.419
139.382
139.343
139.306
139.271
139.24
139.215
139.194
139.179
139.168
139.159
139.151
139.142
139.131
139.118
139.104
139.092
139.083
139.081
139.088
139.106
139.136
139.176
139.226
139.283
139.342
139.396
139.438
139.457
139.444
139.39
139.291
139.152
138.987
138.82
138.683
138.617
138.66
138.847
139.203
139.735
140.438
141.285
142.24
143.255
144.28
145.267
146.176
146.979
147.659
148.211
148.643
148.969
149.208
149.381
149.509
149.606
149.693
149.756
149.89
139.477
139.449
139.416
139.38
139.342
139.305
139.27
139.24
139.215
139.195
139.18
139.168
139.159
139.15
139.14
139.128
139.115
139.102
139.09
139.083
139.082
139.09
139.109
139.14
139.182
139.233
139.29
139.349
139.402
139.441
139.455
139.434
139.372
139.266
139.123
138.957
138.793
138.666
138.613
138.672
138.877
139.248
139.793
140.502
141.351
142.301
143.308
144.322
145.298
146.196
146.99
147.663
148.211
148.642
148.968
149.209
149.383
149.515
149.602
149.734
139.504
139.493
139.474
139.447
139.414
139.378
139.34
139.303
139.27
139.24
139.215
139.196
139.18
139.168
139.158
139.149
139.138
139.126
139.113
139.1
139.089
139.082
139.083
139.092
139.113
139.145
139.187
139.239
139.297
139.356
139.407
139.442
139.451
139.424
139.354
139.241
139.094
138.927
138.768
138.65
138.611
138.687
138.908
139.294
139.849
140.565
141.415
142.361
143.36
144.363
145.328
146.216
147.001
147.668
148.212
148.641
148.967
149.212
149.375
149.565
139.492
139.502
139.502
139.491
139.472
139.444
139.412
139.376
139.338
139.302
139.269
139.24
139.216
139.196
139.181
139.168
139.158
139.148
139.136
139.124
139.111
139.098
139.088
139.082
139.084
139.094
139.116
139.149
139.193
139.246
139.305
139.362
139.412
139.443
139.446
139.411
139.335
139.216
139.065
138.899
138.745
138.637
138.611
138.703
138.939
139.339
139.906
140.627
141.477
142.42
143.41
144.404
145.358
146.236
147.012
147.673
148.213
148.644
148.951
149.294
139.441
139.47
139.491
139.5
139.5
139.489
139.469
139.442
139.409
139.374
139.337
139.301
139.269
139.24
139.216
139.196
139.181
139.168
139.157
139.146
139.135
139.122
139.109
139.096
139.086
139.082
139.085
139.097
139.12
139.154
139.199
139.253
139.312
139.369
139.416
139.443
139.439
139.398
139.314
139.19
139.036
138.872
138.724
138.626
138.613
138.72
138.972
139.385
139.961
140.687
141.538
142.477
143.46
144.444
145.387
146.256
147.023
147.684
148.186
148.793
139.363
139.405
139.442
139.471
139.49
139.499
139.498
139.487
139.467
139.44
139.407
139.372
139.335
139.3
139.268
139.24
139.216
139.197
139.181
139.168
139.157
139.145
139.133
139.12
139.107
139.094
139.085
139.082
139.086
139.099
139.123
139.159
139.206
139.261
139.319
139.375
139.419
139.441
139.432
139.384
139.294
139.165
139.009
138.846
138.704
138.616
138.617
138.738
139.005
139.431
140.016
140.747
141.598
142.532
143.508
144.484
145.415
146.285
146.986
147.935
139.272
139.319
139.365
139.407
139.443
139.471
139.49
139.498
139.496
139.485
139.465
139.437
139.405
139.37
139.334
139.299
139.268
139.24
139.216
139.197
139.181
139.168
139.156
139.144
139.131
139.118
139.105
139.093
139.085
139.082
139.087
139.101
139.127
139.165
139.213
139.268
139.327
139.381
139.422
139.439
139.424
139.369
139.272
139.139
138.982
138.821
138.686
138.608
138.622
138.758
139.039
139.476
140.07
140.806
141.656
142.588
143.553
144.537
145.371
146.654
139.185
139.229
139.275
139.322
139.367
139.409
139.444
139.471
139.489
139.497
139.495
139.483
139.463
139.435
139.403
139.368
139.333
139.299
139.267
139.24
139.216
139.197
139.181
139.168
139.155
139.142
139.129
139.116
139.103
139.091
139.084
139.082
139.088
139.104
139.132
139.17
139.22
139.276
139.334
139.386
139.423
139.436
139.414
139.353
139.25
139.113
138.955
138.798
138.669
138.602
138.629
138.779
139.073
139.522
140.124
140.864
141.709
142.662
143.505
145.002
139.114
139.149
139.188
139.232
139.278
139.325
139.37
139.41
139.445
139.471
139.489
139.496
139.493
139.481
139.46
139.433
139.401
139.367
139.331
139.298
139.267
139.24
139.217
139.197
139.181
139.167
139.154
139.141
139.127
139.114
139.101
139.09
139.083
139.082
139.089
139.107
139.136
139.176
139.227
139.283
139.341
139.391
139.424
139.431
139.404
139.336
139.228
139.088
138.93
138.775
138.654
138.598
138.637
138.801
139.108
139.569
140.172
140.945
141.661
143.165
139.066
139.088
139.117
139.151
139.191
139.235
139.281
139.327
139.372
139.412
139.446
139.471
139.488
139.495
139.491
139.479
139.458
139.431
139.399
139.365
139.33
139.297
139.266
139.24
139.217
139.197
139.181
139.166
139.153
139.139
139.126
139.112
139.099
139.089
139.082
139.082
139.091
139.11
139.141
139.183
139.234
139.291
139.347
139.395
139.424
139.426
139.392
139.318
139.206
139.063
138.905
138.754
138.641
138.594
138.646
138.825
139.137
139.639
140.123
141.408
139.041
139.051
139.068
139.09
139.119
139.154
139.194
139.238
139.284
139.33
139.374
139.413
139.446
139.472
139.487
139.493
139.49
139.477
139.456
139.429
139.397
139.363
139.329
139.296
139.266
139.24
139.217
139.197
139.181
139.166
139.152
139.138
139.124
139.11
139.097
139.087
139.082
139.083
139.093
139.114
139.146
139.189
139.241
139.298
139.353
139.398
139.424
139.42
139.38
139.3
139.183
139.038
138.88
138.735
138.628
138.594
138.652
138.869
139.091
139.988
139.035
139.036
139.042
139.052
139.069
139.092
139.121
139.157
139.197
139.241
139.287
139.332
139.376
139.415
139.447
139.472
139.487
139.492
139.488
139.475
139.454
139.427
139.395
139.362
139.328
139.295
139.266
139.239
139.217
139.197
139.18
139.165
139.151
139.136
139.122
139.108
139.096
139.086
139.081
139.084
139.095
139.117
139.151
139.196
139.249
139.305
139.359
139.401
139.422
139.413
139.367
139.282
139.161
139.014
138.857
138.717
138.613
138.609
138.611
139.066
139.044
139.038
139.035
139.036
139.042
139.053
139.07
139.094
139.124
139.16
139.2
139.244
139.29
139.335
139.378
139.416
139.448
139.472
139.486
139.491
139.486
139.473
139.452
139.425
139.394
139.36
139.327
139.295
139.265
139.239
139.217
139.197
139.18
139.164
139.149
139.135
139.12
139.106
139.094
139.085
139.081
139.084
139.097
139.121
139.156
139.202
139.256
139.312
139.364
139.403
139.42
139.405
139.354
139.263
139.138
138.99
138.832
138.707
138.581
138.659
139.061
139.052
139.043
139.038
139.035
139.036
139.042
139.054
139.072
139.096
139.126
139.162
139.203
139.247
139.292
139.337
139.38
139.417
139.449
139.472
139.485
139.49
139.485
139.471
139.45
139.423
139.392
139.359
139.326
139.294
139.265
139.239
139.217
139.197
139.179
139.164
139.148
139.133
139.119
139.105
139.093
139.084
139.081
139.086
139.1
139.125
139.162
139.209
139.263
139.319
139.369
139.405
139.416
139.397
139.339
139.244
139.114
138.968
138.812
138.656
139.083
139.072
139.061
139.051
139.043
139.037
139.035
139.036
139.043
139.055
139.073
139.098
139.129
139.165
139.206
139.25
139.295
139.34
139.382
139.419
139.449
139.471
139.485
139.489
139.483
139.469
139.448
139.421
139.39
139.357
139.325
139.293
139.265
139.239
139.216
139.197
139.179
139.163
139.147
139.132
139.117
139.103
139.091
139.083
139.081
139.087
139.103
139.13
139.168
139.216
139.271
139.325
139.373
139.405
139.413
139.387
139.325
139.223
139.106
138.874
139.108
139.095
139.083
139.071
139.06
139.05
139.042
139.037
139.035
139.037
139.044
139.056
139.075
139.1
139.131
139.168
139.209
139.253
139.298
139.342
139.383
139.42
139.45
139.471
139.484
139.487
139.481
139.467
139.446
139.419
139.388
139.356
139.324
139.293
139.264
139.239
139.216
139.196
139.178
139.162
139.146
139.13
139.115
139.101
139.09
139.082
139.081
139.088
139.106
139.134
139.174
139.223
139.278
139.332
139.377
139.405
139.409
139.373
139.326
139.137
139.135
139.121
139.108
139.094
139.082
139.07
139.059
139.049
139.041
139.036
139.034
139.037
139.044
139.057
139.076
139.102
139.133
139.17
139.211
139.255
139.3
139.344
139.385
139.421
139.45
139.471
139.483
139.486
139.48
139.465
139.444
139.417
139.387
139.355
139.323
139.292
139.264
139.239
139.216
139.196
139.178
139.161
139.144
139.129
139.113
139.099
139.088
139.082
139.081
139.09
139.109
139.139
139.18
139.23
139.285
139.337
139.381
139.401
139.415
139.325
139.165
139.15
139.135
139.121
139.107
139.094
139.081
139.069
139.058
139.048
139.041
139.036
139.034
139.037
139.045
139.058
139.078
139.104
139.136
139.173
139.214
139.258
139.303
139.346
139.387
139.422
139.451
139.471
139.483
139.485
139.478
139.463
139.442
139.415
139.385
139.353
139.322
139.292
139.264
139.238
139.216
139.195
139.177
139.16
139.143
139.127
139.112
139.098
139.087
139.081
139.082
139.092
139.112
139.144
139.187
139.237
139.292
139.341
139.388
139.394
139.197
139.181
139.165
139.149
139.134
139.12
139.106
139.093
139.08
139.068
139.057
139.048
139.04
139.035
139.034
139.037
139.046
139.06
139.08
139.106
139.138
139.176
139.217
139.261
139.305
139.349
139.388
139.423
139.451
139.471
139.482
139.484
139.477
139.462
139.44
139.413
139.384
139.352
139.321
139.291
139.263
139.238
139.215
139.195
139.176
139.158
139.142
139.125
139.11
139.096
139.086
139.081
139.083
139.094
139.116
139.149
139.193
139.244
139.296
139.362
139.231
139.214
139.197
139.18
139.164
139.149
139.134
139.12
139.106
139.092
139.079
139.067
139.056
139.047
139.039
139.035
139.034
139.038
139.046
139.061
139.081
139.108
139.141
139.178
139.22
139.263
139.308
139.351
139.39
139.424
139.452
139.471
139.481
139.482
139.475
139.46
139.438
139.412
139.382
139.351
139.32
139.29
139.263
139.238
139.215
139.194
139.175
139.157
139.14
139.123
139.108
139.095
139.085
139.08
139.084
139.096
139.12
139.156
139.194
139.276
139.266
139.248
139.231
139.213
139.196
139.18
139.164
139.148
139.133
139.119
139.105
139.092
139.079
139.067
139.056
139.046
139.039
139.035
139.034
139.038
139.047
139.062
139.083
139.11
139.143
139.181
139.222
139.266
139.31
139.353
139.392
139.425
139.452
139.47
139.48
139.481
139.473
139.458
139.436
139.41
139.381
139.35
139.319
139.29
139.262
139.237
139.214
139.194
139.174
139.156
139.139
139.122
139.106
139.093
139.084
139.08
139.085
139.1
139.118
139.184
139.298
139.282
139.265
139.247
139.23
139.213
139.196
139.179
139.163
139.148
139.133
139.118
139.104
139.091
139.078
139.066
139.055
139.045
139.038
139.034
139.034
139.038
139.048
139.063
139.085
139.112
139.146
139.184
139.225
139.269
139.313
139.355
139.393
139.426
139.452
139.47
139.479
139.48
139.472
139.456
139.435
139.408
139.379
139.349
139.318
139.289
139.262
139.237
139.214
139.193
139.173
139.155
139.137
139.12
139.105
139.092
139.083
139.082
139.082
139.117
139.327
139.313
139.298
139.281
139.264
139.247
139.229
139.212
139.195
139.179
139.163
139.147
139.132
139.118
139.104
139.09
139.077
139.065
139.054
139.045
139.038
139.034
139.034
139.039
139.049
139.065
139.087
139.115
139.148
139.186
139.228
139.271
139.315
139.357
139.395
139.427
139.452
139.47
139.479
139.479
139.47
139.455
139.433
139.407
139.378
139.348
139.317
139.288
139.261
139.236
139.213
139.192
139.172
139.153
139.135
139.118
139.103
139.091
139.08
139.086
139.348
139.338
139.326
139.312
139.297
139.281
139.264
139.246
139.229
139.211
139.194
139.178
139.162
139.146
139.131
139.117
139.103
139.089
139.076
139.064
139.053
139.044
139.037
139.034
139.034
139.039
139.05
139.066
139.088
139.117
139.151
139.189
139.231
139.274
139.317
139.359
139.396
139.428
139.453
139.47
139.478
139.477
139.469
139.453
139.431
139.405
139.377
139.346
139.317
139.288
139.261
139.236
139.213
139.191
139.171
139.152
139.134
139.117
139.101
139.087
139.36
139.354
139.347
139.337
139.325
139.311
139.296
139.28
139.263
139.245
139.228
139.211
139.194
139.177
139.161
139.146
139.131
139.116
139.102
139.088
139.075
139.063
139.052
139.043
139.037
139.033
139.034
139.04
139.05
139.067
139.09
139.119
139.153
139.192
139.233
139.276
139.319
139.36
139.397
139.429
139.453
139.469
139.477
139.476
139.467
139.451
139.43
139.404
139.375
139.345
139.316
139.287
139.26
139.235
139.212
139.191
139.17
139.15
139.133
139.108
139.363
139.362
139.359
139.354
139.346
139.336
139.324
139.311
139.295
139.279
139.262
139.245
139.227
139.21
139.193
139.177
139.161
139.145
139.13
139.116
139.101
139.088
139.074
139.062
139.051
139.042
139.036
139.033
139.034
139.04
139.051
139.069
139.092
139.121
139.155
139.194
139.236
139.279
139.322
139.362
139.399
139.429
139.453
139.469
139.476
139.475
139.466
139.45
139.428
139.402
139.374
139.344
139.315
139.287
139.26
139.235
139.211
139.189
139.171
139.14
139.361
139.362
139.363
139.362
139.359
139.353
139.346
139.336
139.324
139.31
139.295
139.278
139.261
139.244
139.227
139.21
139.193
139.176
139.16
139.145
139.13
139.115
139.101
139.087
139.074
139.061
139.051
139.042
139.036
139.033
139.034
139.041
139.052
139.07
139.094
139.123
139.158
139.197
139.238
139.281
139.324
139.364
139.4
139.43
139.453
139.468
139.475
139.474
139.464
139.448
139.426
139.401
139.373
139.343
139.314
139.286
139.259
139.234
139.213
139.178
139.358
139.36
139.361
139.362
139.363
139.361
139.358
139.353
139.345
139.335
139.323
139.309
139.294
139.278
139.261
139.244
139.226
139.209
139.192
139.176
139.16
139.144
139.129
139.114
139.1
139.086
139.073
139.061
139.05
139.041
139.035
139.033
139.035
139.041
139.053
139.072
139.096
139.126
139.16
139.199
139.241
139.284
139.326
139.366
139.401
139.431
139.453
139.468
139.474
139.472
139.463
139.447
139.425
139.399
139.371
139.342
139.313
139.285
139.261
139.222
139.356
139.357
139.359
139.36
139.362
139.363
139.363
139.361
139.358
139.352
139.344
139.334
139.322
139.308
139.293
139.277
139.26
139.243
139.226
139.208
139.192
139.175
139.159
139.143
139.128
139.113
139.099
139.085
139.072
139.06
139.049
139.041
139.035
139.033
139.035
139.042
139.055
139.073
139.098
139.128
139.163
139.202
139.244
139.286
139.328
139.367
139.402
139.431
139.453
139.468
139.473
139.471
139.461
139.445
139.423
139.398
139.37
139.341
139.315
139.271
139.349
139.354
139.356
139.358
139.359
139.361
139.362
139.363
139.363
139.361
139.357
139.352
139.344
139.334
139.322
139.308
139.293
139.276
139.259
139.242
139.225
139.208
139.191
139.175
139.158
139.143
139.128
139.113
139.098
139.084
139.071
139.059
139.048
139.04
139.034
139.033
139.035
139.043
139.056
139.075
139.1
139.13
139.165
139.204
139.246
139.289
139.33
139.369
139.403
139.432
139.453
139.467
139.472
139.47
139.46
139.443
139.422
139.396
139.372
139.326
139.33
139.341
139.349
139.353
139.356
139.358
139.36
139.361
139.362
139.363
139.363
139.361
139.357
139.351
139.343
139.333
139.321
139.307
139.292
139.276
139.259
139.242
139.224
139.207
139.19
139.174
139.158
139.142
139.127
139.112
139.097
139.083
139.07
139.058
139.048
139.039
139.034
139.032
139.035
139.043
139.057
139.076
139.101
139.132
139.168
139.207
139.249
139.291
139.332
139.371
139.405
139.433
139.454
139.467
139.472
139.469
139.459
139.441
139.424
139.382
139.292
139.313
139.329
139.341
139.349
139.353
139.357
139.359
139.36
139.362
139.363
139.363
139.363
139.361
139.357
139.351
139.343
139.332
139.32
139.306
139.291
139.275
139.258
139.241
139.224
139.207
139.19
139.173
139.157
139.142
139.126
139.111
139.097
139.082
139.069
139.057
139.047
139.039
139.034
139.032
139.036
139.044
139.058
139.078
139.103
139.134
139.17
139.21
139.251
139.293
139.334
139.372
139.406
139.433
139.454
139.466
139.471
139.467
139.46
139.429
139.238
139.267
139.292
139.313
139.329
139.34
139.348
139.354
139.357
139.359
139.361
139.362
139.363
139.363
139.363
139.36
139.356
139.35
139.342
139.332
139.319
139.306
139.29
139.274
139.257
139.24
139.223
139.206
139.189
139.173
139.157
139.141
139.125
139.11
139.096
139.082
139.068
139.056
139.046
139.038
139.033
139.032
139.036
139.045
139.059
139.079
139.105
139.137
139.173
139.212
139.254
139.295
139.336
139.374
139.407
139.434
139.454
139.465
139.472
139.46
139.175
139.208
139.239
139.268
139.292
139.313
139.328
139.34
139.348
139.354
139.357
139.36
139.361
139.363
139.363
139.364
139.363
139.36
139.356
139.35
139.341
139.331
139.319
139.305
139.29
139.274
139.257
139.24
139.223
139.206
139.189
139.172
139.156
139.14
139.125
139.11
139.095
139.081
139.068
139.056
139.045
139.038
139.033
139.032
139.036
139.046
139.06
139.081
139.107
139.139
139.175
139.215
139.256
139.298
139.338
139.375
139.408
139.434
139.454
139.466
139.112
139.145
139.178
139.21
139.241
139.269
139.293
139.313
139.329
139.34
139.349
139.354
139.358
139.36
139.362
139.364
139.364
139.364
139.363
139.36
139.356
139.349
139.341
139.33
139.318
139.304
139.289
139.273
139.256
139.239
139.222
139.205
139.188
139.172
139.155
139.139
139.124
139.109
139.094
139.08
139.066
139.054
139.044
139.037
139.033
139.032
139.037
139.046
139.061
139.082
139.109
139.141
139.177
139.217
139.258
139.3
139.34
139.377
139.407
139.443
139.046
139.08
139.113
139.146
139.178
139.21
139.24
139.267
139.291
139.311
139.326
139.338
139.346
139.352
139.356
139.359
139.361
139.363
139.363
139.363
139.362
139.359
139.355
139.348
139.34
139.33
139.317
139.303
139.288
139.272
139.256
139.239
139.222
139.205
139.188
139.172
139.156
139.14
139.124
139.109
139.094
139.08
139.067
139.055
139.045
139.037
139.033
139.033
139.038
139.048
139.064
139.085
139.112
139.144
139.18
139.219
139.26
139.302
139.338
139.391
138.972
139.015
139.054
139.09
139.125
139.159
139.191
139.222
139.252
139.278
139.301
139.32
139.335
139.346
139.353
139.359
139.362
139.364
139.365
139.366
139.366
139.365
139.363
139.36
139.355
139.348
139.339
139.328
139.316
139.301
139.286
139.269
139.252
139.235
139.218
139.2
139.183
139.167
139.15
139.134
139.119
139.103
139.088
139.074
139.061
139.05
139.04
139.033
139.029
139.03
139.036
139.047
139.063
139.086
139.114
139.148
139.185
139.227
139.264
139.33
138.853
138.891
138.93
138.97
139.008
139.045
139.082
139.117
139.151
139.184
139.214
139.243
139.268
139.29
139.309
139.324
139.336
139.344
139.351
139.356
139.36
139.362
139.363
139.364
139.363
139.361
139.358
139.353
139.345
139.337
139.326
139.314
139.3
139.285
139.269
139.253
139.236
139.22
139.203
139.186
139.17
139.153
139.137
139.122
139.106
139.091
139.077
139.065
139.053
139.044
139.038
139.036
139.037
139.044
139.055
139.072
139.094
139.123
139.15
139.21
)
;

boundaryField
{
    bottomwall
    {
        type            opaque;
        refValue        nonuniform List<scalar> 
60
(
143.315
145.512
146.764
147.542
148.056
148.413
148.672
148.871
149.031
149.169
149.293
149.411
149.525
149.634
149.739
149.841
149.944
150.048
150.155
150.266
150.379
150.494
150.609
150.723
150.834
150.948
151.071
151.214
151.384
151.57
151.742
151.854
151.861
151.76
151.617
151.59
151.91
152.831
154.552
157.148
160.527
164.434
168.51
172.364
175.655
178.13
179.645
180.139
179.608
178.088
175.65
172.415
168.566
164.345
160.038
155.917
152.185
148.914
145.933
142.631
)
;
        refGradient     uniform 0;
        valueFraction   uniform 1;