/*--------------------------------*- C++ -*----------------------------------*\
| =========                 |                                                 |
| \\      /  F ield         | OpenFOAM: The Open Source CFD Toolbox           |
|  \\    /   O peration     | Version:  2406                                  |
|   \\  /    A nd           | Website:  www.openfoam.com                      |
|    \\/     M anipulation  |                                                 |
\*---------------------------------------------------------------------------*/
FoamFile
{
    version     2.0;
    format      ascii;
    arch        "LSB;label=32;scalar=64";
    class       volScalarField;
    location    "10000";
    object      NegRadHeatFlux;
}
// * * * * * * * * * * * * * * * * * * * * * * * * * * * * * * * * * * * * * //

dimensions      [1 0 -3 0 0 0 0];

internalField   uniform 0;

boundaryField
{
    bottomwall
    {
        type            calculated;
        value           nonuniform List<scalar> 
60
(
7.04347
13.7614
17.5478
19.8369
21.3342
22.391
23.1653
23.7452
24.1859
24.5049
24.7038
24.8072
24.8716
24.9567
25.0943
25.2799
25.4882
25.6932
25.8801
26.0484
26.2129
26.4051
26.6737
27.0731
27.6316
28.3091
28.972
29.4349
29.5925
29.6085
30.0499
31.814
35.7452
41.9907
49.3245
54.7887
53.9552
41.8838
14.5401
-29.8146
-89.7998
-160.997
-236.904
-310.394
-375.11
-426.356
-461.284
-478.552
-477.802
-459.321
-424.058
-373.934
-312.194
-243.507
-173.613
-108.537
-53.5077
-12.4077
13.2949
25.3571
)
;
    }
    topwall
    {
        type            calculated;
        value           nonuniform List<scalar> 
60
(
-9.95299
-6.49271
-3.76964
-1.28148
0.712667
2.22443
3.22488
3.63591
3.34314
2.33019
0.772089
-1.01173
-2.7049
-4.11315
-5.17625
-5.90192
-6.29997
-6.36227
-6.07895
-5.45901
-4.53576
-3.35859
-1.98319
-0.47098
1.09894
2.61142
3.90447
4.78139
5.05252
4.59606
3.41267
1.64502
-0.451447
-2.57681
-4.46404
-5.93327
-6.90512
-7.37754
-7.38661
-6.97427
-6.17697
-5.03661
-3.62273
-2.04868
-0.465545
0.967831
2.11815
2.88416
3.17082
2.8693
1.88988
0.2379
-1.94599
-4.44267
-7.07107
-9.75095
-12.5063
-15.2954
-18.3732
-20.7884
)
;
    }
    coldwall
    {
        type            calculated;
        value           nonuniform List<scalar> 
48
(
-12.2205
-15.0051
-16.4737
-17.5052
-18.9634
-21.5007
-24.4925
-26.0805
-24.8417
-21.2771
-17.3998
-15.0086
-14.5106
-15.1515
-15.9729
-16.4853
-16.7301
-17.0184
-17.6769
-18.9038
-20.6948
-22.8169
-24.8497
-26.3062
-26.7927
-26.1428
-24.4672
-22.1079
-19.5222
-17.148
-15.2975
-14.1103
-13.565
-13.5348
-13.8561
-14.3857
-15.0308
-15.7502
-16.5371
-17.3953
-18.32
-19.2884
-18.7862
-16.9891
-15.2056
-13.3127
-11.0744
-7.84216
)
;
    }
    radinlet
    {
        type            calculated;
        value           nonuniform List<scalar> 
12
(
532.822
531.917
531.159
530.63
530.369
530.335
530.408
530.472
530.539
530.784
531.45
532.658
)
;
    }
    hotwall
    {
        type            calculated;
        value           nonuniform List<scalar> 
60
(
3.31324
-1.27902
-15.0797
-21.4401
-28.3071
-34.0615
-37.8096
-38.5102
-36.7041
-33.7086
-30.8872
-29.0896
-28.4546
-28.5659
-28.8292
-28.8099
-28.3606
-27.5562
-26.5649
-25.5508
-24.6327
-23.876
-23.2987
-22.8806
-22.5736
-22.314
-22.0363
-21.6882
-21.2463
-20.7251
-20.1734
-19.6571
-19.2323
-18.9233
-18.7132
-18.5529
-18.382
-18.1522
-17.8425
-17.4634
-17.05
-16.6495
-16.3048
-16.0378
-15.8378
-15.6688
-15.5079
-15.3963
-15.4526
-15.798
-16.4241
-17.1259
-17.6076
-17.6935
-17.4268
-16.9313
-16.2103
-15.1114
-13.4986
-10.757
)
;
    }
    frontAndback
    {
        type            empty;
    }
}


// ************************************************************************* //
