/*--------------------------------*- C++ -*----------------------------------*\
| =========                 |                                                 |
| \\      /  F ield         | OpenFOAM: The Open Source CFD Toolbox           |
|  \\    /   O peration     | Version:  2406                                  |
|   \\  /    A nd           | Website:  www.openfoam.com                      |
|    \\/     M anipulation  |                                                 |
\*---------------------------------------------------------------------------*/
FoamFile
{
    version     2.0;
    format      ascii;
    arch        "LSB;label=32;scalar=64";
    class       volScalarField;
    location    "10000";
    object      p;
}
// * * * * * * * * * * * * * * * * * * * * * * * * * * * * * * * * * * * * * //

dimensions      [0 2 -2 0 0 0 0];

internalField   nonuniform List<scalar> 
3600
(
0
-0.000199423
-0.000715994
-0.00129208
-0.00189995
-0.00252944
-0.00318979
-0.00389424
-0.00465303
-0.00547094
-0.00634667
-0.00727339
-0.00823985
-0.00923181
-0.0102335
-0.0112289
-0.012203
-0.0131423
-0.014036
-0.0148756
-0.0156553
-0.0163722
-0.0170259
-0.0176187
-0.0181554
-0.018643
-0.0190905
-0.0195083
-0.0199067
-0.020294
-0.0206754
-0.021051
-0.021417
-0.0217667
-0.0220939
-0.0223943
-0.0226633
-0.0228913
-0.0230602
-0.0231409
-0.0230968
-0.0228897
-0.0224874
-0.0218699
-0.0210324
-0.0199857
-0.0187533
-0.0173682
-0.0158688
-0.014296
-0.0126906
-0.0110915
-0.00953375
-0.00804794
-0.00665935
-0.00538898
-0.00425956
-0.0033092
-0.00257871
-0.00238334
-0.162696
-0.16255
-0.16275
-0.163061
-0.16347
-0.163954
-0.164506
-0.165125
-0.16581
-0.166559
-0.167366
-0.168221
-0.169113
-0.170026
-0.170945
-0.171856
-0.172745
-0.173599
-0.174408
-0.175165
-0.175864
-0.176503
-0.177082
-0.177603
-0.17807
-0.178487
-0.178863
-0.179206
-0.179523
-0.179822
-0.180108
-0.180383
-0.180647
-0.180894
-0.181118
-0.18131
-0.181461
-0.181553
-0.181568
-0.181479
-0.181263
-0.180896
-0.180367
-0.17967
-0.178815
-0.177816
-0.176699
-0.175492
-0.174228
-0.172942
-0.171665
-0.170428
-0.169257
-0.168175
-0.167202
-0.166356
-0.165662
-0.165154
-0.16485
-0.165044
-0.3253
-0.325019
-0.325019
-0.325132
-0.325368
-0.32571
-0.326147
-0.326673
-0.327282
-0.327965
-0.328713
-0.329512
-0.330348
-0.331205
-0.332067
-0.332917
-0.333741
-0.334528
-0.335266
-0.33595
-0.336574
-0.337135
-0.337634
-0.338072
-0.338454
-0.338784
-0.339069
-0.339316
-0.339533
-0.339728
-0.339907
-0.340075
-0.340233
-0.340378
-0.340505
-0.340608
-0.340675
-0.340688
-0.340628
-0.34047
-0.340193
-0.339783
-0.339231
-0.338543
-0.337729
-0.33681
-0.335809
-0.334755
-0.333676
-0.332605
-0.331568
-0.330593
-0.329702
-0.328915
-0.328248
-0.327717
-0.327339
-0.327139
-0.327105
-0.327447
-0.487981
-0.487686
-0.487583
-0.487568
-0.487674
-0.487897
-0.488233
-0.488674
-0.489211
-0.489832
-0.490524
-0.49127
-0.492052
-0.492853
-0.493654
-0.49444
-0.495196
-0.495909
-0.496569
-0.497169
-0.497706
-0.498177
-0.498581
-0.498922
-0.499202
-0.499426
-0.499601
-0.499735
-0.499834
-0.499908
-0.499966
-0.500013
-0.500056
-0.500096
-0.500134
-0.500165
-0.500183
-0.500169
-0.500104
-0.49996
-0.499716
-0.499356
-0.498873
-0.498271
-0.497563
-0.496769
-0.495911
-0.495016
-0.494112
-0.493227
-0.492388
-0.49162
-0.490944
-0.490378
-0.489937
-0.489632
-0.489471
-0.48946
-0.489562
-0.489898
-0.650754
-0.650483
-0.650334
-0.650246
-0.650266
-0.650404
-0.650661
-0.651032
-0.65151
-0.652079
-0.652723
-0.653422
-0.654157
-0.654908
-0.655655
-0.656381
-0.65707
-0.657711
-0.658294
-0.65881
-0.659257
-0.659633
-0.659938
-0.660173
-0.660343
-0.660452
-0.660508
-0.660517
-0.660489
-0.660434
-0.660364
-0.660289
-0.66022
-0.660166
-0.660134
-0.660128
-0.660141
-0.660156
-0.660146
-0.660081
-0.65993
-0.659674
-0.659302
-0.65882
-0.658237
-0.657574
-0.656852
-0.656099
-0.65534
-0.654604
-0.653917
-0.653303
-0.652784
-0.652376
-0.652092
-0.651937
-0.651909
-0.652001
-0.65216
-0.652444
-0.813634
-0.81339
-0.813228
-0.813106
-0.813078
-0.813161
-0.813364
-0.813686
-0.814119
-0.814648
-0.815254
-0.815915
-0.81661
-0.817316
-0.818014
-0.818683
-0.81931
-0.819882
-0.820388
-0.820823
-0.821182
-0.821463
-0.821667
-0.821797
-0.821856
-0.821848
-0.821783
-0.821666
-0.82151
-0.821328
-0.821132
-0.820941
-0.820772
-0.820642
-0.820567
-0.820556
-0.820605
-0.820691
-0.820779
-0.820827
-0.820798
-0.820666
-0.820419
-0.82006
-0.819601
-0.81906
-0.818461
-0.817829
-0.817189
-0.81657
-0.815998
-0.815496
-0.815087
-0.814786
-0.814603
-0.814539
-0.814585
-0.814722
-0.814894
-0.815127
-0.976608
-0.976382
-0.976224
-0.976091
-0.976041
-0.976096
-0.976268
-0.976559
-0.976963
-0.977464
-0.978042
-0.978674
-0.979336
-0.980004
-0.980657
-0.981276
-0.981845
-0.982352
-0.982788
-0.983146
-0.983421
-0.983614
-0.983724
-0.983754
-0.983708
-0.983591
-0.98341
-0.983175
-0.982899
-0.982596
-0.982286
-0.981992
-0.981739
-0.981553
-0.981461
-0.981474
-0.981586
-0.981768
-0.981972
-0.982144
-0.98224
-0.982229
-0.982099
-0.981853
-0.981504
-0.98107
-0.980574
-0.980041
-0.979496
-0.978966
-0.978477
-0.978055
-0.977719
-0.977487
-0.977365
-0.97735
-0.977429
-0.977579
-0.977744
-0.977942
-1.13965
-1.13943
-1.13929
-1.13916
-1.1391
-1.13915
-1.13931
-1.13958
-1.13997
-1.14046
-1.14102
-1.14163
-1.14226
-1.1429
-1.14351
-1.14408
-1.1446
-1.14505
-1.14542
-1.14571
-1.14591
-1.14603
-1.14605
-1.14599
-1.14585
-1.14564
-1.14536
-1.14502
-1.14464
-1.14423
-1.14382
-1.14344
-1.14312
-1.1429
-1.14281
-1.14287
-1.14306
-1.14334
-1.14366
-1.14395
-1.14415
-1.14425
-1.14421
-1.14406
-1.14381
-1.14346
-1.14305
-1.1426
-1.14212
-1.14166
-1.14123
-1.14086
-1.14057
-1.14038
-1.14029
-1.1403
-1.14039
-1.14053
-1.14068
-1.14086
-1.30275
-1.30252
-1.30239
-1.30227
-1.30222
-1.30227
-1.30243
-1.3027
-1.30308
-1.30356
-1.30411
-1.30471
-1.30532
-1.30593
-1.30651
-1.30704
-1.30751
-1.30791
-1.30823
-1.30845
-1.30859
-1.30863
-1.30859
-1.30846
-1.30824
-1.30794
-1.30758
-1.30715
-1.30668
-1.30619
-1.3057
-1.30526
-1.30489
-1.30465
-1.30458
-1.30469
-1.30496
-1.30534
-1.30575
-1.30613
-1.30643
-1.3066
-1.30665
-1.30658
-1.30639
-1.30612
-1.30577
-1.30538
-1.30497
-1.30455
-1.30416
-1.30383
-1.30356
-1.30339
-1.30332
-1.30333
-1.30341
-1.30355
-1.30368
-1.30386
-1.46586
-1.46563
-1.4655
-1.46539
-1.46536
-1.46541
-1.46558
-1.46587
-1.46625
-1.46673
-1.46728
-1.46786
-1.46846
-1.46904
-1.46959
-1.47009
-1.47052
-1.47087
-1.47114
-1.47131
-1.4714
-1.47139
-1.47128
-1.47109
-1.47081
-1.47045
-1.47002
-1.46953
-1.469
-1.46844
-1.4679
-1.4674
-1.46701
-1.46677
-1.46672
-1.46688
-1.46722
-1.46767
-1.46816
-1.46861
-1.46897
-1.4692
-1.46931
-1.4693
-1.46917
-1.46895
-1.46866
-1.46832
-1.46794
-1.46756
-1.4672
-1.46688
-1.46663
-1.46647
-1.46639
-1.4664
-1.46647
-1.4666
-1.46672
-1.4669
-1.62897
-1.62873
-1.62861
-1.62851
-1.62849
-1.62857
-1.62875
-1.62905
-1.62945
-1.62993
-1.63047
-1.63105
-1.63163
-1.63219
-1.63272
-1.63318
-1.63358
-1.63389
-1.63411
-1.63424
-1.63428
-1.63423
-1.63408
-1.63384
-1.63352
-1.63312
-1.63264
-1.63211
-1.63153
-1.63093
-1.63034
-1.62982
-1.62941
-1.62918
-1.62916
-1.62936
-1.62975
-1.63026
-1.6308
-1.6313
-1.6317
-1.63197
-1.63212
-1.63215
-1.63207
-1.6319
-1.63165
-1.63134
-1.631
-1.63064
-1.63029
-1.62999
-1.62974
-1.62957
-1.62949
-1.62948
-1.62954
-1.62966
-1.62977
-1.62997
-1.79206
-1.79181
-1.7917
-1.79161
-1.79161
-1.79171
-1.79191
-1.79222
-1.79264
-1.79313
-1.79367
-1.79424
-1.79481
-1.79535
-1.79585
-1.79628
-1.79665
-1.79692
-1.79711
-1.7972
-1.79721
-1.79712
-1.79694
-1.79667
-1.79632
-1.79589
-1.79538
-1.79482
-1.79422
-1.79359
-1.79299
-1.79246
-1.79205
-1.79182
-1.79183
-1.79207
-1.79249
-1.79303
-1.7936
-1.79412
-1.79455
-1.79485
-1.79504
-1.7951
-1.79506
-1.79492
-1.7947
-1.79442
-1.79409
-1.79375
-1.79341
-1.79311
-1.79286
-1.79268
-1.79258
-1.79256
-1.79261
-1.79271
-1.79283
-1.79303
-1.95513
-1.95487
-1.95476
-1.95469
-1.9547
-1.95482
-1.95504
-1.95538
-1.9558
-1.9563
-1.95685
-1.95741
-1.95797
-1.95849
-1.95896
-1.95937
-1.9597
-1.95994
-1.9601
-1.96017
-1.96014
-1.96003
-1.95982
-1.95954
-1.95917
-1.95872
-1.95821
-1.95763
-1.95702
-1.95639
-1.95578
-1.95525
-1.95485
-1.95464
-1.95467
-1.95493
-1.95538
-1.95593
-1.95652
-1.95705
-1.95748
-1.95781
-1.95801
-1.9581
-1.95808
-1.95797
-1.95778
-1.95752
-1.95721
-1.95687
-1.95654
-1.95623
-1.95597
-1.95577
-1.95566
-1.95562
-1.95566
-1.95575
-1.95586
-1.95608
-2.11815
-2.11789
-2.11778
-2.11772
-2.11776
-2.11789
-2.11814
-2.1185
-2.11894
-2.11944
-2.11999
-2.12054
-2.12108
-2.12159
-2.12203
-2.12241
-2.12271
-2.12293
-2.12306
-2.1231
-2.12306
-2.12293
-2.12271
-2.12241
-2.12204
-2.12159
-2.12107
-2.1205
-2.11989
-2.11927
-2.11867
-2.11815
-2.11777
-2.11758
-2.11762
-2.1179
-2.11835
-2.11891
-2.11949
-2.12003
-2.12047
-2.1208
-2.12101
-2.12112
-2.12113
-2.12104
-2.12087
-2.12062
-2.12032
-2.11999
-2.11965
-2.11933
-2.11906
-2.11885
-2.11871
-2.11866
-2.11868
-2.11877
-2.11888
-2.11911
-2.28114
-2.28086
-2.28077
-2.28072
-2.28077
-2.28093
-2.2812
-2.28157
-2.28203
-2.28254
-2.28308
-2.28362
-2.28415
-2.28463
-2.28505
-2.2854
-2.28568
-2.28587
-2.28598
-2.286
-2.28594
-2.2858
-2.28557
-2.28527
-2.2849
-2.28446
-2.28395
-2.28339
-2.2828
-2.28219
-2.28161
-2.28111
-2.28075
-2.28058
-2.28064
-2.28092
-2.28138
-2.28193
-2.2825
-2.28303
-2.28347
-2.2838
-2.28403
-2.28415
-2.28418
-2.2841
-2.28395
-2.28372
-2.28343
-2.2831
-2.28275
-2.28242
-2.28213
-2.2819
-2.28174
-2.28167
-2.28168
-2.28176
-2.28186
-2.28211
-2.44407
-2.44379
-2.4437
-2.44366
-2.44373
-2.44391
-2.44421
-2.44459
-2.44506
-2.44557
-2.44611
-2.44664
-2.44714
-2.4476
-2.448
-2.44833
-2.44858
-2.44875
-2.44884
-2.44884
-2.44877
-2.44862
-2.4484
-2.4481
-2.44774
-2.44731
-2.44682
-2.44628
-2.44571
-2.44513
-2.44457
-2.4441
-2.44376
-2.44361
-2.44368
-2.44397
-2.44442
-2.44496
-2.44552
-2.44604
-2.44647
-2.44681
-2.44704
-2.44718
-2.44721
-2.44716
-2.44701
-2.44679
-2.44651
-2.44618
-2.44583
-2.44548
-2.44517
-2.44491
-2.44474
-2.44464
-2.44463
-2.44471
-2.44481
-2.44507
-2.60694
-2.60666
-2.60658
-2.60656
-2.60664
-2.60684
-2.60715
-2.60756
-2.60803
-2.60854
-2.60907
-2.60959
-2.61007
-2.6105
-2.61087
-2.61118
-2.6114
-2.61155
-2.61163
-2.61162
-2.61155
-2.61139
-2.61117
-2.61089
-2.61054
-2.61012
-2.60966
-2.60914
-2.6086
-2.60805
-2.60752
-2.60708
-2.60676
-2.60663
-2.60672
-2.607
-2.60745
-2.60798
-2.60852
-2.60903
-2.60946
-2.60979
-2.61004
-2.61018
-2.61023
-2.61018
-2.61005
-2.60984
-2.60955
-2.60922
-2.60887
-2.60851
-2.60817
-2.6079
-2.60769
-2.60758
-2.60755
-2.60761
-2.60771
-2.60798
-2.76976
-2.76948
-2.7694
-2.76939
-2.7695
-2.76972
-2.77004
-2.77045
-2.77093
-2.77144
-2.77195
-2.77245
-2.77291
-2.77332
-2.77367
-2.77395
-2.77415
-2.77429
-2.77435
-2.77433
-2.77425
-2.7741
-2.77389
-2.77362
-2.77328
-2.77289
-2.77245
-2.77196
-2.77145
-2.77093
-2.77044
-2.77002
-2.76974
-2.76963
-2.76972
-2.77001
-2.77045
-2.77097
-2.7715
-2.77199
-2.77241
-2.77275
-2.773
-2.77315
-2.77321
-2.77317
-2.77305
-2.77284
-2.77257
-2.77223
-2.77187
-2.77149
-2.77114
-2.77084
-2.77061
-2.77047
-2.77042
-2.77047
-2.77057
-2.77084
-2.93251
-2.93223
-2.93216
-2.93216
-2.93228
-2.93252
-2.93286
-2.93328
-2.93376
-2.93426
-2.93476
-2.93523
-2.93567
-2.93606
-2.93638
-2.93663
-2.93682
-2.93694
-2.93699
-2.93697
-2.93689
-2.93675
-2.93654
-2.93628
-2.93597
-2.9356
-2.93518
-2.93472
-2.93424
-2.93376
-2.9333
-2.93292
-2.93266
-2.93258
-2.93268
-2.93297
-2.9334
-2.93391
-2.93443
-2.93491
-2.93533
-2.93567
-2.93592
-2.93608
-2.93614
-2.93612
-2.936
-2.9358
-2.93553
-2.93519
-2.93482
-2.93443
-2.93406
-2.93373
-2.93347
-2.93331
-2.93324
-2.93328
-2.93337
-2.93365
-3.09519
-3.09491
-3.09486
-3.09487
-3.095
-3.09525
-3.0956
-3.09603
-3.0965
-3.09699
-3.09747
-3.09793
-3.09834
-3.0987
-3.099
-3.09924
-3.09941
-3.09952
-3.09956
-3.09954
-3.09946
-3.09932
-3.09913
-3.09888
-3.09858
-3.09824
-3.09785
-3.09742
-3.09697
-3.09652
-3.0961
-3.09575
-3.09552
-3.09546
-3.09558
-3.09587
-3.09629
-3.09679
-3.0973
-3.09778
-3.09819
-3.09853
-3.09879
-3.09895
-3.09902
-3.099
-3.0989
-3.0987
-3.09843
-3.0981
-3.09771
-3.09731
-3.09692
-3.09656
-3.09628
-3.09609
-3.096
-3.09603
-3.09611
-3.0964
-3.25779
-3.25752
-3.25748
-3.2575
-3.25765
-3.25791
-3.25827
-3.2587
-3.25916
-3.25964
-3.2601
-3.26054
-3.26093
-3.26127
-3.26154
-3.26176
-3.26192
-3.26201
-3.26205
-3.26203
-3.26195
-3.26182
-3.26164
-3.26141
-3.26113
-3.26081
-3.26045
-3.26005
-3.25963
-3.25921
-3.25882
-3.25851
-3.25831
-3.25826
-3.2584
-3.25869
-3.25911
-3.2596
-3.2601
-3.26058
-3.26099
-3.26133
-3.26159
-3.26176
-3.26184
-3.26183
-3.26173
-3.26154
-3.26127
-3.26093
-3.26055
-3.26013
-3.25972
-3.25934
-3.25903
-3.25881
-3.2587
-3.25872
-3.25879
-3.25908
-3.42032
-3.42006
-3.42002
-3.42006
-3.42022
-3.42049
-3.42086
-3.42128
-3.42174
-3.4222
-3.42265
-3.42306
-3.42343
-3.42374
-3.424
-3.4242
-3.42434
-3.42443
-3.42446
-3.42444
-3.42437
-3.42425
-3.42408
-3.42387
-3.42361
-3.42331
-3.42297
-3.4226
-3.42221
-3.42182
-3.42147
-3.42118
-3.42101
-3.42099
-3.42113
-3.42143
-3.42185
-3.42234
-3.42283
-3.42331
-3.42372
-3.42406
-3.42432
-3.4245
-3.42458
-3.42458
-3.42448
-3.4243
-3.42403
-3.4237
-3.4233
-3.42288
-3.42245
-3.42205
-3.42171
-3.42147
-3.42134
-3.42133
-3.42139
-3.42169
-3.58277
-3.58252
-3.58249
-3.58254
-3.58271
-3.58299
-3.58336
-3.58378
-3.58423
-3.58467
-3.5851
-3.58549
-3.58584
-3.58613
-3.58638
-3.58656
-3.5867
-3.58678
-3.58681
-3.58679
-3.58672
-3.58661
-3.58645
-3.58626
-3.58602
-3.58574
-3.58542
-3.58508
-3.58471
-3.58435
-3.58403
-3.58377
-3.58362
-3.58362
-3.58377
-3.58408
-3.5845
-3.58498
-3.58548
-3.58595
-3.58637
-3.58671
-3.58698
-3.58716
-3.58725
-3.58725
-3.58716
-3.58698
-3.58671
-3.58638
-3.58598
-3.58555
-3.5851
-3.58468
-3.58432
-3.58405
-3.58389
-3.58387
-3.58392
-3.58422
-3.74513
-3.74489
-3.74487
-3.74494
-3.74512
-3.74541
-3.74578
-3.74619
-3.74663
-3.74706
-3.74747
-3.74784
-3.74817
-3.74845
-3.74867
-3.74885
-3.74897
-3.74905
-3.74908
-3.74906
-3.749
-3.7489
-3.74876
-3.74857
-3.74835
-3.74809
-3.74779
-3.74747
-3.74713
-3.7468
-3.7465
-3.74626
-3.74614
-3.74615
-3.74632
-3.74663
-3.74705
-3.74753
-3.74803
-3.7485
-3.74892
-3.74927
-3.74954
-3.74972
-3.74982
-3.74982
-3.74974
-3.74956
-3.7493
-3.74897
-3.74857
-3.74813
-3.74767
-3.74723
-3.74685
-3.74655
-3.74637
-3.74633
-3.74637
-3.74666
-3.90741
-3.90718
-3.90717
-3.90725
-3.90744
-3.90774
-3.9081
-3.90851
-3.90894
-3.90936
-3.90975
-3.9101
-3.91042
-3.91068
-3.9109
-3.91106
-3.91118
-3.91126
-3.91128
-3.91127
-3.91122
-3.91112
-3.91099
-3.91082
-3.91061
-3.91037
-3.91009
-3.90979
-3.90947
-3.90916
-3.90887
-3.90866
-3.90855
-3.90858
-3.90876
-3.90907
-3.9095
-3.90998
-3.91048
-3.91096
-3.91138
-3.91173
-3.91201
-3.9122
-3.9123
-3.91231
-3.91222
-3.91205
-3.9118
-3.91146
-3.91106
-3.91061
-3.91015
-3.90969
-3.90928
-3.90896
-3.90876
-3.9087
-3.90872
-3.90901
-4.06961
-4.06939
-4.06939
-4.06947
-4.06968
-4.06998
-4.07035
-4.07075
-4.07117
-4.07157
-4.07195
-4.07229
-4.07259
-4.07284
-4.07305
-4.07321
-4.07332
-4.0734
-4.07343
-4.07342
-4.07337
-4.07329
-4.07316
-4.073
-4.07281
-4.07258
-4.07231
-4.07202
-4.07172
-4.07142
-4.07116
-4.07096
-4.07087
-4.07091
-4.07109
-4.07141
-4.07184
-4.07232
-4.07283
-4.07331
-4.07373
-4.07409
-4.07437
-4.07457
-4.07467
-4.07468
-4.07461
-4.07444
-4.07418
-4.07385
-4.07345
-4.073
-4.07252
-4.07205
-4.07162
-4.07128
-4.07105
-4.07097
-4.07098
-4.07126
-4.23171
-4.2315
-4.23151
-4.23161
-4.23183
-4.23213
-4.2325
-4.2329
-4.23331
-4.2337
-4.23407
-4.2344
-4.23468
-4.23493
-4.23513
-4.23529
-4.2354
-4.23547
-4.23551
-4.2355
-4.23546
-4.23538
-4.23527
-4.23512
-4.23493
-4.23471
-4.23446
-4.23418
-4.23389
-4.2336
-4.23335
-4.23317
-4.23308
-4.23313
-4.23331
-4.23364
-4.23407
-4.23455
-4.23506
-4.23555
-4.23598
-4.23634
-4.23663
-4.23683
-4.23694
-4.23695
-4.23688
-4.23671
-4.23646
-4.23613
-4.23573
-4.23527
-4.23479
-4.23431
-4.23386
-4.2335
-4.23325
-4.23314
-4.23314
-4.23341
-4.39372
-4.39353
-4.39355
-4.39366
-4.39388
-4.39419
-4.39456
-4.39496
-4.39536
-4.39575
-4.3961
-4.39643
-4.39671
-4.39695
-4.39715
-4.3973
-4.39742
-4.39749
-4.39753
-4.39753
-4.39749
-4.39742
-4.39731
-4.39717
-4.39699
-4.39678
-4.39653
-4.39626
-4.39597
-4.3957
-4.39545
-4.39527
-4.39519
-4.39524
-4.39543
-4.39575
-4.39618
-4.39667
-4.39718
-4.39767
-4.39811
-4.39848
-4.39877
-4.39898
-4.39909
-4.39911
-4.39904
-4.39888
-4.39863
-4.3983
-4.39789
-4.39744
-4.39695
-4.39645
-4.39599
-4.39561
-4.39533
-4.39521
-4.39519
-4.39545
-4.55563
-4.55546
-4.55549
-4.55562
-4.55585
-4.55617
-4.55654
-4.55693
-4.55733
-4.55771
-4.55806
-4.55838
-4.55866
-4.5589
-4.5591
-4.55926
-4.55937
-4.55945
-4.55949
-4.5595
-4.55947
-4.5594
-4.5593
-4.55916
-4.55898
-4.55877
-4.55853
-4.55826
-4.55797
-4.5577
-4.55745
-4.55727
-4.55719
-4.55724
-4.55742
-4.55774
-4.55817
-4.55866
-4.55917
-4.55967
-4.56012
-4.5605
-4.5608
-4.56101
-4.56113
-4.56115
-4.56108
-4.56092
-4.56067
-4.56034
-4.55994
-4.55948
-4.55899
-4.55849
-4.55801
-4.55761
-4.55731
-4.55717
-4.55713
-4.55737
-4.71745
-4.7173
-4.71734
-4.71748
-4.71772
-4.71805
-4.71842
-4.71882
-4.71922
-4.7196
-4.71995
-4.72027
-4.72055
-4.72079
-4.72099
-4.72115
-4.72127
-4.72136
-4.7214
-4.72141
-4.72139
-4.72132
-4.72122
-4.72108
-4.72091
-4.72069
-4.72045
-4.72018
-4.71989
-4.71961
-4.71936
-4.71917
-4.71908
-4.71912
-4.7193
-4.71961
-4.72004
-4.72053
-4.72105
-4.72155
-4.72201
-4.7224
-4.7227
-4.72292
-4.72305
-4.72307
-4.72301
-4.72285
-4.7226
-4.72227
-4.72187
-4.72141
-4.72091
-4.7204
-4.71991
-4.71949
-4.71918
-4.71901
-4.71896
-4.71918
-4.87918
-4.87904
-4.8791
-4.87925
-4.87951
-4.87984
-4.88022
-4.88062
-4.88102
-4.8814
-4.88176
-4.88208
-4.88236
-4.88261
-4.88282
-4.88299
-4.88312
-4.88321
-4.88326
-4.88327
-4.88325
-4.88319
-4.88308
-4.88294
-4.88277
-4.88255
-4.88229
-4.88201
-4.88172
-4.88142
-4.88116
-4.88096
-4.88086
-4.88089
-4.88106
-4.88136
-4.88178
-4.88227
-4.88279
-4.8833
-4.88377
-4.88417
-4.88449
-4.88471
-4.88484
-4.88487
-4.88481
-4.88465
-4.8844
-4.88407
-4.88367
-4.88321
-4.88271
-4.88219
-4.88169
-4.88126
-4.88093
-4.88074
-4.88067
-4.88087
-5.04081
-5.04069
-5.04077
-5.04093
-5.0412
-5.04154
-5.04193
-5.04234
-5.04274
-5.04313
-5.04349
-5.04382
-5.04411
-5.04437
-5.04459
-5.04476
-5.0449
-5.045
-5.04506
-5.04507
-5.04505
-5.04499
-5.04489
-5.04474
-5.04456
-5.04433
-5.04407
-5.04377
-5.04346
-5.04315
-5.04287
-5.04265
-5.04254
-5.04254
-5.0427
-5.04299
-5.0434
-5.04388
-5.04441
-5.04493
-5.0454
-5.04581
-5.04614
-5.04638
-5.04651
-5.04655
-5.04649
-5.04633
-5.04608
-5.04575
-5.04535
-5.04489
-5.04438
-5.04386
-5.04335
-5.0429
-5.04255
-5.04235
-5.04226
-5.04243
-5.20235
-5.20225
-5.20234
-5.20252
-5.2028
-5.20315
-5.20355
-5.20397
-5.20438
-5.20478
-5.20515
-5.20549
-5.2058
-5.20606
-5.20629
-5.20648
-5.20663
-5.20673
-5.2068
-5.20682
-5.2068
-5.20673
-5.20663
-5.20648
-5.20628
-5.20604
-5.20576
-5.20544
-5.20511
-5.20478
-5.20448
-5.20424
-5.20409
-5.20408
-5.20421
-5.20449
-5.20488
-5.20537
-5.20589
-5.20642
-5.20691
-5.20733
-5.20767
-5.20791
-5.20806
-5.2081
-5.20804
-5.20789
-5.20764
-5.20731
-5.2069
-5.20644
-5.20593
-5.2054
-5.20489
-5.20443
-5.20406
-5.20383
-5.20373
-5.20387
-5.36379
-5.36372
-5.36382
-5.36401
-5.36431
-5.36467
-5.36508
-5.36551
-5.36594
-5.36635
-5.36673
-5.36709
-5.36741
-5.36769
-5.36794
-5.36814
-5.3683
-5.36841
-5.36848
-5.36851
-5.36848
-5.36842
-5.3683
-5.36814
-5.36793
-5.36767
-5.36737
-5.36703
-5.36667
-5.36631
-5.36598
-5.36571
-5.36554
-5.3655
-5.36561
-5.36586
-5.36624
-5.36672
-5.36725
-5.36778
-5.36828
-5.36871
-5.36907
-5.36932
-5.36948
-5.36953
-5.36947
-5.36932
-5.36907
-5.36874
-5.36833
-5.36786
-5.36735
-5.36682
-5.3663
-5.36583
-5.36545
-5.3652
-5.36508
-5.3652
-5.52513
-5.52509
-5.52521
-5.52542
-5.52573
-5.52611
-5.52653
-5.52697
-5.52741
-5.52784
-5.52824
-5.52861
-5.52895
-5.52925
-5.52951
-5.52973
-5.5299
-5.53003
-5.5301
-5.53013
-5.53011
-5.53003
-5.52991
-5.52973
-5.5295
-5.52922
-5.52889
-5.52853
-5.52814
-5.52774
-5.52738
-5.52707
-5.52687
-5.5268
-5.52688
-5.52711
-5.52748
-5.52795
-5.52847
-5.52901
-5.52952
-5.52997
-5.53033
-5.5306
-5.53077
-5.53083
-5.53078
-5.53063
-5.53038
-5.53005
-5.52964
-5.52916
-5.52865
-5.52811
-5.52759
-5.52711
-5.52672
-5.52645
-5.52632
-5.5264
-5.68639
-5.68638
-5.68651
-5.68673
-5.68706
-5.68745
-5.68789
-5.68834
-5.6888
-5.68925
-5.68967
-5.69006
-5.69042
-5.69075
-5.69103
-5.69126
-5.69144
-5.69158
-5.69166
-5.69169
-5.69166
-5.69158
-5.69145
-5.69125
-5.691
-5.69069
-5.69033
-5.68993
-5.68951
-5.68907
-5.68867
-5.68833
-5.68809
-5.68798
-5.68803
-5.68824
-5.68859
-5.68904
-5.68957
-5.69011
-5.69063
-5.69109
-5.69147
-5.69176
-5.69194
-5.692
-5.69196
-5.69181
-5.69157
-5.69123
-5.69082
-5.69035
-5.68983
-5.68929
-5.68876
-5.68827
-5.68787
-5.68759
-5.68743
-5.68748
-5.84756
-5.84758
-5.84772
-5.84797
-5.8483
-5.84871
-5.84916
-5.84964
-5.85011
-5.85058
-5.85102
-5.85144
-5.85182
-5.85217
-5.85247
-5.85272
-5.85292
-5.85306
-5.85315
-5.85318
-5.85315
-5.85306
-5.85291
-5.85269
-5.85241
-5.85208
-5.85168
-5.85124
-5.85078
-5.8503
-5.84986
-5.84947
-5.84919
-5.84905
-5.84906
-5.84924
-5.84957
-5.85002
-5.85054
-5.85108
-5.85161
-5.85209
-5.85249
-5.85279
-5.85298
-5.85306
-5.85303
-5.85288
-5.85264
-5.8523
-5.85189
-5.85141
-5.85089
-5.85035
-5.84981
-5.84932
-5.84891
-5.84861
-5.84844
-5.84845
-6.00864
-6.0087
-6.00885
-6.00912
-6.00947
-6.00989
-6.01036
-6.01085
-6.01134
-6.01183
-6.0123
-6.01274
-6.01315
-6.01352
-6.01384
-6.01411
-6.01432
-6.01447
-6.01457
-6.01459
-6.01456
-6.01446
-6.01429
-6.01405
-6.01374
-6.01337
-6.01294
-6.01246
-6.01195
-6.01143
-6.01093
-6.01051
-6.01018
-6.01
-6.00998
-6.01013
-6.01044
-6.01087
-6.01139
-6.01194
-6.01248
-6.01297
-6.01338
-6.0137
-6.01391
-6.014
-6.01398
-6.01384
-6.0136
-6.01326
-6.01285
-6.01237
-6.01184
-6.0113
-6.01076
-6.01026
-6.00984
-6.00953
-6.00935
-6.00932
-6.16965
-6.16974
-6.16992
-6.17019
-6.17056
-6.17099
-6.17147
-6.17198
-6.17249
-6.173
-6.17349
-6.17396
-6.1744
-6.17479
-6.17513
-6.17542
-6.17565
-6.17581
-6.17591
-6.17593
-6.17589
-6.17577
-6.17558
-6.17532
-6.17498
-6.17457
-6.1741
-6.17357
-6.17301
-6.17245
-6.17191
-6.17143
-6.17107
-6.17084
-6.17079
-6.17091
-6.1712
-6.17161
-6.17212
-6.17267
-6.17322
-6.17373
-6.17416
-6.1745
-6.17472
-6.17483
-6.17481
-6.17469
-6.17445
-6.17411
-6.1737
-6.17322
-6.1727
-6.17215
-6.17161
-6.17111
-6.17068
-6.17036
-6.17016
-6.17009
-6.3306
-6.33073
-6.33091
-6.3312
-6.33158
-6.33203
-6.33252
-6.33304
-6.33357
-6.3341
-6.33462
-6.33511
-6.33557
-6.33599
-6.33635
-6.33666
-6.3369
-6.33707
-6.33717
-6.33719
-6.33714
-6.337
-6.33679
-6.3365
-6.33612
-6.33567
-6.33516
-6.33458
-6.33398
-6.33336
-6.33277
-6.33225
-6.33185
-6.33158
-6.33149
-6.33159
-6.33185
-6.33225
-6.33275
-6.3333
-6.33386
-6.33438
-6.33483
-6.33519
-6.33543
-6.33555
-6.33555
-6.33543
-6.3352
-6.33487
-6.33446
-6.33398
-6.33345
-6.33291
-6.33237
-6.33186
-6.33143
-6.33109
-6.33089
-6.33077
-6.49149
-6.49166
-6.49185
-6.49216
-6.49254
-6.49299
-6.4935
-6.49403
-6.49458
-6.49513
-6.49567
-6.49619
-6.49667
-6.49711
-6.49749
-6.49781
-6.49807
-6.49825
-6.49835
-6.49836
-6.4983
-6.49815
-6.49791
-6.49758
-6.49717
-6.49668
-6.49612
-6.49549
-6.49484
-6.49417
-6.49354
-6.49298
-6.49253
-6.49223
-6.4921
-6.49217
-6.4924
-6.49279
-6.49328
-6.49384
-6.4944
-6.49494
-6.49541
-6.49578
-6.49604
-6.49618
-6.4962
-6.49609
-6.49586
-6.49554
-6.49513
-6.49465
-6.49413
-6.49359
-6.49304
-6.49254
-6.4921
-6.49176
-6.49154
-6.49138
-6.65233
-6.65254
-6.65275
-6.65306
-6.65345
-6.65391
-6.65442
-6.65496
-6.65553
-6.65609
-6.65665
-6.65719
-6.6577
-6.65815
-6.65856
-6.65889
-6.65916
-6.65934
-6.65944
-6.65945
-6.65937
-6.6592
-6.65893
-6.65857
-6.65812
-6.65758
-6.65697
-6.65631
-6.6556
-6.65489
-6.65421
-6.65361
-6.65312
-6.65278
-6.65263
-6.65266
-6.65288
-6.65325
-6.65374
-6.65429
-6.65486
-6.65541
-6.65589
-6.65629
-6.65657
-6.65673
-6.65676
-6.65666
-6.65645
-6.65613
-6.65573
-6.65526
-6.65474
-6.65419
-6.65366
-6.65315
-6.65271
-6.65236
-6.65213
-6.65193
-6.81316
-6.81341
-6.81362
-6.81394
-6.81433
-6.81479
-6.8153
-6.81585
-6.81642
-6.817
-6.81758
-6.81813
-6.81865
-6.81913
-6.81955
-6.8199
-6.82017
-6.82035
-6.82045
-6.82045
-6.82035
-6.82015
-6.81986
-6.81946
-6.81897
-6.81839
-6.81774
-6.81702
-6.81627
-6.81552
-6.8148
-6.81415
-6.81363
-6.81326
-6.81308
-6.81309
-6.81329
-6.81364
-6.81412
-6.81467
-6.81525
-6.81581
-6.81631
-6.81672
-6.81702
-6.8172
-6.81725
-6.81717
-6.81697
-6.81667
-6.81627
-6.8158
-6.81529
-6.81475
-6.81422
-6.81371
-6.81328
-6.81292
-6.81268
-6.81243
-6.97397
-6.97426
-6.97448
-6.9748
-6.97519
-6.97564
-6.97615
-6.9767
-6.97728
-6.97787
-6.97845
-6.97902
-6.97955
-6.98004
-6.98047
-6.98082
-6.9811
-6.98128
-6.98137
-6.98136
-6.98124
-6.98102
-6.98069
-6.98026
-6.97973
-6.97911
-6.97841
-6.97765
-6.97686
-6.97606
-6.9753
-6.97463
-6.97408
-6.97368
-6.97348
-6.97346
-6.97364
-6.97398
-6.97445
-6.975
-6.97558
-6.97615
-6.97667
-6.9771
-6.97742
-6.97762
-6.97769
-6.97763
-6.97745
-6.97716
-6.97677
-6.97631
-6.9758
-6.97527
-6.97474
-6.97425
-6.97381
-6.97345
-6.9732
-6.97291
-7.13479
-7.13512
-7.13534
-7.13566
-7.13604
-7.13649
-7.13699
-7.13754
-7.13811
-7.1387
-7.13929
-7.13986
-7.1404
-7.1409
-7.14133
-7.14168
-7.14196
-7.14214
-7.14221
-7.14218
-7.14205
-7.1418
-7.14144
-7.14098
-7.14041
-7.13974
-7.139
-7.1382
-7.13737
-7.13654
-7.13575
-7.13505
-7.13447
-7.13405
-7.13383
-7.1338
-7.13396
-7.13429
-7.13475
-7.13529
-7.13588
-7.13646
-7.13699
-7.13744
-7.13778
-7.13801
-7.1381
-7.13806
-7.13789
-7.13761
-7.13724
-7.1368
-7.1363
-7.13578
-7.13526
-7.13476
-7.13433
-7.13397
-7.13372
-7.13339
-7.29564
-7.29601
-7.29623
-7.29654
-7.29691
-7.29735
-7.29784
-7.29837
-7.29894
-7.29952
-7.3001
-7.30067
-7.30121
-7.30171
-7.30213
-7.30249
-7.30275
-7.30292
-7.30298
-7.30294
-7.30278
-7.3025
-7.30211
-7.30161
-7.301
-7.3003
-7.29952
-7.29868
-7.29782
-7.29696
-7.29615
-7.29542
-7.29483
-7.2944
-7.29416
-7.29411
-7.29426
-7.29458
-7.29503
-7.29557
-7.29616
-7.29675
-7.29729
-7.29776
-7.29812
-7.29837
-7.29848
-7.29846
-7.29832
-7.29806
-7.29771
-7.29727
-7.29679
-7.29628
-7.29577
-7.29529
-7.29487
-7.2945
-7.29426
-7.29388
-7.45655
-7.45695
-7.45716
-7.45747
-7.45782
-7.45824
-7.45871
-7.45923
-7.45978
-7.46034
-7.46091
-7.46147
-7.462
-7.46248
-7.4629
-7.46325
-7.4635
-7.46365
-7.4637
-7.46363
-7.46344
-7.46314
-7.46272
-7.46218
-7.46154
-7.4608
-7.45998
-7.45912
-7.45822
-7.45734
-7.45651
-7.45578
-7.45517
-7.45473
-7.45448
-7.45442
-7.45456
-7.45487
-7.45531
-7.45585
-7.45644
-7.45704
-7.45759
-7.45808
-7.45846
-7.45873
-7.45887
-7.45887
-7.45875
-7.45851
-7.45818
-7.45777
-7.4573
-7.45681
-7.45632
-7.45585
-7.45544
-7.45508
-7.45483
-7.45441
-7.61753
-7.61796
-7.61817
-7.61846
-7.6188
-7.61919
-7.61964
-7.62013
-7.62065
-7.6212
-7.62174
-7.62228
-7.62279
-7.62325
-7.62365
-7.62397
-7.62421
-7.62434
-7.62436
-7.62427
-7.62405
-7.62372
-7.62327
-7.6227
-7.62202
-7.62125
-7.62041
-7.61952
-7.61861
-7.61771
-7.61687
-7.61613
-7.61552
-7.61507
-7.61482
-7.61475
-7.61488
-7.61518
-7.61562
-7.61616
-7.61675
-7.61735
-7.61791
-7.61841
-7.61882
-7.61911
-7.61927
-7.6193
-7.61921
-7.619
-7.61869
-7.6183
-7.61785
-7.61738
-7.61691
-7.61646
-7.61606
-7.61571
-7.61546
-7.615
-7.77861
-7.77906
-7.77926
-7.77954
-7.77985
-7.78022
-7.78064
-7.7811
-7.78159
-7.7821
-7.78261
-7.78312
-7.78359
-7.78403
-7.7844
-7.78469
-7.7849
-7.785
-7.785
-7.78487
-7.78463
-7.78427
-7.78378
-7.78318
-7.78248
-7.78169
-7.78082
-7.77991
-7.77899
-7.77808
-7.77724
-7.77649
-7.77589
-7.77544
-7.77519
-7.77512
-7.77525
-7.77554
-7.77597
-7.7765
-7.77709
-7.7777
-7.77827
-7.77878
-7.77921
-7.77952
-7.77971
-7.77977
-7.7797
-7.77952
-7.77924
-7.77888
-7.77847
-7.77802
-7.77757
-7.77715
-7.77677
-7.77642
-7.77618
-7.77568
-7.9398
-7.94027
-7.94047
-7.94073
-7.94102
-7.94135
-7.94173
-7.94215
-7.94261
-7.94307
-7.94355
-7.94401
-7.94444
-7.94483
-7.94516
-7.94542
-7.94559
-7.94566
-7.94562
-7.94547
-7.9452
-7.9448
-7.94429
-7.94366
-7.94294
-7.94212
-7.94124
-7.94032
-7.93939
-7.93848
-7.93764
-7.9369
-7.9363
-7.93586
-7.93561
-7.93555
-7.93567
-7.93596
-7.93639
-7.93691
-7.9375
-7.9381
-7.93869
-7.93921
-7.93965
-7.93999
-7.9402
-7.94029
-7.94026
-7.94011
-7.93987
-7.93954
-7.93916
-7.93875
-7.93833
-7.93793
-7.93757
-7.93724
-7.93701
-7.93648
-8.10113
-8.10161
-8.1018
-8.10204
-8.1023
-8.1026
-8.10295
-8.10332
-8.10373
-8.10414
-8.10456
-8.10497
-8.10535
-8.10569
-8.10597
-8.10618
-8.10631
-8.10634
-8.10626
-8.10608
-8.10577
-8.10535
-8.10481
-8.10416
-8.10341
-8.10258
-8.10169
-8.10076
-8.09983
-8.09893
-8.0981
-8.09737
-8.09678
-8.09635
-8.09611
-8.09605
-8.09617
-8.09646
-8.09688
-8.0974
-8.09798
-8.09859
-8.09917
-8.09971
-8.10017
-8.10052
-8.10077
-8.10089
-8.10089
-8.10079
-8.10058
-8.1003
-8.09996
-8.09959
-8.09921
-8.09884
-8.09851
-8.0982
-8.09797
-8.09742
-8.2626
-8.2631
-8.26327
-8.2635
-8.26373
-8.26399
-8.26429
-8.26462
-8.26497
-8.26533
-8.26568
-8.26603
-8.26634
-8.26662
-8.26684
-8.267
-8.26708
-8.26706
-8.26694
-8.26672
-8.26638
-8.26593
-8.26536
-8.26469
-8.26393
-8.26308
-8.26219
-8.26126
-8.26033
-8.25945
-8.25863
-8.25792
-8.25734
-8.25693
-8.25669
-8.25664
-8.25676
-8.25704
-8.25746
-8.25798
-8.25856
-8.25916
-8.25975
-8.26029
-8.26077
-8.26114
-8.26141
-8.26157
-8.26162
-8.26156
-8.2614
-8.26117
-8.26088
-8.26056
-8.26023
-8.2599
-8.25961
-8.25932
-8.2591
-8.25853
-8.42424
-8.42474
-8.4249
-8.42511
-8.4253
-8.42553
-8.42577
-8.42605
-8.42634
-8.42663
-8.42692
-8.4272
-8.42744
-8.42765
-8.42781
-8.4279
-8.42792
-8.42785
-8.42769
-8.42742
-8.42705
-8.42657
-8.42598
-8.42529
-8.42451
-8.42366
-8.42276
-8.42184
-8.42093
-8.42005
-8.41925
-8.41856
-8.418
-8.4176
-8.41738
-8.41733
-8.41745
-8.41773
-8.41815
-8.41866
-8.41923
-8.41983
-8.42042
-8.42097
-8.42146
-8.42186
-8.42216
-8.42236
-8.42245
-8.42244
-8.42234
-8.42217
-8.42194
-8.42168
-8.4214
-8.42113
-8.42087
-8.42061
-8.42041
-8.41983
-8.58606
-8.58655
-8.5867
-8.58688
-8.58703
-8.58721
-8.5874
-8.58761
-8.58784
-8.58806
-8.58828
-8.58848
-8.58865
-8.58879
-8.58887
-8.5889
-8.58886
-8.58874
-8.58853
-8.58822
-8.58781
-8.5873
-8.58669
-8.58598
-8.58519
-8.58434
-8.58344
-8.58252
-8.58162
-8.58076
-8.57998
-8.57931
-8.57877
-8.57838
-8.57817
-8.57813
-8.57826
-8.57853
-8.57894
-8.57944
-8.58001