/*--------------------------------*- C++ -*----------------------------------*\
| =========                 |                                                 |
| \\      /  F ield         | OpenFOAM: The Open Source CFD Toolbox           |
|  \\    /   O peration     | Version:  2406                                  |
|   \\  /    A nd           | Website:  www.openfoam.com                      |
|    \\/     M anipulation  |                                                 |
\*---------------------------------------------------------------------------*/
FoamFile
{
    version     2.0;
    format      ascii;
    arch        "LSB;label=32;scalar=64";
    class       volScalarField;
    location    "10000";
    object      p_rgh;
}
// * * * * * * * * * * * * * * * * * * * * * * * * * * * * * * * * * * * * * //

dimensions      [0 2 -2 0 0 0 0];

internalField   nonuniform List<scalar> 
3600
(
0.0813424
0.0807355
0.0799893
0.0792717
0.0785708
0.0778767
0.0771694
0.0764292
0.0756417
0.0747997
0.0739027
0.0729563
0.0719713
0.0709614
0.069942
0.0689289
0.0679371
0.0669797
0.0660677
0.0652094
0.0644105
0.063674
0.0630002
0.0623867
0.0618287
0.0613186
0.0608471
0.0604034
0.0599772
0.0595603
0.0591488
0.0587439
0.058351
0.0579762
0.0576234
0.0572915
0.0569777
0.0566838
0.0564235
0.0562258
0.0561335
0.0561961
0.0564595
0.0569578
0.0577068
0.0587036
0.0599281
0.0613477
0.0629223
0.0646081
0.0663598
0.0681334
0.0698873
0.071584
0.0731917
0.0746858
0.0760461
0.0772487
0.0782906
0.0789473
0.0819162
0.0811119
0.0802628
0.0795078
0.0787893
0.0780819
0.0773629
0.0766137
0.0758223
0.0749828
0.0740953
0.0731654
0.0722029
0.0712203
0.0702317
0.0692514
0.068293
0.0673682
0.066487
0.0656565
0.0648818
0.0641651
0.0635066
0.0629036
0.0623516
0.0618437
0.0613716
0.0609259
0.0604977
0.0600801
0.0596701
0.0592691
0.058882
0.0585147
0.0581708
0.0578508
0.0575536
0.0572831
0.0570553
0.0569005
0.0568611
0.0569833
0.0573082
0.0578631
0.0586576
0.059683
0.0609158
0.0623219
0.063861
0.0654901
0.0671665
0.0688496
0.0705027
0.0720944
0.0736001
0.075004
0.076299
0.0774879
0.0786243
0.0795149
0.082795
0.0819425
0.0810658
0.0802982
0.0795747
0.0788646
0.0781414
0.0773853
0.076584
0.0757324
0.0748317
0.0738884
0.0729131
0.0719191
0.0709207
0.0699324
0.0689677
0.0680384
0.0671541
0.0663214
0.065545
0.0648266
0.0641658
0.0635596
0.0630027
0.0624877
0.0620054
0.0615454
0.0610975
0.0606537
0.0602103
0.0597696
0.0593395
0.0589307
0.058553
0.0582127
0.0579148
0.05767
0.0575004
0.0574411
0.057535
0.0578228
0.0583341
0.0590806
0.0600557
0.0612361
0.062588
0.0640712
0.0656426
0.0672598
0.0688839
0.0704803
0.0720208
0.0734839
0.0748571
0.0761378
0.0773335
0.0784623
0.0795942
0.0805655
0.0836492
0.0828087
0.0819703
0.0812373
0.0805432
0.0798545
0.0791427
0.0783882
0.0775801
0.0767154
0.0757976
0.0748355
0.0738412
0.0728294
0.0718153
0.0708138
0.0698385
0.0689008
0.0680101
0.0671726
0.0663922
0.0656702
0.0650052
0.0643935
0.0638289
0.0633025
0.0628033
0.0623187
0.0618356
0.0613439
0.060839
0.0603253
0.059817
0.0593353
0.0589018
0.0585359
0.058253
0.0580717
0.0580187
0.0581288
0.0584373
0.0589704
0.059737
0.0607275
0.0619159
0.0632653
0.0647344
0.06628
0.0678607
0.0694389
0.0709823
0.0724641
0.0738645
0.0751719
0.0763838
0.0775087
0.0785665
0.0795871
0.0806472
0.0816391
0.0844268
0.0836307
0.0828587
0.0821835
0.0815374
0.0808842
0.0801941
0.0794478
0.0786365
0.0777601
0.076825
0.0758428
0.0748281
0.0737974
0.0727668
0.0717519
0.0707662
0.0698209
0.0689248
0.0680837
0.0673003
0.0665753
0.0659064
0.0652885
0.064714
0.064172
0.0636485
0.0631272
0.0625913
0.0620269
0.0614288
0.0608054
0.0601813
0.0595948
0.0590875
0.0586987
0.058458
0.058391
0.058523
0.0588781
0.0594721
0.0603056
0.061361
0.0626056
0.0639974
0.0654919
0.0670457
0.0686193
0.0701779
0.0716917
0.0731362
0.0744921
0.0757472
0.076897
0.0779466
0.0789126
0.0798243
0.0807206
0.0816796
0.0826453
0.0850952
0.0843516
0.0836393
0.0830139
0.0824077
0.0817826
0.0811077
0.0803647
0.0795471
0.0786575
0.0777058
0.0767067
0.0756773
0.0746353
0.0735981
0.072581
0.0715974
0.0706575
0.0697688
0.0689359
0.0681606
0.0674419
0.0667762
0.0661569
0.0655742
0.0650146
0.0644604
0.0638907
0.0632838
0.0626218
0.061899
0.0611303
0.060356
0.0596389
0.059049
0.0586525
0.0584944
0.0586016
0.0589869
0.0596497
0.0605734
0.061725
0.0630588
0.0645236
0.0660692
0.0676518
0.0692349
0.0707885
0.0722883
0.0737142
0.0750496
0.0762819
0.0774041
0.0784162
0.0793281
0.0801611
0.0809503
0.08174
0.0826057
0.0835207
0.0856555
0.0849526
0.0842722
0.083667
0.0830713
0.0824473
0.0817647
0.0810069
0.0801698
0.0792594
0.0782886
0.0772748
0.0762372
0.0751947
0.0741648
0.0731624
0.0721995
0.0712847
0.0704237
0.0696188
0.0688699
0.0681739
0.067525
0.0669144
0.0663296
0.0657536
0.0651645
0.0645364
0.0638417
0.0630589
0.0621831
0.0612385
0.0602868
0.0594228
0.0587532
0.0583746
0.0583451
0.0586838
0.0593769
0.0603846
0.0616481
0.0630983
0.0646657
0.0662889
0.06792
0.0695243
0.0710794
0.0725692
0.0739821
0.0753079
0.0765375
0.0776632
0.078681
0.0795931
0.0804108
0.0811572
0.0818688
0.0825906
0.0833924
0.084255
0.0861246
0.085436
0.0847486
0.0841228
0.0834964
0.0828349
0.0821108
0.0813103
0.0804327
0.0794869
0.0784891
0.077459
0.0764172
0.0753833
0.0743741
0.0734035
0.0724811
0.0716134
0.0708029
0.0700492
0.069349
0.0686963
0.0680823
0.0674949
0.066918
0.0663305
0.0657055
0.0650115
0.0642153
0.0632923
0.06224
0.0610961
0.0599493
0.0589328
0.0581962
0.057867
0.0580108
0.0586268
0.0596604
0.0610215
0.0626046
0.0643072
0.0660438
0.0677536
0.0694
0.0709653
0.0724451
0.0738398
0.0751507
0.0763772
0.0775162
0.0785632
0.0795154
0.0803747
0.0811513
0.0818666
0.0825549
0.0832572
0.0840356
0.0848637
0.0865263
0.0858168
0.0850803
0.0843906
0.08369
0.0829497
0.0821469
0.0812723
0.0803288
0.0793291
0.0782922
0.0772398
0.0761935
0.0751728
0.0741936
0.0732676
0.0724021
0.0716002
0.0708609
0.0701802
0.0695507
0.0689626
0.0684028
0.067855
0.0672986
0.0667073
0.0660487
0.0652848
0.0643776
0.0633001
0.0620551
0.0606976
0.0593481
0.0581839
0.0574002
0.0571529
0.0575066
0.0584286
0.0598118
0.0615094
0.0633698
0.0652641
0.067101
0.0688293
0.0704314
0.0719113
0.0732844
0.0745679
0.0757754
0.0769143
0.0779861
0.0789882
0.0799169
0.0807722
0.0815609
0.0823002
0.0830189
0.0837507
0.0845499
0.0853739
0.0868855
0.0861166
0.0852907
0.0844969
0.0836822
0.0828252
0.0819092
0.0809304
0.0798962
0.0788233
0.0777333
0.0766497
0.0755946
0.0745872
0.0736418
0.0727677
0.0719693
0.071246
0.070593
0.070002
0.0694609
0.0689554
0.0684673
0.0679751
0.0674522
0.0668664
0.0661787
0.0653448
0.0643217
0.0630817
0.0616358
0.0600597
0.0585103
0.0572116
0.0564043
0.0562675
0.0568554
0.0580928
0.0598132
0.0618117
0.0638957
0.0659187
0.0677929
0.0694845
0.070999
0.0723642
0.0736156
0.0747857
0.0758989
0.0769694
0.0780017
0.0789933
0.0799389
0.0808347
0.0816827
0.0824942
0.0832905
0.0840963
0.0849585
0.0858151
0.0872246
0.0863589
0.0854075
0.0844749
0.0835127
0.0825073
0.0814493
0.0803408
0.0791946
0.0780311
0.0768748
0.0757505
0.0746807
0.0736833
0.0727711
0.0719508
0.0712235
0.070585
0.0700264
0.069535
0.069094
0.0686838
0.0682805
0.0678565
0.0673787
0.0668077
0.0660969
0.0651957
0.0640564
0.0626526
0.0610054
0.0592149
0.0574767
0.0560625
0.0552552
0.0552502
0.0560824
0.0576273
0.0596561
0.0619091
0.0641604
0.0662549
0.0681156
0.069731
0.0711317
0.0723688
0.0734965
0.0745612
0.0755962
0.0766207
0.077641
0.0786539
0.0796513
0.0806249
0.0815711
0.082494
0.0834068
0.0843245
0.0852872
0.086214
0.0875623
0.0865653
0.0854576
0.0843576
0.0832209
0.0820423
0.0808197
0.0795618
0.078287
0.0770196
0.0757865
0.0746136
0.0735229
0.0725314
0.0716494
0.070881
0.070224
0.0696708
0.0692085
0.0688201
0.0684841
0.0681756
0.0678648
0.0675175
0.0670932
0.0665445
0.0658172
0.0648534
0.0636019
0.0620384
0.060197
0.058204
0.0562949
0.0547872
0.0540009
0.0541397
0.0552127
0.0570428
0.0593404
0.0617977
0.0641638
0.0662825
0.0680929
0.0696078
0.0708827
0.0719904
0.0730018
0.0739748
0.0749503
0.0759509
0.0769841
0.0780451
0.0791228
0.080204
0.0812787
0.0823437
0.0834038
0.0844644
0.0855602
0.0865925
0.0879133
0.0867549
0.0854648
0.0841736
0.082841
0.0814699
0.0800657
0.0786443
0.0772293
0.0758491
0.0745325
0.0733058
0.0721904
0.0712011
0.0703459
0.0696258
0.0690357
0.0685643
0.0681955
0.0679081
0.0676762
0.0674701
0.067254
0.0669869
0.0666207
0.0660998
0.0653616
0.0643413
0.0629845
0.0612706
0.0592479
0.0570704
0.0550128
0.0534343
0.0526851
0.0529707
0.0542696
0.0563522
0.0588738
0.0614861
0.0639214
0.0660282
0.0677644
0.0691669
0.0703146
0.0712994
0.0722066
0.0731038
0.0740376
0.0750338
0.0761001
0.0772307
0.0784107
0.0796224
0.0808493
0.0820804
0.0833123
0.0845416
0.0857982
0.0869676
0.0882892
0.0869431
0.0854482
0.0839459
0.0824
0.0808214
0.0792234
0.0776288
0.0760668
0.0745691
0.0731662
0.0718842
0.0707425
0.0697537
0.0689227
0.0682475
0.0677196
0.0673248
0.0670436
0.0668515
0.0667189
0.0666111
0.0664872
0.0662994
0.0659923
0.0655017
0.064757
0.0636866
0.0622336
0.0603821
0.0581958
0.0558561
0.0536743
0.0520466
0.0513456
0.0517726
0.0532735
0.05557
0.0582693
0.0609912
0.0634582
0.0655273
0.0671759
0.0684632
0.0694891
0.0703616
0.0711782
0.0720143
0.0729218
0.0739288
0.0750438
0.0762597
0.0775589
0.0789185
0.0803159
0.0817325
0.0831567
0.0845764
0.0860178
0.0873521
0.0886992
0.0871423
0.085423
0.0836924
0.0819184
0.0801205
0.0783197
0.076546
0.0748339
0.0732182
0.07173
0.070394
0.0692275
0.0682396
0.0674318
0.0667987
0.0663286
0.0660044
0.0658038
0.0656994
0.0656582
0.0656416
0.0656037
0.065491
0.0652405
0.0647804
0.064032
0.0629178
0.061379
0.0594053
0.057076
0.0545987
0.0523178
0.05066
0.0500132
0.0505693
0.0522427
0.0547114
0.0575435
0.0603351
0.0628042
0.0648185
0.0663737
0.0675489
0.0684617
0.0692337
0.0699724
0.07076
0.0716527
0.0726815
0.0738558
0.0751681
0.0765984
0.0781195
0.0797023
0.0813207
0.082955
0.0845847
0.0862322
0.0877559
0.0891506
0.0873623
0.0854009
0.0834265
0.0814117
0.0793847
0.0773748
0.0754192
0.0735572
0.0718259
0.0702562
0.0688706
0.067683
0.0666985
0.0659145
0.0653219
0.064906
0.0646467
0.0645194
0.0644941
0.0645351
0.0646006
0.0646404
0.0645957
0.064397
0.0639653
0.0632148
0.0620627
0.060449
0.0583698
0.0559197
0.0533305
0.0509749
0.0493032
0.0487117
0.04938
0.0511929
0.0537922
0.0567154
0.0595425
0.061991
0.0639398
0.065401
0.0664704
0.0672803
0.0679631
0.0686347
0.0693831
0.0702688
0.0713259
0.0725659
0.0739816
0.0755513
0.0772441
0.0790249
0.0808597
0.0827205
0.0845782
0.0864517
0.0881869
0.0896496
0.0876111
0.0853913
0.0831586
0.0808916
0.0786276
0.0764045
0.0742664
0.0722572
0.0704152
0.0687701
0.0673413
0.0661381
0.0651608
0.0644025
0.0638501
0.0634854
0.063286
0.0632249
0.06327
0.0633837
0.0635213
0.0636293
0.0636441
0.0634908
0.0630839
0.0623316
0.0611468
0.0594695
0.0573021
0.054754
0.0520782
0.0496705
0.0479982
0.0474594
0.0482199
0.0501385
0.0528283
0.0558048
0.0586386
0.0610495
0.0629269
0.0642967
0.0652684
0.0659854
0.066589
0.0672018
0.0679172
0.0688001
0.0698885
0.0711968
0.0727192
0.0744336
0.076306
0.0782954
0.0803599
0.0824629
0.0845661
0.0866846
0.0886519
0.0902016
0.0878952
0.0854015
0.0828971
0.0803676
0.07786
0.0754211
0.0731019
0.0709501
0.0690042
0.0672916
0.0658271
0.0646149
0.0636498
0.0629198
0.0624078
0.0620923
0.0619483
0.0619469
0.0620544
0.0622314
0.0624311
0.0625972
0.0626623
0.062547
0.0621605
0.0614059
0.0601932
0.0584631
0.056225
0.0536013
0.0508632
0.048424
0.0467611
0.0462698
0.047101
0.0490919
0.051835
0.0548317
0.0576483
0.0600089
0.0618123
0.0630953
0.0639775
0.064611
0.0651436
0.0657038
0.0663897
0.0672712
0.0683907
0.0697668
0.0713965
0.0732582
0.0753157
0.0775228
0.0798295
0.0821898
0.0845559
0.0869378
0.0891572
0.0908116
0.0882202
0.0854379
0.082649
0.0798475
0.0770909
0.0744351
0.0719379
0.0696494
0.0676076
0.0658361
0.0643443
0.0631301
0.0621824
0.0614838
0.0610129
0.060745
0.0606526
0.0607051
0.0608674
0.0610988
0.0613509
0.0615652
0.0616716
0.0615867
0.0612156
0.060458
0.0592218
0.0574497
0.0551575
0.0524798
0.049702
0.0472496
0.0456038
0.0451529
0.0460331
0.0480649
0.0508274
0.0538154
0.0565952
0.0588963
0.0606252
0.0618267
0.0626276
0.063186
0.0636545
0.0641662
0.0648242
0.0657032
0.0668514
0.0682924
0.0700272
0.0720365
0.0742828
0.0767151
0.0792753
0.0819078
0.084554
0.0872178
0.0897086
0.0914837
0.0885911
0.0855057
0.0824203
0.0793381
0.0763282
0.0734557
0.0707844
0.0683663
0.0662373
0.0644161
0.0629055
0.0616964
0.0607712
0.0601071
0.0596781
0.0594563
0.0594121
0.0595132
0.0597234
0.0600011
0.0602966
0.0605499
0.0606886
0.0606268
0.0602665
0.0595049
0.0582496
0.0564456
0.0541156
0.0514041
0.0486074
0.0461576
0.0445346
0.0441159
0.0450242
0.0470679
0.04982
0.0527744
0.0555015
0.0577363
0.0593916
0.0605175
0.0612448
0.0617354
0.0621453
0.0626114
0.0632414
0.0641155
0.0652881
0.066789
0.0686249
0.0707798
0.0732164
0.0758799
0.0787041
0.081623
0.0845663
0.0875304
0.0903122
0.0922221
0.0890123
0.0856099
0.0822162
0.0788455
0.0755789
0.0724907
0.0696501
0.06711
0.0649029
0.0630411
0.06152
0.0603228
0.059425
0.058798
0.0584116
0.0582346
0.0582353
0.0583802
0.0586321
0.0589486
0.0592794
0.0595633
0.0597263
0.0596807
0.0593269
0.0585608
0.0572906
0.0554647
0.053112
0.0503855
0.0475887
0.0451553
0.043559
0.0431643
0.0440811
0.046111
0.0488264
0.0517262
0.0543874
0.0565512
0.0581346
0.0591906
0.0598516
0.0602809
0.0606369
0.0610594
0.0616604
0.0625261
0.0637174
0.0652719
0.067203
0.0694997
0.0721264
0.0750252
0.0781227
0.0813417
0.0845989
0.0878818
0.0909742
0.0930304
0.0894876
0.0857547
0.0820416
0.0783751
0.0748488
0.0715466
0.0685422
0.065888
0.0636118
0.0617185
0.0601948
0.0590157
0.0581495
0.0575619
0.0572183
0.0570847
0.0571274
0.0573116
0.0575995
0.0579482
0.0583069
0.0586137
0.0587939
0.0587587
0.0584077
0.0576369
0.0563561
0.0545179
0.052157
0.0494329
0.0466527
0.0442476
0.0426808
0.0423021
0.04321
0.0452033
0.0478595
0.050687
0.0532717
0.0553611
0.0568748
0.0578663
0.0584676
0.0588417
0.0591479
0.0595282
0.0600989
0.060952
0.0621559
0.0637564
0.0657753
0.0682082
0.0710228
0.0741598
0.0775384
0.0810702
0.0846578
0.0882778
0.0917008
0.0939119
0.0900207
0.0859438
0.0819005
0.0779313
0.0741432
0.0706291
0.0674667
0.0647065
0.06237
0.0604536
0.0589346
0.0577792
0.0569482
0.0564017
0.0561009
0.056009
0.0560906
0.0563099
0.0566286
0.0570036
0.0573837
0.0577068
0.057898
0.0578682
0.0575171
0.0567421
0.0554554
0.0536141
0.0512585
0.0485527
0.0458043
0.0434378
0.0419026
0.0415325
0.0424161
0.0443534
0.0469314
0.0496718
0.0521714
0.0541838
0.0556302
0.0565625
0.0571103
0.0574347
0.0576949
0.0580343
0.0585733
0.0594095
0.0606193
0.0622577
0.0643559
0.066918
0.0699167
0.0732925
0.0769587
0.0808152
0.0847493
0.0887247
0.0924983
0.0948694
0.0906145
0.0861806
0.0817964
0.0775181
0.0734663
0.0697429
0.0664283
0.06357
0.0611819
0.0592504
0.0577426
0.0566156
0.0558229
0.0553186
0.0550601
0.0550081
0.0551255
0.055376
0.0557208
0.0561166
0.0565123
0.0568462
0.0570431
0.0570146
0.0566616
0.0558833
0.0545956
0.0527602
0.0504227
0.0477497
0.0450467
0.0427278
0.0412259
0.040858
0.0417045
0.0435693
0.0460534
0.0486944
0.0511018
0.0530355
0.0544168
0.0552947
0.0557947
0.0560746
0.0562926
0.0565925
0.0570985
0.0579138
0.0591229
0.0607905
0.0629588
0.0656417
0.0688191
0.0724331
0.0763919
0.0805837
0.0848797
0.0892286
0.093373
0.0959056
0.0912719
0.0864679
0.0817326
0.0771389
0.0728218
0.0688917
0.0654311
0.0624824
0.0600508
0.0581114
0.0566208
0.0555263
0.0547739
0.0543124
0.0540953
0.0540811
0.0542315
0.0545093
0.0548757
0.0552875
0.055694
0.0560336
0.056232
0.0562018
0.0558456
0.0550658
0.0537823
0.0519618
0.0496542
0.0470275
0.0443819
0.0421186
0.0406518
0.0402811
0.0410796
0.0428587
0.0452357
0.0477673
0.0500768
0.0519303
0.0532488
0.0540766
0.0545341
0.0547745
0.0549539
0.055216
0.0556882
0.056479
0.0576809
0.0593692
0.0615977
0.0643923
0.0677414
0.0715913
0.0758461
0.0803828
0.0850555
0.0897957
0.0943311
0.0970229
0.0919951
0.0868081
0.0817114
0.0767964
0.0722126
0.0680788
0.0644779
0.0614465
0.0589789
0.0570386
0.0555703
0.0545116
0.0538012
0.0533824
0.0532055
0.0532267
0.0534068
0.0537083
0.0540923
0.0545158
0.0549286
0.0552699
0.0554664
0.0554323
0.0550727
0.0542936
0.0530198
0.0512229
0.0489565
0.0463885
0.0438114
0.0416109
0.040181
0.0398037
0.0405459
0.0422284
0.0444881
0.046902
0.0491087
0.0508809
0.0521383
0.0529201
0.05334
0.0535456
0.0536901
0.0539165
0.0543544
0.0551176
0.0563065
0.058007
0.060286
0.063182
0.0666951
0.0707771
0.07533
0.0802199
0.0852832
0.0904319
0.0953786
0.0982232
0.0927863
0.0872033
0.0817351
0.0764929
0.0716412
0.0673066
0.0635715
0.0604645
0.0579684
0.0560332
0.0545916
0.0535715
0.0529038
0.0525273
0.0523888
0.0524431
0.0526498
0.0529714
0.053369
0.0538004
0.0542158
0.0545554
0.0547473
0.0547078
0.0543454
0.0535699
0.0523115
0.0505467
0.0483324
0.0458343
0.0433357
0.0412049
0.039814
0.0394278
0.0401077
0.0416852
0.0438191
0.0461087
0.0482088
0.0498984
0.0510963
0.0518354
0.052222
0.0523974
0.0525109
0.0527038
0.0531079
0.053841
0.0550117
0.0567165
0.0590359
0.0620231
0.0656912
0.0700002
0.0748518
0.0801021
0.085569
0.0911431
0.0965212
0.0995082
0.093647
0.0876551
0.0818053
0.0762302
0.0711096
0.0665775
0.062714
0.0595387
0.0570207
0.0550962
0.0536852
0.0527055
0.0520811
0.0517457
0.0516437
0.0517282
0.0519583
0.0522965
0.0527043
0.0531399
0.0535546
0.0538897
0.0540751
0.0540297
0.0536655
0.0528971
0.05166
0.0499358
0.0477837
0.0453661
0.0429553
0.0409005
0.0395514
0.039155
0.0397688
0.0412357
0.0432371
0.045397
0.0473868
0.0489929
0.0501322
0.0508313
0.0511885
0.051338
0.0514243
0.0515866
0.0519575
0.0526591
0.053807
0.0555089
0.057859
0.0609267
0.0647402
0.0692701
0.0744197
0.0800363
0.0859191
0.0919346
0.0977641
0.10088
0.0945787
0.088165
0.0819236
0.0760101
0.0706199
0.0658935
0.0619077
0.0586709
0.0561375
0.0542286
0.0528513
0.0519135
0.051332
0.0510364
0.0509685
0.0510802
0.0513304
0.0516818
0.0520964
0.0525331
0.0529442
0.0532725
0.0534501
0.0533988
0.0530346
0.0522772
0.0510676
0.0493923
0.047312
0.0449848
0.0426704
0.0406977
0.0393934
0.038987
0.0395325
0.0408853
0.04275
0.0447756
0.0466518
0.0481728
0.0492541
0.0499154
0.0502466
0.0503741
0.0504371
0.0505716
0.0509109
0.0515801
0.0527017
0.054394
0.0567658
0.0599035
0.0638523
0.0685959
0.0740417
0.0800292
0.0863389
0.0928115
0.0991118
0.102338
0.0955826
0.0887341
0.0820913
0.0758342
0.0701739
0.0652568
0.0611547
0.0578632
0.0553205
0.0534317
0.0520907
0.0511953
0.050656
0.0503981
0.0503616
0.0504974
0.0507644
0.0511256
0.0515438
0.0519787
0.0523838
0.0527036
0.0528727
0.0528161
0.0524541
0.051712
0.0505362
0.0489179
0.0469186
0.0446911
0.0424811
0.0405965
0.0393405
0.0389256
0.0394023
0.040639
0.0423643
0.0442525
0.0460122
0.0474462
0.0484693
0.0490942
0.0494021
0.0495112
0.0495546
0.0496647
0.0499743
0.050611
0.0517036
0.0533807
0.0557656
0.0589628
0.0630366
0.0679859
0.0737249
0.0800868
0.0868337
0.093778
0.100568
0.103885
0.0966593
0.0893634
0.0823095
0.0757039
0.0697736
0.0646698
0.0604576
0.057118
0.0545716
0.0527067
0.0514038
0.050551
0.0500524
0.04983
0.0498218
0.0499783
0.0502588
0.0506265
0.0510451
0.0514755
0.0518726
0.0521827
0.052343
0.0522822
0.0519252
0.051203
0.0500676
0.0485142
0.0466047
0.0444854
0.0423874
0.0405967
0.0393931
0.038972
0.0393812
0.0405017
0.0420861
0.0438345
0.0454752
0.0468202
0.047784
0.0483732
0.04866
0.0487537
0.048781
0.04887
0.0491523
0.0497573
0.0508191
0.0524762
0.0548665
0.0581132
0.0623014
0.0674479
0.0734761
0.0802147
0.0874078
0.0948378
0.102137
0.105521
0.0978095
0.0900537
0.0825795
0.0756211
0.0694212
0.0641351
0.0598192
0.0564379
0.0538931
0.0520555
0.0507918
0.049981
0.0495212
0.0493312
0.049348
0.0495218
0.0498121
0.0501831
0.0505994
0.0510229
0.0514102
0.0517097
0.0518615
0.0517981
0.0514494
0.050752
0.0496635
0.0481828
0.0463715
0.0443684
0.0423894
0.0406983
0.0395514
0.0391276
0.0394715
0.0404772
0.0419206
0.0435279
0.0450473
0.0463009
0.047204
0.0477571
0.0480239
0.0481048
0.0481194
0.048191
0.0484488
0.0490233
0.0500534
0.0516867
0.0540753
0.0573621
0.0616542
0.0669887
0.0733012
0.0804177
0.0880651
0.0959938
0.103819
0.107246
0.0990334
0.0908057
0.0829024
0.0755874
0.0691192
0.0636556
0.0592426
0.0558261
0.0532874
0.0514796
0.0502557
0.0494855
0.0490619
0.0489012
0.0489392
0.0491265
0.0494231
0.0497942
0.0502055
0.05062
0.0509962
0.0512848
0.0514287
0.0513648
0.051028
0.0503606
0.0493256
0.0479253
0.04622
0.0443407
0.0424872
0.040901
0.0398155
0.039393
0.0396753
0.0405687
0.0418724
0.0433379
0.0447341
0.0458938
0.046734
0.0472502
0.0474974
0.0475674
0.047572
0.0476293
0.0478656
0.0484118
0.0494102
0.0510168
0.0533978
0.0567157
0.0611012
0.0666144
0.0732052
0.0806998
0.0888084
0.0972476
0.105616
0.109059
0.100331
0.0916196
0.0832794
0.075605
0.0688705
0.0632351
0.0587315
0.0552855
0.0527571
0.050981
0.0497968
0.0490653
0.0486748
0.0485394
0.0485946
0.0487914
0.0490908
0.0494589
0.0498625
0.0502663
0.0506304
0.0509079
0.0510453
0.0509834
0.0506625
0.0500305
0.0490556
0.0477431
0.0461515
0.0444029
0.0426806
0.0412046
0.0401851
0.0397685
0.0399937
0.0407786
0.0419447
0.0432687
0.04454
0.0456033
0.0463782
0.0468557
0.047083
0.0471431
0.0471402
0.0471863
0.0474043
0.0479243
0.0488914
0.0504695
0.052838
0.056179
0.0606478
0.0663297
0.0731924
0.0810639
0.0896394
0.0986002
0.107529
0.11096
0.101701
0.0924959
0.0837117
0.0756762
0.0686785
0.0628769
0.058289
0.0548192
0.0523048
0.0505618
0.0494163
0.0487209
0.0483597
0.0482453
0.0483134
0.0485156
0.048814
0.0491759
0.0495696
0.0499611
0.0503125
0.0505796
0.0507121
0.0506553
0.0503546
0.0497636
0.0488555
0.0476378
0.0461666
0.0445551
0.0429696
0.0416083
0.0406595
0.0402539
0.0404272
0.0411082
0.0421398
0.0433233
0.0444686
0.0454331
0.0461396
0.0465761
0.0467824
0.0468332
0.0468244
0.0468623
0.047065
0.0475612
0.0484983
0.0500465
0.0523984
0.0557554
0.0602982
0.0661386
0.0732657
0.0815123
0.0905592
0.100051
0.109555
0.112945
0.103143
0.0934344
0.0842007
0.075804
0.0685466
0.0625844
0.0579188
0.0544304
0.0519331
0.0502237
0.0491152
0.0484526
0.0481163
0.0480183
0.0480944
0.0482977
0.0485915
0.0489444
0.049326
0.049704
0.0500426
0.0503002
0.05043
0.0503817
0.0501061
0.049562
0.0487272
0.0476109
0.0462665
0.0447974
0.0433535
0.042111
0.0412372
0.0408477
0.0409747
0.0415574
0.0424585
0.0435033
0.0445222
0.0453853
0.0460204
0.046413
0.0465966
0.0466377
0.0466245
0.0466564
0.0468467
0.0473221
0.0482306
0.0497483
0.0520799
0.0554466
0.0600547
0.0660443
0.0734277
0.0820456
0.0915673
0.101599
0.111691
0.115013
0.104655
0.0944351
0.0847482
0.0759907
0.0684776
0.0623612
0.0576242
0.054122
0.0516441
0.0499681
0.048894
0.0482601
0.0479439
0.0478571
0.0479365
0.0481365
0.048422
0.048763
0.0491308
0.0494945
0.0498206
0.0500701
0.0501999
0.0501642
0.0499187
0.0494275
0.0486723
0.0476638
0.0464516
0.0451296
0.0438311
0.0427108
0.041916
0.0415476
0.0416344
0.0421247
0.0429003
0.043809
0.0447013
0.0454611
0.0460215
0.0463671
0.0465256
0.0465561
0.0465389
0.0465668
0.0467474
0.0472046
0.0480865
0.0495738
0.0518825
0.0552528
0.0599179
0.0660477
0.0736795
0.0826643
0.0926621
0.103241
0.113934
0.117158
0.106234
0.0954975
0.0853551
0.0762385
0.0684747
0.0622107
0.0574083
0.0538964
0.0514394
0.0497955
0.0487526
0.0481427
0.0478413
0.0477602
0.0478378
0.0480302
0.0483039
0.0486305
0.0489829
0.0493319
0.0496463
0.0498897
0.0500228
0.0500041
0.0497941
0.0493618
0.0486924
0.0477974
0.0467223
0.0455508
0.0444002
0.043405
0.0426923
0.0423498
0.0424025
0.0428069
0.0434625
0.0442385
0.0450051
0.04566
0.0461427
0.0464377
0.0465683
0.0465866
0.0465653
0.0465904
0.0467638
0.0472055
0.0480627
0.0495202
0.051804
0.0551731
0.0598873
0.0661481
0.0740205
0.0833674
0.0938413
0.104972
0.116277
0.119375
0.107877
0.0966204
0.086022
0.0765496
0.0685408
0.0621356
0.0572734
0.053755
0.0513192
0.0497054
0.0486897
0.0480987
0.0478064
0.0477256
0.0477964
0.0479769
0.0482355
0.0485454
0.0488813
0.0492157
0.0495195
0.0497595
0.0498996
0.0499026
0.0497337
0.0493663
0.0487886
0.048012
0.0470777
0.0460594
0.0450582
0.0441896
0.0435616
0.0432491
0.0432737
0.043599
0.0441408
0.0447883
0.0454308
0.0459798
0.0463821
0.0466231
0.0467224
0.0467263
0.0467001
0.0467232
0.046891
0.0473197
0.0481545
0.0495831
0.0518408
0.0552045
0.059961
0.0663439
0.0744484
0.0841522
0.0951012
0.106786
0.118713
0.121656
0.109579
0.0978017
0.0867494
0.0769258
0.0686783
0.0621381
0.0572206
0.0536978
0.0512828
0.0496961
0.0487031
0.0481254
0.0478366
0.0477505
0.0478096
0.0479743
0.0482147
0.0485061
0.0488247
0.049145
0.0494401
0.0496796
0.0498308
0.0498607
0.0497387
0.049442
0.0489612
0.0483073
0.0475166
0.0466524
0.045801
0.0450592
0.0445174
0.0442387
0.0442406
0.0444938
0.0449284
0.0454525
0.0459734
0.0464163
0.0467359
0.0469195
0.0469843
0.046971
0.0469386
0.0469595
0.0471231
0.0475407
0.0483553
0.0497562
0.0519873
0.0553425
0.0601351
0.0666321
0.0749603
0.0850144
0.0964363
0.108678
0.121233
0.123992
0.111335
0.0990389
0.087537
0.0773685
0.0688888
0.0622191
0.0572497
0.0537235
0.0513276
0.0497644
0.048789
0.0482192
0.0479281
0.0478316
0.0478746
0.0480197
0.0482395
0.0485108
0.048812
0.0491191
0.0494078
0.0496502
0.049817
0.049879
0.0498095
0.049589
0.0492099
0.0486819
0.0480361
0.0473259
0.0466229
0.0460069
0.0455518
0.0453094
0.0452941
0.045482
0.0458165
0.0462229
0.0466256
0.0469633
0.0471987
0.0473219
0.0473487
0.0473152
0.0472744
0.0472925
0.0474524
0.0478604
0.0486568
0.0500317
0.0522363
0.0555807
0.0604045
0.0670081
0.0755517
0.0859491
0.09784
0.110638
0.123824
0.126371
0.113137
0.100328
0.0883841
0.0778781
0.0691728
0.0623783
0.0573591
0.0538287
0.0514491
0.049905
0.0489422
0.0483748
0.0480763
0.0479647
0.0479876
0.0481102
0.0483073
0.0485577
0.0488417
0.0491372
0.049422
0.0496711
0.0498583
0.0499578
0.0499462
0.0498068
0.049533
0.0491329
0.048632
0.048074
0.0475167
0.047024
0.0466549
0.0464506
0.0464227
0.0465519
0.0467937
0.047089
0.0473779
0.0476121
0.0477626
0.0478231
0.0478086
0.0477517
0.0477
0.0477138
0.0478698
0.0482692
0.049049
0.0503996
0.0525785
0.055911
0.0607621
0.067466
0.076217
0.08695
0.0993043
0.112656
0.126475
0.128781
0.114977
0.101666
0.0892891
0.0784545
0.06953
0.0626138
0.057545
0.0540083
0.0516409
0.0501111
0.0491556
0.0485856
0.0482753
0.0481449
0.0481447
0.0482426
0.0484157
0.048645
0.0489125
0.0491983
0.0494823
0.0497421
0.0499544
0.0500964
0.0501476
0.0500934
0.0499276
0.049656
0.0492986
0.0488893
0.0484732
0.0480999
0.0478147
0.0476494
0.0476128
0.04769
0.0478467
0.048038
0.0482185
0.0483519
0.0484179
0.048414
0.0483552
0.0482716
0.0482061
0.0482135
0.0483647
0.0487559
0.0495203
0.0508484
0.0530031
0.0563237
0.0611998
0.0679987
0.0769495
0.0880099
0.10082
0.11472
0.129171
0.131206
0.116845
0.103046
0.0902498
0.0790964
0.0699585
0.0629222
0.0578019
0.0542546
0.0518943
0.0503734
0.0494203
0.0488436
0.0485181
0.0483662
0.048341
0.048413
0.0485618
0.0487704
0.0490229
0.0493013
0.0495879
0.0498625
0.0501044
0.0502935
0.0504117
0.0504458
0.0503892
0.0502452
0.0500279
0.0497622
0.0494814
0.0492221
0.0490174
0.0488909
0.048849
0.0488802
0.0489596
0.0490546
0.0491329
0.0491697
0.0491525
0.0490833
0.0489779
0.0488644
0.0487817
0.0487801
0.0489248
0.0493075
0.0500577
0.0513651
0.0534977
0.0568077
0.0617078
0.0685979
0.0777418
0.0891207
0.102378
0.116818
0.131894
0.133629
0.118731
0.104462
0.0912631
0.079802
0.0704557
0.0632989
0.0581227
0.0545585
0.0521986
0.0506808
0.0497257
0.0491391
0.0487963
0.0486218
0.0485711
0.0486175
0.0487426
0.0489318
0.0491713
0.0494451
0.0497375
0.0500308
0.0503065
0.0505467
0.050735
0.050859
0.0509114
0.0508923
0.0508101
0.0506812
0.0505282
0.050376
0.0502474
0.0501585
0.0501139
0.0501049
0.0501148
0.0501217
0.0501049
0.05005
0.0499522
0.0498178
0.049664
0.0495176
0.0494144
0.0494005
0.0495366
0.0499098
0.0506463
0.0519354
0.0540489
0.0573508
0.0622759
0.0692548
0.0785856
0.0902737
0.103966
0.118935
0.134627
0.136033
0.120623
0.105908
0.0923255
0.0805687
0.0710182
0.0637381
0.058499
0.0549091
0.0525414
0.0510203
0.0500591
0.0494607
0.0491002
0.0489037
0.0488289
0.0488511
0.0489545
0.0491265
0.0493555
0.0496278
0.0499295
0.050245
0.0505579
0.0508521
0.0511125
0.0513265
0.0514858
0.0515872
0.0516333
0.0516327
0.0515984
0.0515454
0.0514872
0.051434
0.0513886
0.0513449
0.0512929
0.0512202
0.0511162
0.0509756
0.0508007
0.0506022
0.0503988
0.0502167
0.0500896
0.05006
0.0501847
0.0505472
0.0512708
0.0525439
0.0546423
0.0579405
0.0628933
0.0699605
0.0794728
0.0914599
0.105574
0.121058
0.137351
0.138398
0.122509
0.107376
0.0934329
0.0813939
0.0716426
0.0642341
0.0589217
0.0552944
0.0529088
0.0513774
0.0504064
0.0497953
0.0494186
0.0492027
0.0491068
0.0491082
0.0491932
0.0493514
0.0495731
0.049847
0.0501612
0.0505019
0.0508547
0.0512045
0.0515371
0.0518396
0.052102
0.0523174
0.0524833
0.0526011
0.0526753
0.0527123
0.0527183
0.0526981
0.052653
0.0525796
0.0524733
0.0523297
0.0521467
0.0519272
0.0516796
0.0514188
0.0511654
0.0509455
0.050791
0.0507422
0.0508527
0.051203
0.0519145
0.0531751
0.0552636
0.0585643
0.0635497
0.0707064
0.0803955
0.0926706
0.10719
0.123169
0.140044
0.140707
0.124377
0.108859
0.0945814
0.0822752
0.072326
0.0647817
0.0593826
0.0557031
0.0532868
0.0517366
0.050752
0.0501285
0.0497384
0.0495078
0.0493962
0.0493821
0.0494536
0.0496022
0.0498204
0.0500995
0.0504289
0.0507972
0.0511911
0.0515967
0.052
0.0523875
0.0527471
0.0530685
0.0533441
0.053569
0.0537404
0.0538577
0.0539207
0.0539301
0.0538862
0.0537876
0.0536342
0.0534283
0.0531749
0.0528836
0.0525685
0.052248
0.0519448
0.0516852
0.0515004
0.0514291
0.0515228
0.0518601
0.052561
0.0538134
0.0558992
0.0592107
0.0642359
0.071485
0.0813468
0.0938975
0.108803
0.125253
0.142684
0.142939
0.126214
0.110349
0.0957674
0.0832113
0.0730672
0.0653781
0.0598757
0.0561256
0.0536628
0.052083
0.0510799
0.0504443
0.0500451
0.0498063
0.0496864
0.0496642
0.0497288
0.0498736
0.050093
0.0503805
0.0507277
0.0511247
0.0515597
0.0520196
0.0524903
0.0529573
0.0534063
0.0538238
0.0541977
0.0545173
0.0547739
0.054961
0.0550734
0.0551087
0.0550662
0.0549464
0.0547527
0.0544927
0.0541773
0.0538216
0.0534443
0.0530673
0.052715
0.0524148
0.0521975
0.0521011
0.0521765
0.052501
0.0531944
0.054445
0.0565374
0.0598704
0.064945
0.0722908
0.0823213
0.0951333
0.1104
0.127294
0.145249
0.145079
0.128008
0.111839
0.0969881
0.0842027
0.0738683
0.0660243
0.0603995
0.0565564
0.0540272
0.0524036
0.0513748