/*--------------------------------*- C++ -*----------------------------------*\
| =========                 |                                                 |
| \\      /  F ield         | OpenFOAM: The Open Source CFD Toolbox           |
|  \\    /   O peration     | Version:  2406                                  |
|   \\  /    A nd           | Website:  www.openfoam.com                      |
|    \\/     M anipulation  |                                                 |
\*---------------------------------------------------------------------------*/
FoamFile
{
    version     2.0;
    format      ascii;
    arch        "LSB;label=32;scalar=64";
    class       surfaceScalarField;
    location    "10000";
    object      phi;
}
// * * * * * * * * * * * * * * * * * * * * * * * * * * * * * * * * * * * * * //

dimensions      [0 3 -1 0 0 0 0];

oriented        oriented;

internalField   nonuniform List<scalar> 
7080
(
1.32767e-06
-1.32762e-06
2.90349e-06
-1.57581e-06
4.28902e-06
-1.38554e-06
5.53357e-06
-1.24455e-06
6.73821e-06
-1.20463e-06
7.96444e-06
-1.22624e-06
9.22908e-06
-1.26464e-06
1.05167e-05
-1.2876e-06
1.17933e-05
-1.27657e-06
1.30169e-05
-1.2236e-06
1.4145e-05
-1.12819e-06
1.51398e-05
-9.94777e-07
1.59707e-05
-8.30834e-07
1.6616e-05
-6.45312e-07
1.70634e-05
-4.47475e-07
1.73095e-05
-2.46058e-07
1.73582e-05
-4.87446e-08
1.72202e-05
1.38037e-07
1.69109e-05
3.0935e-07
1.64492e-05
4.61646e-07
1.58567e-05
5.92525e-07
1.51561e-05
7.0056e-07
1.43709e-05
7.85251e-07
1.35237e-05
8.47149e-07
1.26355e-05
8.88243e-07
1.17229e-05
9.12619e-07
1.07957e-05
9.27166e-07
9.85384e-06
9.41854e-07
8.88491e-06
9.68929e-07
7.86442e-06
1.02049e-06
6.75975e-06
1.10467e-06
5.53804e-06
1.22171e-06
4.17553e-06
1.36251e-06
2.6641e-06
1.51143e-06
1.01086e-06
1.65323e-06
-7.68823e-07
1.77969e-06
-2.65906e-06
1.89024e-06
-4.64444e-06
1.98538e-06
-6.7043e-06
2.05986e-06
-8.80333e-06
2.09903e-06
-1.08857e-05
2.08239e-06
-1.28768e-05
1.99111e-06
-1.46919e-05
1.81508e-06
-1.62483e-05
1.5564e-06
-1.74768e-05
1.22851e-06
-1.83292e-05
8.52359e-07
-1.87807e-05
4.51524e-07
-1.88289e-05
4.82363e-08
-1.84903e-05
-3.38679e-07
-1.77956e-05
-6.94655e-07
-1.67857e-05
-1.00995e-06
-1.55068e-05
-1.2789e-06
-1.40068e-05
-1.49998e-06
-1.23296e-05
-1.67717e-06
-1.05072e-05
-1.82237e-06
-8.54956e-06
-1.95768e-06
-6.43856e-06
-2.11101e-06
-4.14762e-06
-2.29094e-06
-1.7654e-06
-2.38222e-06
-1.7654e-06
1.60943e-06
-2.93705e-06
4.40987e-06
-4.37626e-06
7.56972e-06
-4.54538e-06
1.08261e-05
-4.5009e-06
1.41312e-05
-4.5098e-06
1.74862e-05
-4.58117e-06
2.08771e-05
-4.65557e-06
2.42622e-05
-4.67272e-06
2.75766e-05
-4.59096e-06
3.07425e-05
-4.38948e-06
3.36794e-05
-4.06505e-06
3.63121e-05
-3.62755e-06
3.85768e-05
-3.09556e-06
4.04241e-05
-2.4926e-06
4.18207e-05
-1.84405e-06
4.27495e-05
-1.17483e-06
4.32085e-05
-5.07788e-07
4.32094e-05
1.3716e-07
4.27752e-05
7.43539e-07
4.19382e-05
1.29863e-06
4.07375e-05
1.7933e-06
3.92165e-05
2.22153e-06
3.74212e-05
2.5805e-06
3.53974e-05
2.87103e-06
3.3187e-05
3.09859e-06
3.08247e-05
3.27496e-06
2.83319e-05
3.41996e-06
2.57115e-05
3.56227e-06
2.29429e-05
3.73748e-06
1.99814e-05
3.98201e-06
1.67633e-05
4.32272e-06
1.32199e-05
4.7652e-06
9.29565e-06
5.28671e-06
4.9673e-06
5.83978e-06
2.52765e-07
6.36777e-06
-4.78764e-06
6.82009e-06
-1.0059e-05
7.16156e-06
-1.54392e-05
7.36564e-06
-2.07815e-05
7.40213e-06
-2.59174e-05
7.23494e-06
-3.0667e-05
6.83195e-06
-3.48548e-05
6.1789e-06
-3.83281e-05
5.28838e-06
-4.09714e-05
4.19979e-06
-4.27146e-05
2.97164e-06
-4.35327e-05
1.67053e-06
-4.3442e-05
3.60759e-07
-4.24925e-05
-9.01251e-07
-4.07609e-05
-2.07026e-06
-3.83414e-05
-3.11421e-06
-3.53383e-05
-4.01306e-06
-3.18595e-05
-4.75768e-06
-2.80092e-05
-5.3502e-06
-2.38809e-05
-5.80554e-06
-1.95511e-05
-6.15218e-06
-1.50822e-05
-6.42659e-06
-1.05459e-05
-6.64721e-06
-6.10534e-06
-6.73154e-06
-2.21008e-06
-6.27749e-06
-3.97548e-06
1.25567e-06
-4.19273e-06
4.20311e-06
-7.32369e-06
8.11656e-06
-8.45883e-06
1.25537e-05
-8.93802e-06
1.72898e-05
-9.24594e-06
2.2201e-05
-9.49232e-06
2.71942e-05
-9.64877e-06
3.21776e-05
-9.65616e-06
3.70528e-05
-9.4661e-06
4.17167e-05
-9.05344e-06
4.60683e-05
-8.41663e-06
5.0014e-05
-7.57326e-06
5.3473e-05
-6.55454e-06
5.63802e-05
-5.3998e-06
5.8688e-05
-4.15187e-06
6.03666e-05
-2.85342e-06
6.14032e-05
-1.54442e-06
6.18008e-05
-2.60387e-07
6.15762e-05
9.68101e-07
6.07585e-05
2.11639e-06
5.93859e-05
3.16587e-06
5.75038e-05
4.10358e-06
5.51619e-05
4.92241e-06
5.2411e-05
5.62194e-06
4.92993e-05
6.2103e-06
4.58674e-05
6.7069e-06
4.21418e-05
7.14548e-06
3.81284e-05
7.57576e-06
3.3805e-05
8.06081e-06
2.91199e-05
8.66717e-06
2.39961e-05
9.44646e-06
1.83489e-05
1.04125e-05
1.21121e-05
1.15235e-05
5.26915e-06
1.26827e-05
-2.12456e-06
1.37615e-05
-9.9322e-06
1.46277e-05
-1.79455e-05
1.51748e-05
-2.59045e-05
1.53247e-05
-3.35217e-05
1.50193e-05
-4.05088e-05
1.4222e-05
-4.66063e-05
1.29294e-05
-5.16085e-05
1.11811e-05
-5.53786e-05
9.05848e-06
-5.78512e-05
6.67238e-06
-5.90249e-05
4.1454e-06
-5.89495e-05
1.5951e-06
-5.77124e-05
-8.76396e-07
-5.54274e-05
-3.18625e-06
-5.22245e-05
-5.27309e-06
-4.82426e-05
-7.09612e-06
-4.36247e-05
-8.63095e-06
-3.8514e-05
-9.8684e-06
-3.30497e-05
-1.08145e-05
-2.73645e-05
-1.14908e-05
-2.15873e-05
-1.19293e-05
-1.58584e-05
-1.21555e-05
-1.0368e-05
-1.21376e-05
-5.43976e-06
-1.16598e-05
-1.66744e-06
-1.00498e-05
-5.64292e-06
8.85354e-07
-5.07808e-06
3.56184e-06
-1.00002e-05
7.58123e-06
-1.24782e-05
1.25085e-05
-1.38653e-05
1.80235e-05
-1.47609e-05
2.38955e-05
-1.53644e-05
2.9946e-05
-1.56993e-05
3.60228e-05
-1.57329e-05
4.19877e-05
-1.5431e-05
4.77131e-05
-1.47788e-05
5.30823e-05
-1.37858e-05
5.7992e-05
-1.2483e-05
6.23542e-05
-1.09168e-05
6.60976e-05
-9.14321e-06
6.91679e-05
-7.22222e-06
7.15278e-05
-5.21323e-06
7.31554e-05
-3.17202e-06
7.40435e-05
-1.14857e-06
7.41979e-05
8.13692e-07
7.36356e-05
2.67873e-06
7.23833e-05
4.4182e-06
7.04752e-05
6.01169e-06
6.79506e-05
7.44693e-06
6.48515e-05
8.72111e-06
6.12183e-05
9.84341e-06
5.70862e-05
1.0839e-05
5.24781e-05
1.17536e-05
4.73978e-05
1.2656e-05
4.18229e-05
1.36357e-05
3.57011e-05
1.4789e-05
2.89555e-05
1.61921e-05
2.15041e-05
1.78639e-05
1.32937e-05
1.97339e-05
4.34157e-06
2.16348e-05
-5.2308e-06
2.33339e-05
-1.5182e-05
2.45789e-05
-2.51733e-05
2.51661e-05
-3.48099e-05
2.49614e-05
-4.36918e-05
2.39011e-05
-5.14635e-05
2.19938e-05
-5.78551e-05
1.9321e-05
-6.27019e-05
1.60279e-05
-6.59439e-05
1.23005e-05
-6.76085e-05
8.33694e-06
-6.7785e-05
4.3219e-06
-6.66008e-05
4.10889e-07
-6.4204e-05
-3.27319e-06
-6.07506e-05
-6.63966e-06
-5.63968e-05
-9.62684e-06
-5.12996e-05
-1.21934e-05
-4.56165e-05
-1.43141e-05
-3.9507e-05
-1.59779e-05
-3.31334e-05
-1.71881e-05
-2.6664e-05
-1.79602e-05
-2.02806e-05
-1.83127e-05
-1.4196e-05
-1.82402e-05
-8.68527e-06
-1.76483e-05
-4.12976e-06
-1.62153e-05
-1.04966e-06
-1.31299e-05
-6.69258e-06
6.43088e-07
-5.72117e-06
2.99749e-06
-1.23546e-05
6.85869e-06
-1.63394e-05
1.18766e-05
-1.88832e-05
1.77114e-05
-2.05957e-05
2.40733e-05
-2.17262e-05
3.07205e-05
-2.23465e-05
3.74489e-05
-2.24613e-05
4.4083e-05
-2.20651e-05
5.04714e-05
-2.11672e-05
5.64845e-05
-1.97988e-05
6.20128e-05
-1.80113e-05
6.6967e-05
-1.58709e-05
7.12758e-05
-1.3452e-05
7.48853e-05
-1.08317e-05
7.77568e-05
-8.08471e-06
7.9865e-05
-5.28024e-06
8.11964e-05
-2.47991e-06
8.17468e-05
2.63301e-07
8.15205e-05
2.90498e-06
8.05292e-05
5.40952e-06
7.879e-05
7.75087e-06
7.63242e-05
9.91273e-06
7.31552e-05
1.18901e-05
6.93062e-05
1.36925e-05
6.47962e-05
1.5349e-05
5.96357e-05
1.69141e-05
5.38199e-05
1.84719e-05
4.73226e-05
2.01331e-05
4.00932e-05
2.20184e-05
3.20636e-05
2.42217e-05
2.317e-05
2.67575e-05
1.33933e-05
2.95106e-05
2.80878e-06
3.22193e-05
-8.37377e-06
3.45164e-05
-1.97967e-05
3.60018e-05
-3.09979e-05
3.63673e-05
-4.14779e-05
3.54414e-05
-5.07758e-05
3.3199e-05
-5.85338e-05
2.97518e-05
-6.45341e-05
2.53213e-05
-6.87016e-05
2.01954e-05
-7.10798e-05
1.46786e-05
-7.17923e-05
9.04948e-06
-7.10056e-05
3.53516e-06
-6.89001e-05
-1.69451e-06
-6.56531e-05
-6.52028e-06
-6.14299e-05
-1.08629e-05
-5.6387e-05
-1.46697e-05
-5.06776e-05
-1.79028e-05
-4.44576e-05
-2.05341e-05
-3.78912e-05
-2.25443e-05
-3.1156e-05
-2.39233e-05
-2.44486e-05
-2.46676e-05
-1.7992e-05
-2.47693e-05
-1.20468e-05
-2.41854e-05
-6.92378e-06
-2.27713e-05
-2.98655e-06
-2.01526e-05
-6.08602e-07
-1.55079e-05
-7.30118e-06
5.36105e-07
-6.25727e-06
2.6711e-06
-1.44896e-05
6.34678e-06
-2.00151e-05
1.12989e-05
-2.38353e-05
1.72059e-05
-2.65027e-05
2.37566e-05
-2.8277e-05
3.06736e-05
-2.92635e-05
3.77171e-05
-2.95048e-05
4.46836e-05
-2.90316e-05
5.14031e-05
-2.78868e-05
5.77363e-05
-2.6132e-05
6.35714e-05
-2.38464e-05
6.88211e-05
-2.11206e-05
7.34194e-05
-1.80504e-05
7.7318e-05
-1.47303e-05
8.04828e-05
-1.12495e-05
8.28911e-05
-7.68848e-06
8.45283e-05
-4.11712e-06
8.53859e-05
-5.94328e-07
8.54594e-05
2.83149e-06
8.4747e-05
6.12198e-06
8.32488e-05
9.24906e-06
8.09661e-05
1.21954e-05
7.79001e-05
1.4956e-05
7.40508e-05
1.75417e-05
6.9415e-05
1.99849e-05
6.39828e-05
2.23463e-05
5.77342e-05
2.47204e-05
5.06347e-05
2.72326e-05
4.26349e-05
3.00182e-05
3.36799e-05
3.31766e-05
2.37352e-05
3.67022e-05
1.28309e-05
4.04148e-05
1.11563e-06
4.39346e-05
-1.11029e-05
4.67349e-05
-2.3357e-05
4.8256e-05
-3.50879e-05
4.80981e-05
-4.5737e-05
4.60905e-05
-5.48401e-05
4.23021e-05
-6.20922e-05
3.70039e-05
-6.73678e-05
3.0597e-05
-7.06992e-05
2.35268e-05
-7.2228e-05
1.62075e-05
-7.21525e-05
8.97392e-06
-7.06836e-05
2.06635e-06
-6.80197e-05
-4.35842e-06
-6.43339e-05
-1.02062e-05
-5.97759e-05
-1.54208e-05
-5.44832e-05
-1.99624e-05
-4.85916e-05
-2.37944e-05
-4.22459e-05
-2.68798e-05
-3.56084e-05
-2.91818e-05
-2.88657e-05
-3.06659e-05
-2.22338e-05
-3.12995e-05
-1.59614e-05
-3.10417e-05
-1.03322e-05
-2.98146e-05
-5.65936e-06
-2.74441e-05
-2.25983e-06
-2.35521e-05
-3.75353e-07
-1.73923e-05
-7.67653e-06
5.31161e-07
-6.78843e-06
2.58173e-06
-1.65401e-05
6.14864e-06
-2.3582e-05
1.10227e-05
-2.87095e-05
1.69073e-05
-3.23872e-05
2.34899e-05
-3.48596e-05
3.04772e-05
-3.62508e-05
3.76097e-05
-3.66372e-05
4.46665e-05
-3.60885e-05
5.14666e-05
-3.46869e-05
5.78659e-05
-3.25313e-05
6.37539e-05
-2.97344e-05
6.90492e-05
-2.64159e-05
7.36941e-05
-2.26953e-05
7.76498e-05
-1.8686e-05
8.08914e-05
-1.44911e-05
8.34033e-05
-1.02004e-05
8.51754e-05
-5.88926e-06
8.62002e-05
-1.61913e-06
8.64697e-05
2.56197e-06
8.59739e-05
6.6178e-06
8.46999e-05
1.0523e-05
8.26316e-05
1.42638e-05
7.97489e-05
1.78388e-05
7.60278e-05
2.12628e-05
7.14399e-05
2.45728e-05
6.59515e-05
2.78346e-05
5.95224e-05
3.11495e-05
5.21055e-05
3.46495e-05
4.36507e-05
3.8473e-05
3.4118e-05
4.27093e-05
2.35079e-05
4.73124e-05
1.19076e-05
5.20151e-05
-4.55946e-07
5.62982e-05
-1.31812e-05
5.94602e-05
-2.57129e-05
6.07877e-05
-3.74336e-05
5.98188e-05
-4.7775e-05
5.64319e-05
-5.63175e-05
5.08446e-05
-6.28435e-05
4.35299e-05
-6.73331e-05
3.50865e-05
-6.99166e-05
2.61104e-05
-7.08086e-05
1.70994e-05
-7.02468e-05
8.41216e-06
-6.84519e-05
2.71418e-07
-6.56077e-05
-7.20256e-06
-6.18602e-05
-1.39537e-05
-5.73281e-05
-1.99528e-05
-5.212e-05
-2.51705e-05
-4.63483e-05
-2.9566e-05
-4.01433e-05
-3.30849e-05
-3.36621e-05
-3.5663e-05
-2.70955e-05
-3.72325e-05
-2.06708e-05
-3.77242e-05
-1.46503e-05
-3.70622e-05
-9.32494e-06
-3.514e-05
-4.99648e-06
-3.17725e-05
-1.93745e-06
-2.66111e-05
-3.05391e-07
-1.90244e-05
-7.98192e-06
5.89207e-07
-7.37764e-06
2.66733e-06
-1.86182e-05
6.22215e-06
-2.71369e-05
1.10647e-05
-3.3552e-05
1.69147e-05
-3.82372e-05
2.3464e-05
-4.14089e-05
3.04142e-05
-4.3201e-05
3.74971e-05
-4.37201e-05
4.44843e-05
-4.30757e-05
5.11908e-05
-4.13933e-05
5.74733e-05
-3.88138e-05
6.32266e-05
-3.54878e-05
6.83781e-05
-3.15673e-05
7.28809e-05
-2.71981e-05
7.67082e-05
-2.25133e-05
7.98464e-05
-1.76293e-05
8.22901e-05
-1.26441e-05
8.40374e-05
-7.63648e-06
8.50855e-05
-2.66722e-06
8.5428e-05
2.21941e-06
8.50523e-05
6.99353e-06
8.3938e-05
1.16373e-05
8.20565e-05
1.61452e-05
7.9371e-05
2.05243e-05
7.58363e-05
2.47975e-05
7.14002e-05
2.90088e-05
6.60048e-05
3.32301e-05
5.9588e-05
3.75663e-05
5.20879e-05
4.21496e-05
4.34515e-05
4.71093e-05
3.36539e-05
5.25069e-05
2.27313e-05
5.8235e-05
1.08285e-05
6.39179e-05
-1.7538e-06
6.88805e-05
-1.45371e-05
7.22435e-05
-2.691e-05
7.31605e-05
-3.82375e-05
7.11464e-05
-4.79839e-05
6.61783e-05
-5.58055e-05
5.86662e-05
-6.15836e-05
4.9308e-05
-6.53946e-05
3.88976e-05
-6.74412e-05
2.8157e-05
-6.79762e-05
1.76344e-05
-6.72429e-05
7.67885e-06
-6.54424e-05
-1.52901e-06
-6.27241e-05
-9.92091e-06
-5.91941e-05
-1.74837e-05
-5.49347e-05
-2.42123e-05
-5.00227e-05
-3.00825e-05
-4.45475e-05
-3.50412e-05
-3.86244e-05
-3.90081e-05
-3.24043e-05
-4.18831e-05
-2.60791e-05
-4.35577e-05
-1.98816e-05
-4.39217e-05
-1.40804e-05
-4.28634e-05
-8.96662e-06
-4.02538e-05
-4.82983e-06
-3.59093e-05
-1.91389e-06
-2.95271e-05
-3.39828e-07
-2.05985e-05
-8.32175e-06
6.77486e-07
-8.05513e-06
2.85494e-06
-2.07957e-05
6.47375e-06
-3.07557e-05
1.13377e-05
-3.84159e-05
1.71699e-05
-4.40694e-05
2.36646e-05
-4.79036e-05
3.05226e-05
-5.0059e-05
3.74738e-05
-5.06713e-05
4.42895e-05
-4.98914e-05
5.07871e-05
-4.78909e-05
5.68293e-05
-4.48561e-05
6.23201e-05
-4.09786e-05
6.7198e-05
-3.64452e-05
7.14287e-05
-3.14289e-05
7.49981e-05
-2.60826e-05
7.79048e-05
-2.0536e-05
8.01544e-05
-1.48938e-05
8.17543e-05
-9.23636e-06
8.2709e-05
-3.62191e-06
8.30167e-05
1.91171e-06
8.26662e-05
7.34401e-06
8.16349e-05
1.26686e-05
7.98875e-05
1.78926e-05
7.73758e-05
2.3036e-05
7.4039e-05
2.81344e-05
6.98053e-05
3.32424e-05
6.45953e-05
3.84401e-05
5.83266e-05
4.3835e-05
5.09225e-05
4.95537e-05
4.23266e-05
5.57052e-05
3.25273e-05
6.23063e-05
2.15943e-05
6.9168e-05
9.72432e-06
7.57878e-05
-2.72126e-06
8.13261e-05
-1.5211e-05
8.47333e-05
-2.71115e-05
8.5061e-05
-3.78077e-05
8.18426e-05
-4.68256e-05
7.51962e-05
-5.39108e-05
6.57513e-05
-5.90366e-05
5.44338e-05
-6.23523e-05
4.22133e-05
-6.41006e-05
2.99052e-05
-6.45402e-05
1.80739e-05
-6.38931e-05
7.03182e-06
-6.23227e-05
-3.09942e-06
-5.99344e-05
-1.23093e-05
-5.67927e-05
-2.06253e-05
-5.29439e-05
-2.80611e-05
-4.84362e-05
-3.45902e-05
-4.3338e-05
-4.01394e-05
-3.77513e-05
-4.45948e-05
-3.18206e-05
-4.78138e-05
-2.57365e-05
-4.96418e-05
-1.97339e-05
-4.99242e-05
-1.40839e-05
-4.85135e-05
-9.0767e-06
-4.52609e-05
-4.99509e-06
-3.99909e-05
-2.0721e-06
-3.245e-05
-4.28384e-07
-2.22422e-05
-8.75013e-06
7.73173e-07
-8.8283e-06
3.08407e-06
-2.31066e-05
6.81078e-06
-3.44824e-05
1.17317e-05
-4.33369e-05
1.75619e-05
-4.98995e-05
2.39931e-05
-5.43348e-05
3.07263e-05
-5.67922e-05
3.74932e-05
-5.74382e-05
4.40702e-05
-5.64685e-05
5.02826e-05
-5.41033e-05
5.60037e-05
-5.05772e-05
6.115e-05
-4.61248e-05
6.56732e-05
-4.09684e-05
6.95526e-05
-3.53082e-05
7.27865e-05
-2.93166e-05
7.53853e-05
-2.31348e-05
7.73648e-05
-1.68733e-05
7.87412e-05
-1.06127e-05
7.95263e-05
-4.40703e-06
7.97241e-05
1.71393e-06
7.93271e-05
7.74095e-06
7.83141e-05
1.36817e-05
7.66477e-05
1.95589e-05
7.4274e-05
2.54098e-05
7.11223e-05
3.12861e-05
6.71072e-05
3.72575e-05
6.21328e-05
4.34145e-05
5.61001e-05
4.98677e-05
4.89201e-05
5.67337e-05
4.05336e-05
6.40918e-05
3.09407e-05
7.18991e-05
2.02403e-05
7.98685e-05
8.67055e-06
8.73575e-05
-3.36388e-06
9.33605e-05
-1.5306e-05
9.66754e-05
-2.6532e-05
9.6287e-05
-3.64754e-05
9.17859e-05
-4.47397e-05
8.34606e-05
-5.11576e-05
7.21692e-05
-5.57761e-05
5.90523e-05
-5.87885e-05
4.52256e-05
-6.04472e-05
3.15639e-05
-6.09915e-05
1.86183e-05
-6.06058e-05
6.64615e-06
-5.94079e-05
-4.29731e-06
-5.74593e-05
-1.42579e-05
-5.47865e-05
-2.32981e-05
-5.14046e-05
-3.1443e-05
-4.7338e-05
-3.86568e-05
-4.26377e-05
-4.48398e-05
-3.73938e-05
-4.98387e-05
-3.17436e-05
-5.3464e-05
-2.58745e-05
-5.55108e-05
-2.00212e-05
-5.57776e-05
-1.44555e-05
-5.40792e-05
-9.46864e-06
-5.02478e-05
-5.34388e-06
-4.41157e-05
-2.31863e-06
-3.54753e-05
-5.36202e-07
-2.40246e-05
-9.28634e-06
8.63024e-07
-9.69132e-06
3.31396e-06
-2.55575e-05
7.1634e-06
-3.83318e-05
1.21544e-05
-4.83278e-05
1.7985e-05
-5.57302e-05
2.43404e-05
-6.06902e-05
3.09209e-05
-6.33726e-05
3.74631e-05
-6.39804e-05
4.37523e-05
-6.27576e-05
4.96262e-05
-5.99773e-05
5.4973e-05
-5.5924e-05
5.97244e-05
-5.08762e-05
6.38473e-05
-4.50913e-05
6.73344e-05
-3.87954e-05
7.01963e-05
-3.21784e-05
7.24533e-05
-2.53918e-05
7.41298e-05
-1.85498e-05
7.5249e-05
-1.17319e-05
7.58288e-05
-4.9868e-06
7.58781e-05
1.66461e-06
7.53938e-05
8.22522e-06
7.43575e-05
1.4718e-05
7.27332e-05
2.11833e-05
7.04654e-05
2.76776e-05
6.74789e-05
3.42725e-05
6.36806e-05
4.10558e-05
5.8964e-05
4.81311e-05
5.32191e-05
5.56126e-05
4.63485e-05
6.36043e-05
3.82921e-05
7.21482e-05
2.90606e-05
8.11305e-05
1.87758e-05
9.01533e-05
7.70576e-06
9.84275e-05
-3.72147e-06
0.000104788
-1.49493e-05
0.000107903
-2.53897e-05
0.000106727
-3.45425e-05
0.000100939
-4.20932e-05
9.10113e-05
-4.79494e-05
7.80254e-05
-5.22083e-05
6.33113e-05
-5.50798e-05
4.80972e-05
-5.68022e-05
3.32863e-05
-5.75793e-05
1.93954e-05
-5.75506e-05
6.61749e-06
-5.67892e-05
-5.05868e-06
-5.53178e-05
-1.57293e-05
-5.31316e-05
-2.54843e-05
-5.02213e-05
-3.43533e-05
-4.65924e-05
-4.22856e-05
-4.22814e-05
-4.91508e-05
-3.73669e-05
-5.47531e-05
-3.19779e-05
-5.8853e-05
-2.62962e-05
-6.11926e-05
-2.05536e-05
-6.15201e-05
-1.50227e-05
-5.96101e-05
-9.99798e-06
-5.52725e-05
-5.77012e-06
-4.83435e-05
-2.59228e-06
-3.86531e-05
-6.43221e-07
-2.59737e-05
-9.92956e-06
9.41081e-07
-1.06324e-05
3.5219e-06
-2.81384e-05
7.48792e-06
-4.22978e-05
1.25423e-05
-5.33822e-05
1.83611e-05
-6.1549e-05
2.46193e-05
-6.69484e-05
3.10167e-05
-6.977e-05
3.72969e-05
-7.02606e-05
4.32578e-05
-6.87186e-05
4.87537e-05
-6.54732e-05
5.36905e-05
-6.08609e-05
5.80178e-05
-5.52035e-05
6.17186e-05
-4.8792e-05
6.47994e-05
-4.18762e-05
6.72814e-05
-3.46604e-05
6.91933e-05
-2.73038e-05
7.05658e-05
-1.99223e-05
7.14268e-05
-1.25929e-05
7.17979e-05
-5.35793e-06
7.16916e-05
1.77092e-06
7.1108e-05
8.80885e-06
7.00317e-05
1.57942e-05
6.84294e-05
2.27856e-05
6.62469e-05
2.98601e-05
6.34088e-05
3.71107e-05
5.98191e-05
4.46455e-05
5.53668e-05
5.25834e-05
4.99365e-05
6.10429e-05
4.34275e-05
7.01133e-05
3.57813e-05
7.97944e-05
2.70187e-05
8.98931e-05
1.72783e-05
9.98938e-05
6.8453e-06
0.00010886
-3.84742e-06
0.00011548
-1.4266e-05
0.000118322
-2.38769e-05
0.000116338
-3.22553e-05
0.000109317
-3.91635e-05
9.79195e-05
-4.45675e-05
8.34294e-05
-4.85915e-05
6.73353e-05
-5.14397e-05
5.09454e-05
-5.33199e-05
3.51665e-05
-5.43931e-05
2.04686e-05
-5.47542e-05
6.97853e-06
-5.44368e-05
-5.37603e-06
-5.34327e-05
-1.67334e-05
-5.17137e-05
-2.72033e-05
-4.92525e-05
-3.68146e-05
-4.60401e-05
-4.5498e-05
-4.21002e-05
-5.30907e-05
-3.74996e-05
-5.93537e-05
-3.23564e-05
-6.39962e-05
-2.68441e-05
-6.6705e-05
-2.11895e-05
-6.71747e-05
-1.56649e-05
-6.51347e-05
-1.05706e-05
-6.03668e-05
-6.20997e-06
-5.27041e-05
-2.8598e-06
-4.20033e-05
-7.40463e-07
-2.8093e-05
-1.067e-05
1.00591e-06
-1.16383e-05
3.69793e-06
-3.08304e-05
7.76141e-06
-4.63613e-05
1.28586e-05
-5.84794e-05
1.86408e-05
-6.73312e-05
2.47719e-05
-7.30795e-05
3.09517e-05
-7.59498e-05
3.69334e-05
-7.62423e-05
4.25309e-05
-7.43161e-05
4.7618e-05
-7.05603e-05
5.21215e-05
-6.53643e-05
5.60101e-05
-5.90922e-05
5.92836e-05
-5.20655e-05
6.19614e-05
-4.4554e-05
6.40745e-05
-3.67735e-05
6.56579e-05
-2.88872e-05
6.67461e-05
-2.10105e-05
6.73693e-05
-1.32161e-05
6.75507e-05
-5.53934e-06
6.7304e-05
2.01767e-06
6.66308e-05
9.48199e-06
6.55182e-05
1.69068e-05
6.39352e-05
2.43686e-05
6.18306e-05
3.19647e-05
5.91311e-05
3.98103e-05
5.5742e-05
4.80346e-05
5.15528e-05
5.67726e-05
4.64482e-05
6.61475e-05
4.03289e-05
7.62326e-05
3.31415e-05
8.69817e-05
2.49162e-05
9.81185e-05
1.58025e-05
0.000109007
6.09165e-06
0.000118571
-3.79532e-06
0.000125367
-1.33643e-05
0.000127891
-2.21475e-05
0.000125122
-2.97969e-05
0.000116967
-3.6142e-05
0.000104265
-4.11891e-05
8.84765e-05
-4.50697e-05
7.12159e-05
-4.79665e-05
5.38421e-05
-5.00481e-05
3.72481e-05
-5.14314e-05
2.18519e-05
-5.21711e-05
7.71829e-06
-5.22698e-05
-5.27742e-06
-5.16964e-05
-1.73068e-05
-5.04068e-05
-2.84929e-05
-4.83613e-05
-3.886e-05
-4.55399e-05
-4.83194e-05
-4.19539e-05
-5.66768e-05
-3.76571e-05
-6.36505e-05
-3.27542e-05
-6.88991e-05
-2.74068e-05
-7.20524e-05
-2.18342e-05
-7.27473e-05
-1.6307e-05
-7.06619e-05
-1.11325e-05
-6.55413e-05
-6.63087e-06
-5.72058e-05
-3.10714e-06
-4.5527e-05
-8.25771e-07
-3.03744e-05
-1.14958e-05
1.05829e-06
-1.26966e-05
3.83948e-06
-3.36116e-05
7.97416e-06
-5.0496e-05
1.30847e-05
-6.35899e-05
1.87973e-05
-7.30439e-05
2.47654e-05
-7.90475e-05
3.06908e-05
-8.18752e-05
3.63389e-05
-8.18904e-05
4.15426e-05
-7.95199e-05
4.61983e-05
-7.5216e-05
5.0255e-05
-6.9421e-05
5.37017e-05
-6.25389e-05
5.65544e-05
-5.49181e-05
5.88448e-05
-4.68444e-05
6.06117e-05
-3.85404e-05
6.18946e-05
-3.01701e-05
6.273e-05
-2.18458e-05
6.3148e-05
-1.36341e-05
6.31711e-05
-5.56244e-06
6.28122e-05
2.37657e-06
6.20728e-05
1.02213e-05
6.09408e-05
1.80388e-05
5.93871e-05
2.59223e-05
5.73635e-05
3.39883e-05
5.48001e-05
4.23736e-05
5.16066e-05
5.12281e-05
4.76765e-05
6.07028e-05
4.28992e-05
7.09247e-05
3.71816e-05
8.19502e-05
3.04781e-05
9.36851e-05
2.28277e-05
0.000105769
1.43865e-05
0.000117449
5.44129e-06
0.000127517
-3.61139e-06
0.00013442
-1.23289e-05
0.000136608
-2.03144e-05
0.000133107
-2.72927e-05
0.000123945
-3.31483e-05
0.00011012
-3.7912e-05
9.32402e-05
-4.17076e-05
7.50115e-05
-4.46862e-05
5.68207e-05
-4.69745e-05
3.95365e-05
-4.86484e-05
2.35257e-05
-4.97294e-05
8.79931e-06
-5.01968e-05
-4.80995e-06
-5.00052e-05
-1.74984e-05
-4.91008e-05
-2.93974e-05
-4.7436e-05
-4.05248e-05
-4.49815e-05
-5.0774e-05
-4.17369e-05
-5.99213e-05
-3.77414e-05
-6.7646e-05
-3.30834e-05
-7.3557e-05
-2.79093e-05
-7.72265e-05
-2.24274e-05
-7.82292e-05
-1.6905e-05
-7.61843e-05
-1.1656e-05
-7.07903e-05
-7.01922e-06
-6.18426e-05
-3.33095e-06
-4.92153e-05
-9.0032e-07
-3.2805e-05
-1.23961e-05
1.09966e-06
-1.37963e-05
3.9473e-06
-3.64592e-05
8.12359e-06
-5.46723e-05
1.32131e-05
-6.86794e-05
1.88188e-05
-7.86496e-05
2.45853e-05
-8.4814e-05
3.02195e-05
-8.75094e-05
3.55022e-05
-8.71731e-05
4.02881e-05
-8.43058e-05
4.44978e-05
-7.94257e-05
4.81037e-05
-7.30269e-05
5.11148e-05
-6.555e-05
5.35625e-05
-5.73659e-05
5.54892e-05
-4.87711e-05
5.69398e-05
-3.9991e-05
5.79566e-05
-3.11869e-05
5.85757e-05
-2.2465e-05
5.88259e-05
-1.38843e-05
5.87271e-05
-5.46363e-06
5.82898e-05
2.81389e-06
5.75137e-05
1.09974e-05
5.6386e-05
1.91666e-05
5.48786e-05
2.74297e-05
5.29457e-05
3.59213e-05
5.05216e-05
4.47976e-05
4.75215e-05
5.42282e-05
4.38459e-05
6.43784e-05
3.93927e-05
7.5378e-05
3.40781e-05
8.72648e-05
2.78669e-05
9.98963e-05
2.08068e-05
0.000112829
1.30558e-05
0.0001252
4.88887e-06
0.000135684
-3.33149e-06
0.00014264
-1.12208e-05
0.000144498
-1.84533e-05
0.00014034
-2.48198e-05
0.000130311
-3.02477e-05
0.000115548
-3.47789e-05
9.77715e-05
-3.85193e-05
7.87518e-05
-4.1584e-05
5.98854e-05
-4.4059e-05
4.20114e-05
-4.59841e-05
2.54508e-05
-4.73554e-05
1.01706e-05
-4.81366e-05
-4.02867e-06
-4.82744e-05
-1.73606e-05
-4.77106e-05
-2.99612e-05
-4.6393e-05
-4.18424e-05
-4.42848e-05
-5.28821e-05
-4.13741e-05
-6.28321e-05
-3.76837e-05
-7.13364e-05
-3.32834e-05
-7.79573e-05
-2.83011e-05
-8.22088e-05
-2.29305e-05
-8.35998e-05
-1.74327e-05
-8.16821e-05
-1.21268e-05
-7.60961e-05
-7.37056e-06
-6.65988e-05
-3.53246e-06
-5.30534e-05
-9.66315e-07
-3.53711e-05
-1.33624e-05
1.13139e-06
-1.49277e-05
4.02323e-06
-3.9351e-05
8.21041e-06
-5.88595e-05
1.32427e-05
-7.37117e-05
1.87025e-05
-8.41095e-05
2.42293e-05
-9.03407e-05
2.95384e-05
-9.28185e-05
3.4429e-05
-9.20637e-05
3.87802e-05
-8.8657e-05
4.2538e-05
-8.31835e-05
4.56982e-05
-7.6187e-05
4.82887e-05
-6.81405e-05
5.03547e-05
-5.94319e-05
5.19473e-05
-5.03637e-05
5.31157e-05
-4.11594e-05
5.3903e-05
-3.19742e-05
5.43439e-05
-2.29059e-05
5.4464e-05
-1.40044e-05
5.42796e-05
-5.27923e-06
5.37976e-05
3.29591e-06
5.30147e-05
1.17802e-05
5.19164e-05
2.02649e-05
5.04743e-05
2.88717e-05
4.86446e-05
3.7751e-05
4.63656e-05
4.70766e-05
4.35589e-05
5.70349e-05
4.01335e-05
6.78037e-05
3.59983e-05
7.95132e-05
3.10816e-05
9.21816e-05
2.53601e-05
0.000105618
1.88896e-05
0.0001193
1.18271e-05
0.000132262
4.4293e-06
0.000143081
-2.98095e-06
0.000150051
-1.00799e-05
0.000151596
-1.661e-05
0.00014687
-2.24192e-05
0.000136121
-2.74672e-05
0.000120596
-3.17969e-05
0.000102101
-3.54905e-05
8.24454e-05
-3.86263e-05
6.30213e-05
-4.12528e-05
4.46379e-05
-4.33804e-05
2.75784e-05
-4.49862e-05
1.17764e-05
-4.60253e-05
-2.98957e-06
-4.64415e-05
-1.69444e-05
-4.6176e-05
-3.02267e-05
-4.51749e-05
-4.28435e-05
-4.33954e-05
-5.46616e-05
-4.08139e-05
-6.54136e-05
-3.74365e-05
-7.47138e-05
-3.33121e-05
-8.20816e-05
-2.85471e-05
-8.69739e-05
-2.33169e-05
-8.88299e-05
-1.78729e-05
-8.71261e-05
-1.25368e-05
-8.14323e-05
-7.68349e-06
-7.14521e-05
-3.71379e-06
-5.70231e-05
-1.02576e-06
-3.80592e-05
-1.43882e-05
1.15449e-06
-1.60821e-05
4.06911e-06
-4.22657e-05
8.23668e-06
-6.3027e-05
1.31757e-05
-7.86507e-05
1.84518e-05
-8.93856e-05
2.37033e-05
-9.55923e-05
2.86579e-05
-9.7773e-05
3.31365e-05
-9.65423e-05
3.70443e-05
-9.25648e-05
4.03531e-05
-8.64923e-05
4.3081e-05
-7.8915e-05
4.52733e-05
-7.03328e-05
4.69868e-05
-6.11453e-05
4.82789e-05
-5.16558e-05
4.92012e-05
-4.20817e-05
4.9796e-05
-3.2569e-05
5.00952e-05
-2.32051e-05
5.01205e-05
-1.40296e-05
4.98837e-05
-5.04241e-06
4.93873e-05
3.79222e-06
4.86247e-05
1.25429e-05
4.75784e-05
2.13112e-05
4.62194e-05
3.02307e-05
4.4505e-05
3.94655e-05
4.23772e-05
4.92043e-05
3.97643e-05
5.96479e-05
3.6585e-05
7.0983e-05
3.27603e-05
8.33379e-05
2.82326e-05
9.67093e-05
2.29912e-05
0.000110859
1.70994e-05
0.000125191
1.07102e-05
0.000138651
4.05851e-06
0.000149733
-2.57597e-06
0.000156685
-8.9296e-06
0.00015795
-1.48076e-05
0.000152748
-2.01067e-05
0.00014142
-2.48093e-05
0.000125299
-2.8953e-05
0.000106245
-3.25934e-05
8.60858e-05
-3.57737e-05
6.62016e-05
-3.85097e-05
4.73739e-05
-4.07882e-05
2.98568e-05
-4.25738e-05
1.3562e-05
-4.38175e-05
-1.74582e-06
-4.44645e-05
-1.62975e-05
-4.44585e-05
-3.02327e-05
-4.37456e-05
-4.35564e-05
-4.22785e-05
-5.61287e-05
-4.00228e-05
-6.76693e-05
-3.69675e-05
-7.77691e-05
-3.31397e-05
-8.59094e-05
-2.86214e-05
-9.14922e-05
-2.35666e-05
-9.38848e-05
-1.82123e-05
-9.24804e-05
-1.28791e-05
-8.67655e-05
-7.95655e-06
-7.63746e-05
-3.87624e-06
-6.11034e-05
-1.07997e-06
-4.08555e-05
-1.54682e-05
1.16965e-06
-1.72518e-05
4.0866e-06
-4.51826e-05
8.2051e-06
-6.71455e-05
1.30162e-05
-8.34618e-05
1.80735e-05
-9.44429e-05
2.30186e-05
-0.000100537
2.75954e-05
-0.00010235
3.16494e-05
-0.000100596
3.51131e-05
-9.60284e-05
3.79837e-05
-8.93629e-05
4.03002e-05
-8.12315e-05
4.21228e-05
-7.21553e-05
4.35172e-05
-6.25397e-05
4.45449e-05
-5.26835e-05
4.52577e-05
-4.27946e-05
4.56958e-05
-3.30071e-05
4.58871e-05
-2.33964e-05
4.58488e-05
-1.39913e-05
4.5588e-05
-4.78162e-06
4.51028e-05
4.27747e-06
4.43823e-05
1.32634e-05
4.34064e-05
2.22871e-05
4.21447e-05
3.14924e-05
4.05552e-05
4.1055e-05
3.85835e-05
5.1176e-05
3.61644e-05
6.2067e-05
3.32267e-05
7.39207e-05
2.97045e-05
8.68601e-05
2.55547e-05
0.000100859
2.07798e-05
0.000115634
1.54494e-05
0.000130522
9.71036e-06
0.00014439
3.77336e-06
0.00015567
-2.12582e-06
0.000162584
-7.78101e-06
0.000163605
-1.30538e-05
0.00015802
-1.78817e-05
0.000146248
-2.22625e-05
0.000129679
-2.62242e-05
0.000110207
-2.97958e-05
8.96574e-05
-3.29885e-05
6.93943e-05
-3.57904e-05
5.01759e-05
-3.81703e-05
3.22367e-05
-4.00847e-05
1.54764e-05
-4.14848e-05
-3.45777e-07
-4.23194e-05
-1.54629e-05
-4.2537e-05
-3.00151e-05
-4.20857e-05
-4.40078e-05
-4.09149e-05
-5.72995e-05
-3.8981e-05
-6.96033e-05
-3.62564e-05
-8.04936e-05
-3.27457e-05
-8.94201e-05
-2.8505e-05
-9.57329e-05
-2.36631e-05
-9.87266e-05
-1.84389e-05
-9.77047e-05
-1.31467e-05
-9.20576e-05
-8.18712e-06
-8.13342e-05
-4.01981e-06
-6.52707e-05
-1.12953e-06
-4.37457e-05
-1.65977e-05
1.17736e-06
-1.84292e-05
4.07721e-06
-4.80825e-05
8.11876e-06
-7.11871e-05
1.277e-05
-8.8113e-05
1.7577e-05
-9.925e-05
2.21896e-05
-0.00010515
2.63718e-05
-0.000106532
2.99961e-05
-0.000104221
3.30224e-05
-9.90548e-05
3.54728e-05
-9.18133e-05
3.74047e-05
-8.31635e-05
3.88905e-05
-7.36411e-05
4.00019e-05
-6.36512e-05
4.08022e-05
-5.34838e-05
4.13415e-05
-4.33339e-05
4.16562e-05
-3.33218e-05
4.177e-05
-2.35102e-05
4.16949e-05
-1.39163e-05
4.14334e-05
-4.52011e-06
4.09791e-05
4.73183e-06
4.03172e-05
1.39253e-05
3.94249e-05
2.31794e-05
3.82702e-05
3.26471e-05
3.68118e-05
4.25135e-05
3.49986e-05
5.29892e-05
3.2772e-05
6.42936e-05
3.00709e-05
7.66217e-05
2.68428e-05
9.00882e-05
2.30591e-05
0.000104643
1.87348e-05
0.000119958
1.39451e-05
0.000135311
8.82879e-06
0.000149507
3.5712e-06
0.000160928
-1.6351e-06
0.000167791
-6.6373e-06
0.000168608
-1.13467e-05
0.00016273
-1.57344e-05
0.000150635
-1.98081e-05
0.000133753
-2.35842e-05
0.000113983
-2.70665e-05
9.31397e-05
-3.02382e-05
7.2566e-05
-3.30646e-05
5.30023e-05
-3.55007e-05
3.46728e-05
-3.74987e-05
1.74744e-05
-3.90122e-05
1.16767e-06
-3.99958e-05
-1.44792e-05
-4.04042e-05
-2.96067e-05
-4.01888e-05
-4.42232e-05
-3.92979e-05
-5.81905e-05
-3.76797e-05
-7.12214e-05
-3.52919e-05
-8.28814e-05
-3.21169e-05
-9.25951e-05
-2.81837e-05
-9.96661e-05
-2.35934e-05
-0.000103317
-1.85419e-05
-0.000102756
-1.33324e-05
-9.72671e-05
-8.37136e-06
-8.62953e-05
-4.14332e-06
-6.94987e-05
-1.17441e-06
-4.67146e-05
-1.77721e-05
1.178e-06
-1.96072e-05
4.04245e-06
-5.09469e-05
7.98112e-06
-7.51258e-05
1.24434e-05
-9.25753e-05
1.69731e-05
-0.00010378
2.12327e-05
-0.000109409
2.501e-05
-0.000110309
2.8206e-05
-0.000107417
3.08085e-05
-0.000101657
3.28621e-05
-9.38669e-05
3.44406e-05
-8.47419e-05
3.5625e-05
-7.48255e-05
3.64909e-05
-6.4517e-05
3.71002e-05
-5.40932e-05
3.75e-05
-4.37336e-05
3.77219e-05
-3.35437e-05
3.77845e-05
-2.35728e-05
3.76949e-05
-1.38267e-05
3.74509e-05
-4.27604e-06
3.70418e-05
5.1409e-06
3.64496e-05
1.45174e-05
3.56489e-05
2.39801e-05
3.46066e-05
3.36894e-05
3.32818e-05
4.38382e-05
3.1627e-05
5.4644e-05
2.959e-05
6.63306e-05
2.712e-05
7.90918e-05
2.41772e-05
9.3031e-05
2.07474e-05
0.000108073
1.68573e-05
0.000123848
1.25861e-05
0.000139583
8.06358e-06
0.000154029
3.44917e-06
0.000165542
-1.10577e-06
0.000172346
-5.49702e-06
0.000172999
-9.67916e-06
0.000166912
-1.36505e-05
0.000154607
-1.74252e-05
0.000137528
-2.10074e-05
0.000117565
-2.43783e-05
9.65106e-05
-2.7497e-05
7.56847e-05
-3.03103e-05
5.58155e-05
-3.27631e-05
3.71256e-05
-3.48056e-05
1.95169e-05