/*--------------------------------*- C++ -*----------------------------------*\
| =========                 |                                                 |
| \\      /  F ield         | OpenFOAM: The Open Source CFD Toolbox           |
|  \\    /   O peration     | Version:  2406                                  |
|   \\  /    A nd           | Website:  www.openfoam.com                      |
|    \\/     M anipulation  |                                                 |
\*---------------------------------------------------------------------------*/
FoamFile
{
    version     2.0;
    format      ascii;
    arch        "LSB;label=32;scalar=64";
    class       volScalarField;
    location    "10000";
    object      qin;
}
// * * * * * * * * * * * * * * * * * * * * * * * * * * * * * * * * * * * * * //

dimensions      [1 0 -3 0 0 0 0];

internalField   uniform 0;

boundaryField
{
    bottomwall
    {
        type            calculated;
        value           nonuniform List<scalar> 
60
(
443.194
443.378
443.524
443.679
443.797
443.861
443.903
443.947
444.01
444.122
444.315
444.582
444.874
445.131
445.324
445.461
445.575
445.697
445.847
446.026
446.217
446.387
446.48
446.436
446.228
445.907
445.631
445.619
445.994
446.562
446.662
445.248
441.341
434.778
426.996
421.446
423.284
438.248
471
523.511
594.109
677.581
766.293
851.892
926.945
985.969
1025.66
1044.48
1042.06
1018.8
975.881
915.593
841.758
759.813
676.386
598.365
531.612
480.234
445.167
422.73
)
;
    }
    topwall
    {
        type            calculated;
        value           nonuniform List<scalar> 
60
(
448.352
447.675
447.567
447.431
447.533
447.852
448.434
449.402
450.926
453.061
455.637
458.31
460.734
462.702
464.161
465.136
465.656
465.726
465.349
464.551
463.381
461.909
460.21
458.364
456.472
454.675
453.166
452.178
451.931
452.563
454.068
456.271
458.864
461.49
463.829
465.663
466.895
467.516
467.566
467.092
466.135
464.744
463.001
461.039
459.035
457.175
455.611
454.456
453.806
453.765
454.401
455.655
457.299
459.003
460.479
461.562
462.228
462.413
462.416
461.153
)
;
    }
    coldwall
    {
        type            calculated;
        value           nonuniform List<scalar> 
48
(
448.871
451.965
453.597
454.743
456.363
459.182
462.506
464.271
462.894
458.934
454.626
451.969
451.415
452.127
453.04
453.609
453.882
454.202
454.934
456.297
458.287
460.645
462.903
464.522
465.062
464.34
462.478
459.857
456.984
454.346
452.29
450.971
450.365
450.331
450.688
451.277
451.993
452.793
453.667
454.621
455.648
456.724
456.166
454.169
452.188
450.084
447.597
444.006
)
;
    }
    radinlet
    {
        type            calculated;
        value           nonuniform List<scalar> 
12
(
457.801
458.806
459.648
460.237
460.526
460.564
460.483
460.412
460.337
460.065
459.325
457.983
)
;
    }
    hotwall
    {
        type            calculated;
        value           nonuniform List<scalar> 
60
(
431.611
436.714
452.048
459.115
466.745
473.139
477.303
478.082
476.075
472.746
469.612
467.614
466.909
467.032
467.325
467.304
466.804
465.911
464.809
463.682
462.662
461.821
461.18
460.715
460.374
460.086
459.777
459.391
458.9
458.32
457.707
457.134
456.662
456.318
456.085
455.907
455.717
455.462
455.117
454.696
454.237
453.792
453.409
453.112
452.89
452.702
452.523
452.399
452.462
452.846
453.541
454.321
454.857
454.952
454.656
454.105
453.304
452.083
450.291
447.245
)
;
    }
    frontAndback
    {
        type            empty;
    }
}


// ************************************************************************* //
