/*--------------------------------*- C++ -*----------------------------------*\
| =========                 |                                                 |
| \\      /  F ield         | OpenFOAM: The Open Source CFD Toolbox           |
|  \\    /   O peration     | Version:  2406                                  |
|   \\  /    A nd           | Website:  www.openfoam.com                      |
|    \\/     M anipulation  |                                                 |
\*---------------------------------------------------------------------------*/
FoamFile
{
    version     2.0;
    format      ascii;
    arch        "LSB;label=32;scalar=64";
    class       volScalarField;
    location    "10000";
    object      RadNu;
}
// * * * * * * * * * * * * * * * * * * * * * * * * * * * * * * * * * * * * * //

dimensions      [0 0 0 0 0 0 0];

internalField   uniform 0;

boundaryField
{
    bottomwall
    {
        type            calculated;
        value           nonuniform List<scalar> 
60
(
0.34178
0.667763
0.851496
0.962573
1.03523
1.08651
1.12408
1.15222
1.17361
1.18908
1.19874
1.20375
1.20688
1.21101
1.21769
1.22669
1.2368
1.24675
1.25582
1.26398
1.27196
1.28129
1.29432
1.31371
1.34081
1.37368
1.40585
1.42831
1.43596
1.43673
1.45815
1.54375
1.73451
2.03757
2.39344
2.65859
2.61814
2.03239
0.705549
-1.44673
-4.35748
-7.81228
-11.4956
-15.0617
-18.202
-20.6887
-22.3835
-23.2214
-23.185
-22.2883
-20.5771
-18.1449
-15.149
-11.816
-8.42446
-5.26669
-2.59643
-0.602076
0.645127
1.23044
)
;
    }
    topwall
    {
        type            calculated;
        value           nonuniform List<scalar> 
60
(
-0.482963
-0.315055
-0.182919
-0.062183
0.0345817
0.107939
0.156485
0.17643
0.162224
0.113071
0.0374651
-0.0490936
-0.131254
-0.199588
-0.251174
-0.286387
-0.305702
-0.308725
-0.294977
-0.264895
-0.220095
-0.162973
-0.0962331
-0.022854
0.0533254
0.126718
0.189462
0.232014
0.24517
0.223021
0.165598
0.0798236
-0.0219062
-0.125038
-0.216615
-0.287908
-0.335067
-0.357991
-0.358431
-0.338422
-0.299734
-0.244398
-0.175791
-0.0994109
-0.0225903
0.0469634
0.102782
0.139952
0.153862
0.139231
0.0917052
0.0115439
-0.0944279
-0.215578
-0.343119
-0.473159
-0.60686
-0.7422
-0.891548
-1.00874
)
;
    }
    coldwall
    {
        type            calculated;
        value           nonuniform List<scalar> 
48
(
-0.592992
-0.728113
-0.799376
-0.849429
-0.920187
-1.04331
-1.18848
-1.26554
-1.20543
-1.03246
-0.844314
-0.728283
-0.704118
-0.735217
-0.775075
-0.799939
-0.811818
-0.825807
-0.857761
-0.917295
-1.0042
-1.10718
-1.20582
-1.27649
-1.3001
-1.26856
-1.18726
-1.07277
-0.947303
-0.832096
-0.742302
-0.684693
-0.658233
-0.656768
-0.672359
-0.698057
-0.72936
-0.764269
-0.802452
-0.844096
-0.888967
-0.935958
-0.911589
-0.824385
-0.737842
-0.64599
-0.537378
-0.380536
)
;
    }
    radinlet
    {
        type            calculated;
        value           nonuniform List<scalar> 
12
(
25.8549
25.8109
25.7742
25.7485
25.7358
25.7342
25.7377
25.7408
25.7441
25.756
25.7883
25.8469
)
;
    }
    hotwall
    {
        type            calculated;
        value           nonuniform List<scalar> 
60
(
0.160773
-0.0620636
-0.731733
-1.04037
-1.37358
-1.65281
-1.83469
-1.86868
-1.78104
-1.63569
-1.49878
-1.41155
-1.38074
-1.38614
-1.39892
-1.39798
-1.37618
-1.33715
-1.28905
-1.23984
-1.19529
-1.15857
-1.13055
-1.11027
-1.09537
-1.08277
-1.0693
-1.05241
-1.03096
-1.00567
-0.978902
-0.953848
-0.933235
-0.918241
-0.908046
-0.900268
-0.891975
-0.880824
-0.865796
-0.847401
-0.827341
-0.807907
-0.79118
-0.778224
-0.768519
-0.760319
-0.752511
-0.747096
-0.749828
-0.766588
-0.796969
-0.831024
-0.854398
-0.858566
-0.845625
-0.821581
-0.786595
-0.733271
-0.655011
-0.521977
)
;
    }
    frontAndback
    {
        type            empty;
    }
}


// ************************************************************************* //
