/*--------------------------------*- C++ -*----------------------------------*\
| =========                 |                                                 |
| \\      /  F ield         | OpenFOAM: The Open Source CFD Toolbox           |
|  \\    /   O peration     | Version:  2406                                  |
|   \\  /    A nd           | Website:  www.openfoam.com                      |
|    \\/     M anipulation  |                                                 |
\*---------------------------------------------------------------------------*/
FoamFile
{
    version     2.0;
    format      ascii;
    arch        "LSB;label=32;scalar=64";
    class       volScalarField;
    location    "10000";
    object      T;
}
// * * * * * * * * * * * * * * * * * * * * * * * * * * * * * * * * * * * * * //

dimensions      [0 0 0 1 0 0 0];

internalField   nonuniform List<scalar> 
3600
(
297.511
299.021
299.872
300.397
300.742
300.981
301.155
301.288
301.394
301.484
301.563
301.635
301.704
301.771
301.837
301.902
301.968
302.035
302.102
302.172
302.243
302.316
302.39
302.467
302.546
302.629
302.718
302.814
302.917
303.027
303.139
303.247
303.347
303.44
303.535
303.651
303.818
304.062
304.401
304.834
305.34
305.876
306.39
306.833
307.16
307.345
307.375
307.247
306.968
306.549
306.007
305.36
304.633
303.851
303.039
302.21
301.354
300.419
299.265
297.555
296.788
297.962
298.764
299.312
299.696
299.972
300.178
300.339
300.47
300.581
300.681
300.773
300.861
300.947
301.033
301.118
301.204
301.292
301.381
301.472
301.565
301.661
301.759
301.861
301.967
302.078
302.196
302.324
302.461
302.608
302.761
302.917
303.07
303.218
303.366
303.523
303.705
303.924
304.188
304.489
304.805
305.107
305.36
305.534
305.61
305.577
305.434
305.188
304.848
304.424
303.931
303.38
302.784
302.154
301.496
300.806
300.064
299.223
298.195
296.853
296.486
297.326
297.976
298.461
298.822
299.095
299.308
299.478
299.621
299.746
299.859
299.966
300.069
300.171
300.272
300.375
300.479
300.584
300.692
300.803
300.916
301.033
301.153
301.277
301.407
301.544
301.691
301.849
302.02
302.204
302.4
302.602
302.804
303
303.185
303.361
303.533
303.704
303.875
304.035
304.171
304.262
304.292
304.249
304.129
303.935
303.675
303.357
302.992
302.587
302.152
301.691
301.209
300.708
300.185
299.629
299.023
298.334
297.521
296.547
296.328
296.929
297.428
297.824
298.136
298.382
298.581
298.747
298.891
299.02
299.139
299.254
299.366
299.478
299.591
299.705
299.821
299.94
300.062
300.188
300.317
300.45
300.588
300.731
300.882
301.042
301.213
301.4
301.603
301.824
302.061
302.308
302.554
302.788
302.998
303.175
303.315
303.418
303.481
303.499
303.465
303.373
303.223
303.017
302.763
302.469
302.145
301.801
301.443
301.075
300.702
300.324
299.941
299.548
299.14
298.706
298.231
297.696
297.081
296.378
296.234
296.674
297.053
297.368
297.625
297.838
298.016
298.17
298.308
298.435
298.555
298.671
298.786
298.901
299.018
299.137
299.259
299.385
299.514
299.648
299.786
299.93
300.08
300.237
300.404
300.582
300.775
300.986
301.218
301.473
301.748
302.036
302.322
302.585
302.807
302.97
303.064
303.085
303.035
302.916
302.733
302.495
302.214
301.9
301.567
301.224
300.882
300.544
300.214
299.894
299.582
299.276
298.973
298.668
298.352
298.018
297.654
297.247
296.787
296.272
296.176
296.508
296.803
297.055
297.269
297.451
297.61
297.752
297.882
298.003
298.12
298.234
298.346
298.459
298.574
298.691
298.811
298.935
299.064
299.198
299.339
299.486
299.642
299.807
299.983
300.174
300.383
300.614
300.871
301.156
301.465
301.789
302.107
302.392
302.616
302.753
302.791
302.725
302.566
302.326
302.025
301.681
301.315
300.942
300.576
300.225
299.894
299.583
299.293
299.021
298.764
298.518
298.278
298.038
297.792
297.533
297.252
296.94
296.59
296.203
296.139
296.404
296.643
296.853
297.037
297.2
297.345
297.478
297.602
297.718
297.83
297.939
298.046
298.153
298.261
298.37
298.482
298.598
298.72
298.847
298.982
299.126
299.279
299.445
299.625
299.823
300.042
300.288
300.565
300.874
301.212
301.566
301.909
302.209
302.426
302.53
302.506
302.358
302.102
301.766
301.378
300.968
300.558
300.165
299.8
299.466
299.164
298.891
298.644
298.417
298.206
298.005
297.811
297.617
297.418
297.21
296.984
296.736
296.46
296.158
296.116
296.341
296.548
296.734
296.902
297.055
297.194
297.324
297.444
297.558
297.667
297.771
297.871
297.97
298.067
298.165
298.265
298.369
298.477
298.592
298.716
298.849
298.994
299.154
299.331
299.529
299.753
300.009
300.3
300.629
300.99
301.366
301.728
302.034
302.238
302.305
302.223
302.001
301.667
301.259
300.817
300.373
299.952
299.567
299.223
298.922
298.658
298.425
298.218
298.03
297.854
297.687
297.523
297.358
297.188
297.01
296.818
296.608
296.378
296.129
296.104
296.307
296.498
296.675
296.838
296.989
297.129
297.26
297.382
297.495
297.602
297.702
297.796
297.886
297.973
298.058
298.144
298.233
298.325
298.424
298.531
298.65
298.782
298.93
299.099
299.292
299.516
299.775
300.075
300.417
300.795
301.189
301.562
301.868
302.055
302.085
301.949
301.666
301.274
300.821
300.351
299.9
299.489
299.128
298.819
298.556
298.331
298.137
297.964
297.807
297.658
297.512
297.367
297.218
297.063
296.899
296.724
296.535
296.33
296.112
296.099
296.294
296.48
296.656
296.822
296.978
297.123
297.259
297.385
297.501
297.608
297.705
297.794
297.877
297.954
298.027
298.099
298.172
298.247
298.328
298.418
298.519
298.634
298.767
298.924
299.108
299.326
299.584
299.888
300.239
300.627
301.031
301.41
301.71
301.877
301.873
301.693
301.363
300.932
300.454
299.977
299.537
299.15
298.823
298.552
298.328
298.141
297.98
297.836
297.701
297.57
297.439
297.303
297.16
297.01
296.85
296.68
296.499
296.306
296.104
296.099
296.294
296.483
296.664
296.838
297.002
297.156
297.299
297.431
297.551
297.66
297.756
297.843
297.919
297.988
298.05
298.109
298.167
298.226
298.29
298.361
298.443
298.54
298.657
298.798
298.97
299.179
299.433
299.737
300.09
300.484
300.892
301.271
301.562
301.708
301.673
301.457
301.095
300.641
300.156
299.688
299.269
298.914
298.624
298.391
298.203
298.048
297.914
297.793
297.675
297.556
297.432
297.299
297.157
297.005
296.843
296.67
296.489
296.298
296.1
296.101
296.302
296.499
296.69
296.873
297.048
297.212
297.364
297.503
297.628
297.74
297.837
297.921
297.993
298.055
298.109
298.157
298.201
298.245
298.293
298.346
298.41
298.49
298.589
298.714
298.872
299.07
299.316
299.615
299.968
300.362
300.769
301.142
301.421
301.547
301.487
301.245
300.863
300.401
299.921
299.471
299.08
298.759
298.505
298.306
298.15
298.022
297.911
297.806
297.7
297.588
297.466
297.333
297.188
297.03
296.861
296.683
296.495
296.301
296.101
296.105
296.315
296.523
296.725
296.92
297.106
297.281
297.443
297.589
297.72
297.834
297.933
298.016
298.085
298.141
298.188
298.227
298.26
298.291
298.324
298.362
298.41
298.472
298.554
298.663
298.807
298.992
299.229
299.521
299.869
300.258
300.66
301.025
301.289
301.397
301.316
301.057
300.665
300.205
299.739
299.313
298.953
298.665
298.444
298.277
298.147
298.041
297.947
297.854
297.756
297.648
297.526
297.39
297.239
297.074
296.896
296.708
296.512
296.31
296.104
296.111
296.332
296.551
296.766
296.974
297.172
297.357
297.527
297.681
297.817
297.935
298.035
298.118
298.184
298.237
298.278
298.309
298.333
298.354
298.374
298.399
298.432
298.479
298.545
298.639
298.768
298.941
299.166
299.449
299.789
300.171
300.564
300.916
301.166
301.256
301.16
300.891
300.498
300.048
299.602
299.202
298.873
298.617
298.425
298.284
298.176
298.088
298.006
297.923
297.83
297.723
297.6
297.46
297.302
297.128
296.941
296.743
296.536
296.323
296.108
296.117
296.351
296.583
296.81
297.031
297.24
297.436
297.615
297.776
297.917
298.038
298.139
298.221
298.286
298.335
298.371
298.396
298.413
298.425
298.435
298.448
298.469
298.502
298.555
298.634
298.75
298.91
299.124
299.397
299.726
300.098
300.479
300.817
301.05
301.126
301.018
300.746
300.359
299.924
299.501
299.129
298.829
298.601
298.435
298.315
298.226
298.151
298.08
298.003
297.914
297.808
297.682
297.537
297.372
297.189
296.992
296.782
296.564
296.34
296.113
296.123
296.37
296.616
296.856
297.089
297.309
297.515
297.702
297.869
298.015
298.139
298.241
298.322
298.385
298.432
298.463
298.483
298.494
298.499
298.501
298.504
298.514
298.536
298.577
298.644
298.747
298.896
299.098
299.359
299.677
300.037
300.403
300.725
300.943
301.005
300.891
300.62
300.244
299.828
299.428
299.084
298.81
298.608
298.464
298.362
298.288
298.225
298.162
298.09
298.003
297.896
297.768
297.618
297.446
297.254
297.046
296.825
296.594
296.358
296.119
296.13
296.39
296.649
296.903
297.147
297.379
297.594
297.789
297.962
298.111
298.236
298.339
298.42
298.481
298.524
298.552
298.568
298.573
298.572
298.567
298.563
298.565
298.578
298.608
298.665
298.757
298.894
299.085
299.334
299.64
299.985
300.335
300.641
300.843
300.895
300.777
300.511
300.15
299.754
299.379
299.06
298.811
298.63
298.505
298.419
298.357
298.303
298.246
298.179
298.093
297.987
297.856
297.701
297.522
297.321
297.102
296.869
296.626
296.377
296.126
296.137
296.41
296.682
296.949
297.206
297.448
297.672
297.874
298.051
298.204
298.33
298.433
298.512
298.571
298.612
298.637
298.648
298.649
298.643
298.633
298.623
298.617
298.622
298.645
298.692
298.775
298.902
299.081
299.319
299.611
299.941
300.275
300.564
300.751
300.793
300.674
300.417
300.072
299.698
299.348
299.053
298.826
298.664
298.555
298.482
298.429
298.383
298.332
298.268
298.185
298.078
297.945
297.785
297.599
297.39
297.16
296.915
296.659
296.397
296.132
296.143
296.431
296.716
296.996
297.264
297.517
297.749
297.957
298.138
298.293
298.42
298.522
298.6
298.656
298.694
298.715
298.723
298.721
298.71
298.696
298.681
298.67
298.669
298.685
298.725
298.799
298.917
299.086
299.312
299.59
299.904
300.221
300.492
300.666
300.7
300.583
300.336
300.009
299.658
299.331
299.058
298.851
298.706
298.609
298.547
298.503
298.463
298.417
298.356
298.275
298.168
298.033
297.869
297.677
297.459
297.219
296.962
296.693
296.417
296.139
296.15
296.451
296.75
297.042
297.322
297.584
297.824
298.038
298.222
298.378
298.505
298.606
298.681
298.735
298.77
298.788
298.793
298.787
298.773
298.755
298.737
298.722
298.716
298.726
298.76
298.827
298.937
299.096
299.311
299.575
299.873
300.172
300.426
300.587
300.615
300.501
300.267
299.958
299.629
299.324
299.072
298.882
298.751
298.667
298.613
298.576
298.542
298.5
298.443
298.363
298.257
298.121
297.953
297.755
297.529
297.279
297.01
296.727
296.438
296.146
296.157
296.471
296.783
297.088
297.379
297.651
297.898
298.116
298.303
298.46
298.586
298.684
298.757
298.808
298.84
298.855
298.857
298.848
298.832
298.811
298.789
298.771
298.762
298.768
298.797
298.858
298.96
299.111
299.314
299.565
299.846
300.128
300.366
300.514
300.538
300.428
300.206
299.917
299.609
299.326
299.093
298.919
298.8
298.725
298.679
298.648
298.619
298.581
298.527
298.45
298.345
298.207
298.037
297.834
297.6
297.339
297.058
296.763
296.459
296.153
296.164
296.492
296.817
297.134
297.436
297.716
297.969
298.192
298.381
298.538
298.662
298.758
298.828
298.876
298.904
298.916
298.916
298.904
298.886
298.863
298.839
298.818
298.806
298.809
298.834
298.891
298.986
299.129
299.321
299.558
299.823
300.087
300.31
300.447
300.467
300.363
300.155
299.884
299.597
299.334
299.118
298.958
298.85
298.783
298.743
298.717
298.693
298.66
298.609
298.534
298.43
298.293
298.12
297.912
297.67
297.4
297.107
296.798
296.481
296.16
296.17
296.512
296.85
297.179
297.491
297.78
298.04
298.266
298.456
298.612
298.734
298.827
298.894
298.938
298.963
298.973
298.969
298.956
298.935
298.911
298.885
298.863
298.849
298.85
298.872
298.924
299.014
299.148
299.33
299.553
299.803
300.051
300.258
300.385
300.402
300.304
300.11
299.858
299.591
299.347
299.147
298.999
298.9
298.841
298.806
298.785
298.764
298.735
298.687
298.616
298.513
298.376
298.202
297.989
297.741
297.461
297.157
296.834
296.503
296.167
296.177
296.532
296.883
297.224
297.547
297.844
298.108
298.337
298.528
298.682
298.802
298.892
298.955
298.996
299.017
299.024
299.018
299.003
298.981
298.955
298.928
298.905
298.89
298.889
298.909
298.957
299.042
299.169
299.341
299.551
299.786
300.018
300.211
300.328
300.344
300.252
300.072
299.838
299.59
299.363
299.178
299.041
298.951
298.897
298.867
298.85
298.833
298.807
298.763
298.694
298.594
298.458
298.282
298.066
297.812
297.523
297.206
296.871
296.525
296.175
296.184
296.552
296.916
297.269
297.601
297.906
298.175
298.406
298.597
298.749
298.866
298.952
299.011
299.048
299.067
299.071
299.063
299.046
299.023
298.996
298.969
298.945
298.929
298.927
298.945
298.991
299.071
299.191
299.353
299.551
299.771
299.987
300.167
300.276
300.29
300.206
300.039
299.823
299.593
299.383
299.211
299.084
299.001
298.952
298.926
298.912
298.898
298.875
298.835
298.769
298.672
298.537
298.361
298.142
297.882
297.584
297.256
296.908
296.547
296.182
296.191
296.572
296.949
297.313
297.655
297.967
298.24
298.473
298.663
298.813
298.926
299.008
299.064
299.097
299.112
299.114
299.104
299.085
299.061
299.034
299.006
298.983
298.967
298.964
298.981
299.024
299.099
299.213
299.366
299.552
299.758
299.959
300.126
300.227
300.241
300.164
300.011
299.811
299.599
299.404
299.244
299.127
299.05
299.005
298.982
298.971
298.96
298.941
298.904
298.841
298.747
298.614
298.438
298.217
297.951
297.646
297.307
296.945
296.57
296.19
296.197
296.592
296.981
297.357
297.709
298.027
298.304
298.537
298.726
298.873
298.983
299.061
299.112
299.142
299.154
299.153
299.141
299.121
299.096
299.069
299.042
299.018
299.002
298.999
299.015
299.056
299.128
299.235
299.379
299.554
299.746
299.934
300.089
300.183
300.197
300.127
299.987
299.803
299.607
299.427
299.278
299.169
299.097
299.056
299.037
299.027
299.019
299.002
298.969
298.91
298.819
298.688
298.513
298.291
298.02
297.707
297.357
296.982
296.592
296.197
296.204
296.612
297.014
297.401
297.761
298.086
298.366
298.6
298.787
298.931
299.036
299.11
299.157
299.183
299.192
299.188
299.175
299.154
299.129
299.101
299.074
299.051
299.036
299.033
299.048
299.087
299.156
299.257
299.393
299.557
299.736
299.911
300.055
300.142
300.156
300.093
299.965
299.797
299.617
299.45
299.312
299.21
299.144
299.106
299.088
299.081
299.075
299.061
299.03
298.975
298.888
298.76
298.586
298.363
298.088
297.767
297.407
297.019
296.615
296.205
296.211
296.632
297.046
297.444
297.814
298.144
298.427
298.66
298.845
298.985
299.086
299.155
299.198
299.22
299.227
299.221
299.206
299.184
299.159
299.132
299.105
299.083
299.068
299.066
299.081
299.118
299.183
299.279
299.407
299.56
299.727
299.889
300.023
300.105
300.119
300.063
299.947
299.794
299.629
299.474
299.346
299.251
299.189
299.154
299.138
299.132
299.128
299.116
299.089
299.037
298.953
298.829
298.657
298.433
298.155
297.827
297.457
297.056
296.638
296.212
296.217
296.652
297.079
297.488
297.865
298.201
298.486
298.719
298.901
299.037
299.133
299.197
299.236
299.255
299.258
299.251
299.234
299.212
299.187
299.16
299.134
299.113
299.099
299.097
299.112
299.148
299.21
299.301
299.421
299.564
299.72
299.87
299.994
300.071
300.085
300.036
299.931
299.792
299.641
299.499
299.38
299.291
299.232
299.2
299.185
299.18
299.178
299.168
299.144
299.096
299.016
298.895
298.725
298.501
298.221
297.887
297.507
297.093
296.66
296.22
296.224
296.671
297.111
297.531
297.916
298.257
298.544
298.775
298.954
299.086
299.177
299.237
299.271
299.287
299.288
299.278
299.261
299.238
299.212
299.186
299.162
299.141
299.128
299.127
299.142
299.177
299.236
299.322
299.434
299.568
299.713
299.853
299.967
300.039
300.054
300.011
299.918
299.791
299.654
299.523
299.413
299.33
299.275
299.244
299.23
299.227
299.225
299.217
299.196
299.151
299.075
298.958
298.791
298.568
298.285
297.945
297.556
297.13
296.683
296.228
296.23
296.691
297.143
297.573
297.967
298.312
298.6
298.83
299.005
299.132
299.219
299.274
299.304
299.316
299.314
299.303
299.285
299.262
299.237
299.211
299.188
299.168
299.157
299.156
299.171
299.205
299.262
299.343
299.448
299.573
299.707
299.837
299.943
300.01
300.026
299.989
299.906
299.792
299.666
299.547
299.445
299.367
299.316
299.286
299.273
299.27
299.27
299.264
299.244
299.203
299.131
299.018
298.854
298.632
298.348
298.003
297.605
297.167
296.706
296.235
296.237
296.711
297.175
297.616
298.017
298.365
298.654
298.882
299.053
299.176
299.257
299.308
299.334
299.343
299.339
299.326
299.307
299.284
299.26
299.235
299.212
299.195
299.184
299.185
299.2
299.233
299.287
299.364
299.462
299.579
299.703
299.822
299.921
299.984
300
299.968
299.895
299.793
299.679
299.57
299.476
299.404
299.355
299.327
299.315
299.312
299.312
299.307
299.29
299.252
299.184
299.075
298.915
298.695
298.409
298.06
297.653
297.204
296.728
296.243
296.244
296.73
297.207
297.657
298.066
298.418
298.707
298.933
299.1
299.217
299.294
299.34
299.362
299.368
299.362
299.348
299.329
299.306
299.281
299.258
299.236
299.22
299.211
299.212
299.228
299.26
299.311
299.384
299.476
299.584
299.7
299.81
299.901
299.959
299.977
299.95
299.885
299.794
299.692
299.592
299.506
299.439
299.393
299.366
299.354
299.352
299.352
299.349
299.334
299.298
299.234
299.129
298.972
298.754
298.469
298.115
297.701
297.24
296.751
296.25
296.25
296.75
297.238
297.699
298.114
298.469
298.758
298.981
299.144
299.256
299.328
299.369
299.389
299.392
299.384
299.369
299.349
299.326
299.302
299.28
299.26
299.245
299.237
299.24
299.255
299.286
299.336
299.404
299.491
299.591
299.697
299.798
299.883
299.937
299.955
299.933
299.877
299.796
299.704
299.614
299.535
299.473
299.43
299.404
299.392
299.39
299.39
299.388
299.374
299.342
299.281
299.18
299.027
298.812
298.526
298.169
297.747
297.275
296.773
296.258
296.257
296.769
297.269
297.739
298.161
298.519
298.808
299.027
299.186
299.293
299.36
299.397
299.413
299.414
299.404
299.388
299.368
299.346
299.323
299.301
299.283
299.27
299.263
299.267
299.282
299.313
299.36
299.424
299.505
299.598
299.695
299.789
299.866
299.917
299.935
299.918
299.869
299.798
299.716
299.635
299.562
299.505
299.465
299.44
299.429
299.426
299.426
299.424
299.412
299.382
299.325
299.228
299.079
298.867
298.582
298.222
297.793
297.31
296.794
296.265
296.263
296.788
297.3
297.779
298.207
298.567
298.855
299.072
299.225
299.327
299.39
299.423
299.436
299.435
299.424
299.407
299.387
299.365
299.343
299.323
299.306
299.294
299.289
299.293
299.309
299.339
299.384
299.444
299.519
299.605
299.695
299.78
299.851
299.899
299.917
299.903
299.862
299.8
299.727
299.654
299.589
299.536
299.498
299.475
299.464
299.461
299.461
299.459
299.448
299.42
299.366
299.273
299.128
298.919
298.635
298.272
297.837
297.344
296.816
296.272
296.269
296.807
297.329
297.818
298.251
298.614
298.9
299.113
299.263
299.36
299.418
299.448
299.458
299.454
299.443
299.425
299.405
299.384
299.363
299.345
299.329
299.319
299.315
299.32
299.336
299.365
299.408
299.465
299.534
299.613
299.695
299.773
299.838
299.883
299.9
299.89
299.855
299.801
299.738
299.673
299.614
299.565
299.53
299.508
299.497
299.493
299.493
299.492
299.482
299.456
299.405
299.315
299.175
298.969
298.686
298.321
297.88
297.378
296.837
296.279
296.276
296.825
297.358
297.855
298.293
298.658
298.943
299.153
299.298
299.39
299.444
299.471
299.478
299.474
299.461
299.444
299.424
299.404
299.384
299.367
299.353
299.344
299.341
299.347
299.363
299.391
299.432
299.485
299.549
299.621
299.696
299.767
299.827
299.868
299.885
299.878
299.849
299.803
299.747
299.69
299.637
299.593
299.561
299.54
299.529
299.525
299.524
299.523
299.513
299.489
299.44
299.355
299.218
299.015
298.734
298.368
297.922
297.41
296.857
296.286
296.281
296.842
297.386
297.891
298.334
298.7
298.984
299.19
299.331
299.419
299.469
299.493
299.498
299.492
299.479
299.462
299.443
299.424
299.405
299.389
299.377
299.369
299.368
299.375
299.391
299.418
299.456
299.505
299.564
299.63
299.699
299.763
299.817
299.855
299.872
299.867
299.843
299.804
299.756
299.706
299.659
299.619
299.589
299.57
299.559
299.555
299.554
299.552
299.543
299.52
299.474
299.392
299.259
299.06
298.78
298.413
297.962
297.441
296.877
296.293
296.287
296.858
297.412
297.925
298.372
298.74
299.022
299.225
299.361
299.446
299.492
299.513
299.517
299.511
299.498
299.481
299.463
299.444
299.427
299.413
299.402
299.395
299.395
299.403
299.419
299.444
299.48
299.526
299.58
299.64
299.702
299.759
299.808
299.843
299.859
299.857
299.838
299.805
299.764
299.72
299.679
299.643
299.616
299.598
299.587
299.583
299.582
299.579
299.571
299.549
299.505
299.426
299.297
299.101
298.823
298.456
298
297.471
296.896
296.3
296.292
296.874
297.437
297.956
298.408
298.776
299.057
299.257
299.389
299.47
299.514
299.533
299.536
299.529
299.516
299.5
299.483
299.466
299.45
299.437
299.427
299.422
299.423
299.431
299.447
299.471
299.504
299.547
299.596
299.65
299.705
299.757
299.801
299.832
299.848
299.848
299.833
299.805
299.77
299.733
299.697
299.666
299.641
299.624
299.614
299.61
299.608
299.605
299.596
299.576
299.534
299.457
299.332
299.139
298.864
298.496
298.036
297.5
296.914
296.306
296.297
296.888
297.459
297.985
298.441
298.81
299.089
299.286
299.415
299.493
299.535
299.553
299.555
299.547
299.535
299.52
299.504
299.488
299.474
299.462
299.454
299.45
299.452
299.46
299.475
299.498
299.529
299.567
299.612
299.66
299.71
299.756
299.795
299.823
299.838
299.84
299.828
299.805
299.776
299.744
299.713
299.686
299.664
299.649
299.639
299.634
299.632
299.629
299.62
299.6
299.56
299.486
299.364
299.175
298.902
298.533
298.07
297.527
296.931
296.312
296.302
296.901
297.48
298.011
298.47
298.84
299.118
299.312
299.439
299.515
299.555
299.571
299.573
299.566
299.554
299.54
299.525
299.511
299.498
299.488
299.481
299.478
299.481
299.489
299.503
299.525
299.553
299.588
299.628
299.671
299.715
299.755
299.79
299.815
299.83
299.832
299.823
299.805
299.781
299.754
299.728
299.704
299.685
299.671
299.663
299.658
299.655
299.651
299.643
299.623
299.584
299.513
299.393
299.207
298.936
298.568
298.101
297.552
296.947
296.317
296.305
296.912
297.497
298.034
298.495
298.866
299.143
299.336
299.46
299.534
299.573
299.589
299.591
299.584
299.574
299.561
299.548
299.535
299.524
299.515
299.509
299.507
299.51
299.518
299.532
299.552
299.577
299.608
299.644
299.682
299.72
299.756
299.786
299.809
299.822
299.825
299.819
299.805
299.785
299.763
299.741
299.721
299.704
299.692
299.684
299.679
299.676
299.672
299.663
299.644
299.606
299.536
299.419
299.236
298.967
298.599
298.13
297.575
296.962
296.322
296.309
296.921
297.512
298.052
298.516
298.887
299.164
299.356
299.479
299.552
299.59
299.606
299.608
299.603
299.593
299.582
299.57
299.559
299.549
299.542
299.538
299.536
299.539
299.547
299.56
299.578
299.601
299.629
299.66
299.693
299.726
299.757
299.783
299.803
299.815
299.819
299.815
299.804
299.788
299.77
299.752
299.735
299.721
299.711
299.703
299.698
299.695
299.691
299.682
299.663
299.625
299.557
299.443
299.262
298.995
298.627
298.156
297.596
296.975
296.327
296.311
296.928
297.523
298.066
298.532
298.904
299.181
299.372
299.495
299.567
299.605
299.622
299.625
299.621
299.613
299.603
299.593
299.583
299.575
299.569
299.566
299.565
299.569
299.576
299.588
299.604
299.624
299.648
299.675
299.704
299.732
299.759
299.781
299.799
299.809
299.813
299.811
299.803
299.791
299.777
299.762
299.748
299.736
299.727
299.72
299.716
299.712
299.708
299.699
299.68
299.643
299.576
299.463
299.284
299.018
298.651
298.178
297.614
296.987
296.331
296.313
296.933
297.53
298.076
298.543
298.916
299.193
299.384
299.508
299.581
299.62
299.637
299.642
299.639
299.632
299.624
299.616
299.608
299.601
299.596
299.594
299.594
299.597
299.604
299.614
299.629
299.646
299.667
299.69
299.714
299.738
299.761
299.78
299.795
299.805
299.809
299.807
299.802
299.793
299.782
299.77
299.759
299.749
299.742
299.736
299.732
299.728
299.723
299.714
299.695
299.658
299.592
299.48
299.302
299.038
298.671
298.196
297.629
296.996
296.334
296.314
296.935
297.534
298.08
298.548
298.922
299.2
299.393
299.517
299.592
299.632
299.651
299.658
299.656
299.651
299.645
299.638
299.631
299.626
299.622
299.62
299.621
299.624
299.631
299.64
299.652
299.667
299.685
299.704
299.725
299.745
299.763
299.78
299.792
299.801
299.805
299.804
299.801
299.794
299.786
299.777
299.768
299.761
299.755
299.75
299.746
299.743
299.738
299.728
299.708
299.671
299.605
299.493
299.316
299.053
298.686
298.211
297.64
297.004
296.337
296.313
296.935
297.533
298.079
298.547
298.922
299.201
299.396
299.523
299.6
299.643
299.664
299.672
299.673
299.67
299.664
299.659
299.654
299.65
299.647
299.646
299.647
299.65
299.656
299.664
299.674
299.687
299.702
299.718
299.735
299.751
299.766
299.78
299.79
299.798
299.802
299.802
299.8
299.795
299.789
299.783
299.777
299.771
299.766
299.762
299.759
299.756
299.75
299.74
299.719
299.681
299.615
299.503
299.326
299.063
298.696
298.22
297.649
297.01
296.339
296.312
296.932
297.528
298.072
298.54
298.914
299.196
299.394
299.524
299.605
299.652
299.676
299.686
299.689
299.687
299.683
299.679
299.675
299.672
299.67
299.669
299.671
299.674
299.679
299.686
299.695
299.705
299.718
299.731
299.744
299.758
299.77
299.781
299.79
299.796
299.8
299.801
299.8
299.797
299.793
299.789
299.784
299.78
299.777
299.774
299.771
299.768
299.762
299.75
299.729
299.689
299.621
299.508
299.33
299.067
298.7
298.225
297.653
297.013
296.34
296.311
296.926
297.518
298.059
298.525
298.9
299.183
299.385
299.521
299.606
299.657
299.685
299.699
299.704
299.703
299.701
299.698
299.694
299.692
299.69
299.69
299.692
299.695
299.699
299.705
299.713
299.722
299.732
299.742
299.753
299.764
299.774
299.783
299.79
299.796
299.799
299.801
299.801
299.8
299.798
299.795
299.792
299.79
299.788
299.786
299.783
299.779
299.772
299.759
299.735
299.694
299.623
299.508
299.329
299.065
298.699
298.224
297.653
297.013
296.34
296.308
296.918
297.504
298.04
298.503
298.877
299.163
299.37
299.511
299.603
299.66
299.692
299.71
299.717
299.719
299.718
299.715
299.712
299.71
299.709
299.709
299.71
299.713
299.717
299.722
299.729
299.736
299.745
299.753
299.762
299.771
299.779
299.786
299.793
299.798
299.801
299.803
299.804
299.804
299.804
299.803
299.802
299.8
299.799
299.797
299.795
299.79
299.781
299.766
299.739
299.694
299.62
299.502
299.32
299.055
298.69
298.218
297.649
297.011
296.34
296.304
296.907
297.485
298.015
298.473
298.846
299.134
299.346
299.494
299.594
299.658
299.697
299.719
299.73
299.734
299.734
299.732
299.729
299.727
299.725
299.725
299.726
299.728
299.731
299.736
299.742
299.748
299.756
299.763
299.771
299.778
299.785
299.792
299.797
299.802
299.806
299.809
299.811
299.812
299.813
299.813
299.813
299.813
299.812
299.81
299.806
299.799
299.788
299.77
299.74
299.69
299.612
299.489
299.305
299.039
298.674
298.205
297.641
297.007
296.339
296.3
296.893
297.463
297.984
298.436
298.807
299.096
299.313
299.469
299.578
299.65
299.697
299.725
299.741
299.748
299.75
299.748
299.745
299.742
299.74
299.738
299.738
299.739
299.742
299.746
299.751
299.757
299.764
299.771
299.778
299.786
299.793
299.799
299.805
299.811
299.815
299.819
299.822
299.824
299.826
299.827
299.828
299.828
299.826
299.823
299.817
299.808
299.793
299.771
299.735
299.681
299.596
299.469
299.281
299.014
298.652
298.188
297.629
297.001
296.337
296.295
296.878
297.437
297.948
298.391
298.758
299.049
299.271
299.436
299.554
299.637
299.693
299.729
299.751
299.762
299.766
299.766
299.762
299.758
299.754
299.751
299.748
299.748
299.749
299.752
299.756
299.762
299.769
299.776
299.784
299.793
299.801
299.809
299.816
299.823
299.829
299.834
299.839
299.842
299.845
299.847
299.847
299.845
299.842
299.836
299.827
299.814
299.794
299.766
299.725
299.664
299.574
299.441
299.25
298.982
298.623
298.166
297.615
296.994
296.335
296.29
296.863
297.409
297.907
298.34
298.702
298.993
299.22
299.394
299.523
299.618
299.685
299.731
299.76
299.777
299.784
299.785
299.782
299.776
299.77
299.763
299.758
299.754
299.753
299.753
299.756
299.761
299.768
299.777
299.787
299.798
299.809
299.82
299.83
299.84
299.849
299.856
299.862
299.867
299.87
299.871
299.869
299.866
299.859
299.849
299.835
299.816
299.79
299.756
299.708
299.64
299.544
299.406
299.212
298.945
298.592
298.142
297.602
296.989
296.334
296.287
296.849
297.381
297.864
298.286
298.641
298.931
299.163
299.345
299.486
299.593
299.673
299.73
299.768
299.792
299.805
299.808
299.805
299.798
299.789
299.779
299.769
299.761
299.754
299.751
299.751
299.754
299.761
299.771
299.784
299.798
299.814
299.83
299.846
299.861
299.874
299.885
299.893
299.898
299.901
299.9
299.896
299.888
299.876
299.859
299.839
299.813
299.78
299.738
299.684
299.61
299.508
299.367
299.172
298.908
298.561
298.124
297.596
296.991
296.337
296.287
296.841
297.358
297.825
298.233
298.58
298.868
299.103
299.293
299.445
299.566
299.659
299.729
299.778
299.811
299.829
299.836
299.834
299.826
299.814
299.799
299.784
299.769
299.756
299.747
299.741
299.741
299.746
299.756
299.772
299.792
299.815
299.839
299.863
299.885
299.904
299.92
299.931
299.937
299.938
299.934
299.925
299.91
299.891
299.866
299.837
299.803
299.763
299.715
299.655
299.577
299.473
299.331
299.138
298.88
298.543
298.119
297.606
297.01
296.35
296.303
296.851
297.351
297.8
298.194
298.531
298.815
299.052
299.248
299.41
299.543
299.65
299.733
299.794
299.835
299.86
299.871
299.871
299.862
299.847
299.826
299.804
299.781
299.759
299.741
299.727
299.72
299.721
299.731
299.75
299.776
299.809
299.845
299.88
299.913
299.941
299.962
299.976
299.982
299.981
299.972
299.956
299.933
299.904
299.87
299.831
299.789
299.742
299.689
299.626
299.548
299.447
299.31
299.125
298.877
298.554
298.147
297.651
297.067
296.393
)
;

boundaryField
{
    bottomwall
    {
        type            ConvRadQin;
        hinf            60{50};
        Tinf            60{305};
        Kappa           60{2.2989};
        qr              qr;
        qin             qin;
        qem             qem;
        UnitVector      (1 1 1);
        value           nonuniform List<scalar> 
60
(
298.638
299.896
300.605
301.042
301.33
301.529
301.674
301.785
301.873
301.948
302.014
302.075
302.134
302.19
302.245
302.3
302.355
302.411
302.468
302.526
302.585
302.646
302.709
302.772
302.838
302.906
302.979
303.059
303.146
303.239
303.332
303.418
303.491
303.55
303.608
303.69
303.834
304.077
304.448
304.951
305.563
306.235
306.904
307.504
307.98
308.294
308.426