/*--------------------------------*- C++ -*----------------------------------*\
| =========                 |                                                 |
| \\      /  F ield         | OpenFOAM: The Open Source CFD Toolbox           |
|  \\    /   O peration     | Version:  2406                                  |
|   \\  /    A nd           | Website:  www.openfoam.com                      |
|    \\/     M anipulation  |                                                 |
\*---------------------------------------------------------------------------*/
FoamFile
{
    version     2.0;
    format      ascii;
    arch        "LSB;label=32;scalar=64";
    class       volScalarField;
    location    "10000";
    object      TotalNu;
}
// * * * * * * * * * * * * * * * * * * * * * * * * * * * * * * * * * * * * * //

dimensions      [0 0 0 0 0 0 0];

internalField   uniform 0;

boundaryField
{
    bottomwall
    {
        type            calculated;
        value           nonuniform List<scalar> 
60
(
15.435
12.3827
10.6623
9.60212
8.90451
8.42087
8.06919
7.80094
7.58596
7.40462
7.24393
7.09561
6.95472
6.81832
6.68444
6.55138
6.41768
6.28217
6.14402
6.00275
5.85817
5.71032
5.55929
5.40489
5.24601
5.08001
4.90263
4.70935
4.49819
4.27332
4.0471
3.83779
3.66113
3.51717
3.37717
3.17796
2.82975
2.23891
1.339
0.118399
-1.36631
-2.99725
-4.61968
-6.07503
-7.22958
-7.99139
-8.31191
-8.1778
-7.59927
-6.60207
-5.22528
-3.52377
-1.5705
0.546375
2.73523
4.9233
7.09061
9.31685
11.8794
15.4813
)
;
    }
    topwall
    {
        type            calculated;
        value           nonuniform List<scalar> 
60
(
-2.9752e-07
-6.30427e-07
-9.26896e-07
-1.49407e-06
-2.03855e-06
-2.62058e-06
-2.84714e-06
-3.70818e-06
-4.11833e-06
-5.07766e-06
-5.6326e-06
-6.51757e-06
-7.07147e-06
-7.38354e-06
-7.9427e-06
-8.71776e-06
-8.81024e-06
-9.18911e-06
-9.65511e-06
-9.79495e-06
-9.71216e-06
-9.47446e-06
-9.37961e-06
-9.60196e-06
-9.79654e-06
-9.79612e-06
-9.53079e-06
-1.01114e-05
-1.00476e-05
-1.04709e-05
-1.03143e-05
-1.08305e-05
-1.07662e-05
-1.08623e-05
-1.06447e-05
-1.06156e-05
-1.03679e-05
-1.00762e-05
-9.30035e-06
-9.24748e-06
-8.43389e-06
-8.08576e-06
-7.77924e-06
-7.40152e-06
-6.77233e-06
-6.39162e-06
-5.93347e-06
-5.57958e-06
-5.63678e-06
-5.0085e-06
-4.89001e-06
-4.72669e-06
-4.5848e-06
-4.20726e-06
-4.29426e-06
-3.89712e-06
-1.87271e-06
-1.79523e-06
-1.74481e-06
-1.20163e-08
)
;
    }
    coldwall
    {
        type            calculated;
        value           nonuniform List<scalar> 
48
(
-20.8163
-11.273
-7.30336
-5.24439
-4.05916
-3.39361
-3.04393
-2.8237
-2.60198
-2.35996
-2.16454
-2.08122
-2.11477
-2.21862
-2.33991
-2.45101
-2.55164
-2.65559
-2.77801
-2.92812
-3.10553
-3.29882
-3.48756
-3.64812
-3.7614
-3.81936
-3.8274
-3.80216
-3.76585
-3.73974
-3.73894
-3.7702
-3.83237
-3.91917
-4.02244
-4.13497
-4.25188
-4.37072
-4.4906
-4.61106
-4.73108
-4.84871
-4.92433
-4.77285
-4.62217
-4.48193
-4.38462
-4.44261
)
;
    }
    radinlet
    {
        type            calculated;
        value           nonuniform List<scalar> 
12
(
21.8769
21.7743
21.6863
21.6181
21.5724
21.5484
21.541
21.5451
21.5616
21.5991
21.669
21.7762
)
;
    }
    hotwall
    {
        type            calculated;
        value           nonuniform List<scalar> 
60
(
-20.6494
-11.4869
-8.04817
-6.09461
-5.01485
-4.36949
-3.94694
-3.59863
-3.28484
-3.02205
-2.84186
-2.76071
-2.76801
-2.8319
-2.91597
-2.99442
-3.05724
-3.10639
-3.14909
-3.19274
-3.24277
-3.30213
-3.37151
-3.44979
-3.53446
-3.62228
-3.7099
-3.79462
-3.8751
-3.95188
-4.02711
-4.1038
-4.18443
-4.26995
-4.35929
-4.44978
-4.5382
-4.62185
-4.69935
-4.77077
-4.83734
-4.90081
-4.96268
-5.02336
-5.08159
-5.13483
-5.18109
-5.22144
-5.26069
-5.3038
-5.3496
-5.38769
-5.40383
-5.39068
-5.35342
-5.30481
-5.25941
-5.24298
-5.33626
-5.78392
)
;
    }
    frontAndback
    {
        type            empty;
    }
}


// ************************************************************************* //
