/*--------------------------------*- C++ -*----------------------------------*\
| =========                 |                                                 |
| \\      /  F ield         | OpenFOAM: The Open Source CFD Toolbox           |
|  \\    /   O peration     | Version:  2406                                  |
|   \\  /    A nd           | Website:  www.openfoam.com                      |
|    \\/     M anipulation  |                                                 |
\*---------------------------------------------------------------------------*/
FoamFile
{
    version     2.0;
    format      ascii;
    arch        "LSB;label=32;scalar=64";
    class       volScalarField;
    location    "10000";
    object      totalWallHeatFlux;
}
// * * * * * * * * * * * * * * * * * * * * * * * * * * * * * * * * * * * * * //

dimensions      [1 0 -3 0 0 0 0];

internalField   uniform 0;

boundaryField
{
    bottomwall
    {
        type            calculated;
        value           nonuniform List<scalar> 
60
(
318.087
255.184
219.731
197.882
183.506
173.539
166.291
160.763
156.333
152.596
149.284
146.228
143.324
140.513
137.754
135.012
132.257
129.464
126.617
123.706
120.726
117.679
114.567
111.385
108.111
104.69
101.034
97.0512
92.6996
88.0654
83.4034
79.0898
75.4492
72.4825
69.5974
65.492
58.316
46.1398
27.5944
2.43998
-28.1573
-61.768
-95.2033
-125.195
-148.989
-164.688
-171.294
-168.53
-156.607
-136.057
-107.684
-72.6185
-32.3652
11.2598
56.3683
101.46
146.125
192.004
244.812
319.042
)
;
    }
    topwall
    {
        type            calculated;
        value           nonuniform List<scalar> 
60
(
-6.13136e-06
-1.2992e-05
-1.91017e-05
-3.07901e-05
-4.20108e-05
-5.40054e-05
-5.86744e-05
-7.6419e-05
-8.48713e-05
-0.000104641
-0.000116078
-0.000134315
-0.00014573
-0.000152161
-0.000163685
-0.000179657
-0.000181563
-0.000189371
-0.000198975
-0.000201856
-0.00020015
-0.000195252
-0.000193297
-0.000197879
-0.000201889
-0.00020188
-0.000196412
-0.000208379
-0.000207064
-0.000215786
-0.000212559
-0.000223197
-0.000221871
-0.000223853
-0.000219368
-0.000218768
-0.000213664
-0.000207653
-0.000191664
-0.000190574
-0.000173807
-0.000166633
-0.000160316
-0.000152532
-0.000139566
-0.00013172
-0.000122278
-0.000114985
-0.000116164
-0.000103216
-0.000100774
-9.74086e-05
-9.44844e-05
-8.67041e-05
-8.84969e-05
-8.03126e-05
-3.85932e-05
-3.69964e-05
-3.59574e-05
-2.47634e-07
)
;
    }
    coldwall
    {
        type            calculated;
        value           nonuniform List<scalar> 
48
(
-428.986
-232.317
-150.509
-108.078
-83.6519
-69.9363
-62.7299
-58.1914
-53.6221
-48.6345
-44.6072
-42.8903
-43.5816
-45.7217
-48.2214
-50.511
-52.5847
-54.727
-57.2497
-60.3433
-63.9993
-67.9827
-71.8724
-75.1811
-77.5156
-78.7101
-78.8759
-78.3557
-77.6075
-77.0692
-77.0528
-77.6969
-78.9783
-80.767
-82.8953
-85.2143
-87.6236
-90.0727
-92.5433
-95.0256
-97.499
-99.9232
-101.482
-98.3598
-95.2545
-92.3646
-90.3592
-91.5542
)
;
    }
    radinlet
    {
        type            calculated;
        value           nonuniform List<scalar> 
12
(
450.844
448.729
446.916
445.509
444.569
444.074
443.92
444.005
444.346
445.119
446.559
448.768
)
;
    }
    hotwall
    {
        type            calculated;
        value           nonuniform List<scalar> 
60
(
-425.546
-236.723
-165.858
-125.599
-103.347
-90.0473
-81.3392
-74.1613
-67.6945
-62.2789
-58.5657
-56.8933
-57.0437
-58.3603
-60.093
-61.7097
-63.0042
-64.0172
-64.897
-65.7965
-66.8276
-68.0509
-69.4808
-71.0939
-72.8389
-74.6487
-76.4544
-78.2002
-79.8589
-81.4411
-82.9916
-84.5719
-86.2336
-87.996
-89.8371
-91.7021
-93.5241
-95.248
-96.8451
-98.3169
-99.6888
-100.997
-102.272
-103.522
-104.722
-105.82
-106.773
-107.604
-108.413
-109.302
-110.246
-111.031
-111.363
-111.092
-110.324
-109.323
-108.387
-108.048
-109.971
-119.196
)
;
    }
    frontAndback
    {
        type            empty;
    }
}


// ************************************************************************* //
