/*--------------------------------*- C++ -*----------------------------------*\
| =========                 |                                                 |
| \\      /  F ield         | OpenFOAM: The Open Source CFD Toolbox           |
|  \\    /   O peration     | Version:  2406                                  |
|   \\  /    A nd           | Website:  www.openfoam.com                      |
|    \\/     M anipulation  |                                                 |
\*---------------------------------------------------------------------------*/
FoamFile
{
    version     2.0;
    format      ascii;
    arch        "LSB;label=32;scalar=64";
    class       volVectorField;
    location    "10000";
    object      U;
}
// * * * * * * * * * * * * * * * * * * * * * * * * * * * * * * * * * * * * * //

dimensions      [0 1 -1 0 0 0 0];

internalField   nonuniform List<vector> 
3600
(
(0.000728618 -0.000716047 0)
(0.00250955 -0.000676896 0)
(0.00436988 -0.000449923 0)
(0.0059142 -0.00032134 0)
(0.00736287 -0.000284991 0)
(0.00881195 -0.000296198 0)
(0.0103072 -0.000321472 0)
(0.011846 -0.000341293 0)
(0.0133956 -0.000346356 0)
(0.0149078 -0.000333612 0)
(0.0163304 -0.000303667 0)
(0.017614 -0.000259201 0)
(0.0187168 -0.000203952 0)
(0.0196075 -0.000142004 0)
(0.0202655 -7.72875e-05 0)
(0.0206817 -1.32547e-05 0)
(0.0208567 4.72781e-05 0)
(0.0207995 0.000102122 0)
(0.0205262 0.000149746 0)
(0.0200579 0.000189284 0)
(0.0194192 0.000220259 0)
(0.0186367 0.000242484 0)
(0.0177387 0.00025601 0)
(0.016753 0.000261167 0)
(0.0157063 0.000258746 0)
(0.0146219 0.000250332 0)
(0.0135164 0.000238667 0)
(0.0123967 0.000227791 0)
(0.0112554 0.000222641 0)
(0.01007 0.000227897 0)
(0.00880465 0.000246252 0)
(0.00741737 0.000276862 0)
(0.0058717 0.000315163 0)
(0.00414741 0.000354869 0)
(0.00224485 0.000391715 0)
(0.000179628 0.000425906 0)
(-0.00202803 0.000462697 0)
(-0.00435993 0.000508626 0)
(-0.00679649 0.000565361 0)
(-0.00930612 0.000626837 0)
(-0.0118345 0.000680759 0)
(-0.0143017 0.00071285 0)
(-0.016609 0.000711606 0)
(-0.0186528 0.000671501 0)
(-0.0203394 0.000593791 0)
(-0.021597 0.000485192 0)
(-0.022382 0.000355313 0)
(-0.022679 0.000214107 0)
(-0.022497 7.09297e-05 0)
(-0.0218661 -6.68031e-05 0)
(-0.0208305 -0.000193809 0)
(-0.0194434 -0.000306363 0)
(-0.0177626 -0.000402299 0)
(-0.0158451 -0.000482057 0)
(-0.0137388 -0.00055121 0)
(-0.0114707 -0.000624268 0)
(-0.00903507 -0.000726926 0)
(-0.00640317 -0.000888747 0)
(-0.0034423 -0.00108069 0)
(-0.000922195 -0.000937196 0)
(0.000720573 -0.00254457 0)
(0.00333941 -0.0033171 0)
(0.00714427 -0.00310347 0)
(0.0110165 -0.00287716 0)
(0.0149567 -0.00280229 0)
(0.0189549 -0.00283438 0)
(0.0230112 -0.00289667 0)
(0.0270933 -0.00292761 0)
(0.0311347 -0.0028893 0)
(0.0350466 -0.0027642 0)
(0.0387315 -0.00255005 0)
(0.0420941 -0.0022551 0)
(0.0450495 -0.00189424 0)
(0.0475291 -0.0014858 0)
(0.0494831 -0.00104911 0)
(0.0508813 -0.000602676 0)
(0.0517128 -0.000163036 0)
(0.0519839 0.000255776 0)
(0.0517158 0.000642722 0)
(0.0509427 0.00098969 0)
(0.049708 0.00129109 0)
(0.0480618 0.00154347 0)
(0.0460585 0.00174554 0)
(0.0437539 0.00189841 0)
(0.0412018 0.00200641 0)
(0.0384496 0.00207838 0)
(0.0355326 0.00212904 0)
(0.032467 0.00217952 0)
(0.0292433 0.00225572 0)
(0.0258217 0.00238349 0)
(0.0221345 0.00258079 0)
(0.018097 0.00284959 0)
(0.0136288 0.00317226 0)
(0.00867797 0.00351639 0)
(0.00323979 0.00384814 0)
(-0.00263783 0.00414369 0)
(-0.00885856 0.00439321 0)
(-0.0152909 0.0045907 0)
(-0.0217726 0.00471991 0)
(-0.0281123 0.00474939 0)
(-0.034097 0.00464054 0)
(-0.0395082 0.00436203 0)
(-0.0441439 0.00390225 0)
(-0.0478403 0.003274 0)
(-0.0504847 0.00251126 0)
(-0.0520211 0.00166069 0)
(-0.0524465 0.000771802 0)
(-0.051802 -0.000109678 0)
(-0.0501672 -0.000945713 0)
(-0.0476466 -0.00170751 0)
(-0.0443611 -0.00237621 0)
(-0.0404403 -0.00294173 0)
(-0.0360133 -0.00340317 0)
(-0.0312007 -0.00377114 0)
(-0.0261054 -0.00407123 0)
(-0.0208068 -0.00434484 0)
(-0.0153749 -0.00463482 0)
(-0.00992727 -0.00492354 0)
(-0.00459968 -0.00492555 0)
(-0.000982085 -0.00342736 0)
(0.000411168 -0.00439282 0)
(0.00281763 -0.00707465 0)
(0.00719816 -0.00771599 0)
(0.012285 -0.00784806 0)
(0.017836 -0.00794874 0)
(0.0236549 -0.00808738 0)
(0.0296243 -0.00820145 0)
(0.0356387 -0.00821 0)
(0.0415841 -0.00805223 0)
(0.0473383 -0.00769628 0)
(0.0527769 -0.00713674 0)
(0.0577814 -0.00638879 0)
(0.0622462 -0.00548174 0)
(0.066083 -0.00445319 0)
(0.0692238 -0.00334419 0)
(0.0716223 -0.00219551 0)
(0.0732531 -0.00104499 0)
(0.0741111 7.40081e-05 0)
(0.0742083 0.00113319 0)
(0.073573 0.00211038 0)
(0.0722465 0.00298939 0)
(0.0702796 0.00375933 0)
(0.0677302 0.00441476 0)
(0.0646596 0.00495645 0)
(0.0611286 0.00539309 0)
(0.057192 0.00574388 0)
(0.0528923 0.00604135 0)
(0.048251 0.00633272 0)
(0.0432599 0.00667694 0)
(0.0378746 0.0071351 0)
(0.0320146 0.00775341 0)
(0.0255764 0.00854337 0)
(0.0184599 0.00946842 0)
(0.010607 0.0104475 0)
(0.0020357 0.0113785 0)
(-0.00713922 0.0121637 0)
(-0.0167043 0.0127284 0)
(-0.0263724 0.0130144 0)
(-0.0358067 0.0129658 0)
(-0.0446526 0.0125283 0)
(-0.0525733 0.0116653 0)
(-0.0592835 0.0103754 0)
(-0.0645754 0.00870171 0)
(-0.0683288 0.00672655 0)
(-0.0705072 0.00455601 0)
(-0.0711441 0.00230213 0)
(-0.0703249 6.84504e-05 0)
(-0.0681739 -0.0020566 0)
(-0.0648408 -0.00400389 0)
(-0.0604876 -0.00572653 0)
(-0.0552849 -0.00719612 0)
(-0.0494057 -0.00840134 0)
(-0.0430203 -0.00934842 0)
(-0.036292 -0.0100624 0)
(-0.029376 -0.0105851 0)
(-0.0224254 -0.0109612 0)
(-0.0156237 -0.0111896 0)
(-0.00926362 -0.0110882 0)
(-0.00370222 -0.00997651 0)
(-0.000574232 -0.00595919 0)
(0.000173452 -0.00564567 0)
(0.00213259 -0.0104883 0)
(0.00637164 -0.0125835 0)
(0.0118365 -0.0136092 0)
(0.0181813 -0.0142502 0)
(0.0250722 -0.014703 0)
(0.0322735 -0.0149636 0)
(0.0395926 -0.0149719 0)
(0.0468571 -0.0146727 0)
(0.0539078 -0.0140377 0)
(0.0605975 -0.0130684 0)
(0.0667935 -0.0117916 0)
(0.0723807 -0.0102531 0)
(0.0772631 -0.00850931 0)
(0.0813654 -0.00662215 0)
(0.0846326 -0.00465323 0)
(0.0870297 -0.0026606 0)
(0.0885397 -0.000696218 0)
(0.0891624 0.00119479 0)
(0.0889112 0.00297535 0)
(0.0878135 0.00461703 0)
(0.0859063 0.00609962 0)
(0.0832346 0.00741146 0)
(0.079848 0.00855081 0)
(0.0757971 0.0095285 0)
(0.0711289 0.0103719 0)
(0.0658804 0.0111295 0)
(0.0600698 0.0118735 0)
(0.053688 0.0126963 0)
(0.04669 0.0136967 0)
(0.0389952 0.0149524 0)
(0.0304999 0.0164848 0)
(0.0211108 0.0182308 0)
(0.0107942 0.0200382 0)
(-0.000375967 0.0216991 0)
(-0.0121812 0.0229928 0)
(-0.0242614 0.0237389 0)
(-0.0361623 0.0238083 0)
(-0.0473902 0.0231176 0)
(-0.0574776 0.0216339 0)
(-0.0660399 0.0193866 0)
(-0.0728141 0.0164729 0)
(-0.077669 0.0130455 0)
(-0.0805922 0.00928873 0)
(-0.0816618 0.00539061 0)
(-0.0810145 0.0015209 0)
(-0.0788182 -0.00217905 0)
(-0.0752614 -0.00559877 0)
(-0.0705302 -0.00866082 0)
(-0.0648126 -0.0113142 0)
(-0.0582973 -0.0135288 0)
(-0.051174 -0.0152942 0)
(-0.0436355 -0.0166188 0)
(-0.0358786 -0.0175287 0)
(-0.0281101 -0.0180591 0)
(-0.0205591 -0.0182251 0)
(-0.0135074 -0.0179493 0)
(-0.00735181 -0.0168937 0)
(-0.0025079 -0.0141251 0)
(-0.000223313 -0.00754877 0)
(4.87005e-05 -0.00652749 0)
(0.00163813 -0.0134942 0)
(0.00552955 -0.0173494 0)
(0.0109502 -0.0196568 0)
(0.0175558 -0.0211675 0)
(0.0249515 -0.0221637 0)
(0.0328219 -0.0227068 0)
(0.040903 -0.0227791 0)
(0.0489687 -0.0223535 0)
(0.056824 -0.0214234 0)
(0.0643005 -0.0200103 0)
(0.0712551 -0.0181611 0)
(0.0775688 -0.015942 0)
(0.0831455 -0.0134305 0)
(0.0879106 -0.0107087 0)
(0.0918091 -0.00785747 0)
(0.0948031 -0.00495245 0)
(0.0968696 -0.00206162 0)
(0.0979993 0.00075614 0)
(0.0981917 0.00345118 0)
(0.097457 0.00598409 0)
(0.0958131 0.00832615 0)
(0.0932835 0.0104596 0)
(0.0898957 0.0123793 0)
(0.0856785 0.0140967 0)
(0.0806584 0.0156445 0)
(0.0748551 0.0170839 0)
(0.0682737 0.018508 0)
(0.0608975 0.0200388 0)
(0.0526804 0.0218088 0)
(0.0435472 0.0239229 0)
(0.0334092 0.0264051 0)
(0.0222021 0.0291494 0)
(0.00994515 0.0319056 0)
(-0.00320327 0.0343211 0)
(-0.0168961 0.0360114 0)
(-0.0306224 0.0366689 0)
(-0.0437821 0.0361016 0)
(-0.0557756 0.0342405 0)
(-0.0660958 0.03114 0)
(-0.0743919 0.0269674 0)
(-0.0804928 0.0219745 0)
(-0.0843903 0.0164551 0)
(-0.0861973 0.0107003 0)
(-0.0860984 0.00496479 0)
(-0.0843072 -0.00054815 0)
(-0.081044 -0.00568585 0)
(-0.0765139 -0.0103416 0)
(-0.0709083 -0.0144451 0)
(-0.0644112 -0.0179484 0)
(-0.0572063 -0.0208209 0)
(-0.049484 -0.023047 0)
(-0.0414481 -0.0246259 0)
(-0.0333212 -0.0255681 0)
(-0.0253525 -0.025883 0)
(-0.0178281 -0.0255408 0)
(-0.0110865 -0.0243922 0)
(-0.00555045 -0.022003 0)
(-0.00159265 -0.0173616 0)
(-1.66657e-05 -0.00849039 0)
(9.90869e-06 -0.00720223 0)
(0.00139427 -0.0161499 0)
(0.00499795 -0.0218583 0)
(0.0102556 -0.0256578 0)
(0.0168675 -0.0282588 0)
(0.024429 -0.0299767 0)
(0.0325855 -0.0309227 0)
(0.041027 -0.031126 0)
(0.0494881 -0.0306009 0)
(0.0577454 -0.0293763 0)
(0.0656144 -0.0275058 0)
(0.072945 -0.0250655 0)
(0.0796189 -0.0221483 0)
(0.085545 -0.0188552 0)
(0.0906556 -0.015289 0)
(0.0949025 -0.0115481 0)
(0.0982522 -0.00772303 0)
(0.100683 -0.00389357 0)
(0.102182 -0.000127908 0)
(0.102743 0.00351688 0)
(0.10236 0.0069949 0)
(0.101033 0.0102724 0)
(0.0987645 0.013328 0)
(0.0955553 0.0161547 0)
(0.0914067 0.0187643 0)
(0.0863175 0.0211934 0)
(0.0802811 0.0235119 0)
(0.073281 0.0258282 0)
(0.0652853 0.0282861 0)
(0.056243 0.0310426 0)
(0.0460865 0.034218 0)
(0.0347516 0.0378228 0)
(0.0222193 0.0416863 0)
(0.00858165 0.0454305 0)
(-0.00590131 0.0485244 0)
(-0.0207481 0.0503938 0)
(-0.0353169 0.0506079 0)
(-0.0489064 0.0489475 0)
(-0.0608763 0.0454218 0)
(-0.0707522 0.0402455 0)
(-0.0782775 0.0337831 0)
(-0.0834091 0.0264739 0)
(-0.0862685 0.0187546 0)
(-0.0870751 0.0110022 0)
(-0.086085 0.00350661 0)
(-0.0835479 -0.00352852 0)
(-0.0796905 -0.00996962 0)
(-0.0747017 -0.0157336 0)
(-0.0687512 -0.0207646 0)
(-0.0619994 -0.0250193 0)
(-0.0546118 -0.0284611 0)
(-0.0467705 -0.031059 0)
(-0.0386832 -0.0327894 0)
(-0.0305903 -0.033633 0)
(-0.0227696 -0.0335616 0)
(-0.0155405 -0.0325008 0)
(-0.00926294 -0.0302529 0)
(-0.00434086 -0.0263544 0)
(-0.00107218 -0.0198476 0)
(6.73246e-05 -0.00902853 0)
(2.36472e-05 -0.00781985 0)
(0.00135642 -0.018624 0)
(0.00482199 -0.0261751 0)
(0.00995645 -0.0315444 0)
(0.0165055 -0.0353456 0)
(0.024076 -0.0378867 0)
(0.0322996 -0.0393089 0)
(0.0408422 -0.0396848 0)
(0.049415 -0.0390745 0)
(0.0577773 -0.0375517 0)
(0.0657346 -0.0352112 0)
(0.0731355 -0.0321664 0)
(0.0798662 -0.0285423 0)
(0.0858448 -0.0244674 0)
(0.0910148 -0.0200661 0)
(0.0953395 -0.0154537 0)
(0.0987957 -0.010733 0)
(0.101369 -0.00599176 0)
(0.10305 -0.00130324 0)
(0.10383 0.0032736 0)
(0.103698 0.00769248 0)
(0.10264 0.0119199 0)
(0.10064 0.0159357 0)
(0.0976767 0.0197348 0)
(0.0937224 0.0233315 0)
(0.0887466 0.0267666 0)
(0.0827122 0.0301164 0)
(0.0755753 0.0334992 0)
(0.0672834 0.0370715 0)
(0.0577761 0.0410013 0)
(0.0469932 0.045407 0)
(0.0348991 0.0502635 0)
(0.0215295 0.0553094 0)
(0.00705849 0.0600104 0)
(-0.00814854 0.0636331 0)
(-0.0234903 0.0654095 0)
(-0.0382317 0.0648124 0)
(-0.051625 0.0616508 0)
(-0.0630523 0.0560816 0)
(-0.0721245 0.0485414 0)
(-0.0787097 0.0396279 0)
(-0.0828941 0.0299708 0)
(-0.0849056 0.020127 0)
(-0.0850315 0.0105223 0)
(-0.083555 0.00144326 0)
(-0.0807216 -0.00693818 0)
(-0.0767282 -0.0145292 0)
(-0.0717273 -0.0212786 0)
(-0.0658511 -0.0271461 0)
(-0.0592278 -0.0320874 0)
(-0.0519996 -0.0360503 0)
(-0.0443366 -0.038977 0)
(-0.0364464 -0.0408083 0)
(-0.0285795 -0.0414851 0)
(-0.0210306 -0.0409372 0)
(-0.0141347 -0.0390522 0)
(-0.00825324 -0.0356097 0)
(-0.00375905 -0.030167 0)
(-0.000884286 -0.0218921 0)
(7.13598e-05 -0.00939978 0)
(6.37526e-05 -0.00847919 0)
(0.00145414 -0.0210744 0)
(0.00492615 -0.0304216 0)
(0.0100282 -0.0373575 0)
(0.0165349 -0.042383 0)
(0.0240652 -0.0457761 0)
(0.0322488 -0.0476934 0)
(0.040742 -0.0482451 0)
(0.049245 -0.0475388 0)
(0.0575097 -0.0456979 0)
(0.0653398 -0.0428654 0)
(0.0725876 -0.039198 0)
(0.0791483 -0.0348579 0)
(0.0849519 -0.0300038 0)
(0.0899561 -0.0247833 0)
(0.0941384 -0.0193284 0)
(0.0974889 -0.0137518 0)
(0.100004 -0.00814689 0)
(0.101683 -0.00258757 0)
(0.102521 0.00286986 0)
(0.102506 0.00818456 0)
(0.10162 0.0133293 0)
(0.0998324 0.0182911 0)
(0.0971047 0.0230718 0)
(0.0933875 0.0276929 0)
(0.088622 0.0322017 0)
(0.0827418 0.0366806 0)
(0.0756741 0.0412538 0)
(0.0673429 0.0460815 0)
(0.0576756 0.0513282 0)
(0.0466178 0.0570892 0)
(0.0341633 0.063279 0)
(0.0204045 0.0695177 0)
(0.00559592 0.0750926 0)
(-0.00980037 0.0790551 0)
(-0.0250946 0.0804616 0)
(-0.0395034 0.078731 0)
(-0.0522863 0.0737625 0)
(-0.0628952 0.0659221 0)
(-0.0710543 0.0559083 0)
(-0.0767567 0.0445606 0)
(-0.0801948 0.0326783 0)
(-0.0816638 0.0208997 0)
(-0.0814756 0.00965831 0)
(-0.0799013 -0.00079744 0)
(-0.0771527 -0.0103512 0)
(-0.0733768 -0.0189615 0)
(-0.0686805 -0.0266089 0)
(-0.0631538 -0.0332634 0)
(-0.0568918 -0.0388711 0)
(-0.0500137 -0.0433534 0)
(-0.0426772 -0.0466143 0)
(-0.0350874 -0.0485496 0)
(-0.0274996 -0.0490529 0)
(-0.0202172 -0.0480116 0)
(-0.0135811 -0.045283 0)
(-0.00794723 -0.0406434 0)
(-0.00366374 -0.0336995 0)
(-0.000920613 -0.0237688 0)
(3.27222e-05 -0.00976495 0)
(0.000112684 -0.00923402 0)
(0.00162244 -0.0236128 0)
(0.00520262 -0.034708 0)
(0.0103548 -0.0431676 0)
(0.0168629 -0.0493863 0)
(0.0243497 -0.0536055 0)
(0.0324459 -0.0559899 0)
(0.0408052 -0.0566843 0)
(0.049126 -0.0558446 0)
(0.0571611 -0.053648 0)
(0.0647194 -0.0502899 0)
(0.0716624 -0.0459751 0)
(0.0778978 -0.0409064 0)
(0.0833701 -0.0352747 0)
(0.0880526 -0.0292518 0)
(0.0919377 -0.0229856 0)
(0.0950298 -0.0165979 0)
(0.0973379 -0.0101849 0)
(0.0988704 -0.00381838 0)
(0.0996302 0.00245176 0)
(0.0996099 0.00859451 0)
(0.0987897 0.0145944 0)
(0.0971352 0.0204511 0)
(0.0945964 0.0261798 0)
(0.0911075 0.031814 0)
(0.0865886 0.0374118 0)
(0.0809477 0.0430635 0)
(0.0740859 0.0488969 0)
(0.0659046 0.0550684 0)
(0.0563184 0.0617244 0)
(0.0452771 0.0689163 0)
(0.0328024 0.0764722 0)
(0.0190392 0.0838698 0)
(0.00431248 0.090202 0)
(-0.0108393 0.0943078 0)
(-0.0256755 0.0951008 0)
(-0.0394093 0.0919969 0)
(-0.0513517 0.0850423 0)
(-0.061052 0.0748556 0)
(-0.0683511 0.0624125 0)
(-0.0733472 0.0487789 0)
(-0.0763024 0.0348875 0)
(-0.0775385 0.0214155 0)
(-0.0773544 0.00876641 0)
(-0.0759832 -0.00287469 0)
(-0.0735838 -0.01346 0)
(-0.0702508 -0.0229996 0)
(-0.0660436 -0.0315004 0)
(-0.0610132 -0.0389342 0)
(-0.0552249 -0.0452277 0)
(-0.0487778 -0.0502658 0)
(-0.0418179 -0.0539052 0)
(-0.0345461 -0.0559889 0)
(-0.027219 -0.0563591 0)
(-0.0201437 -0.0548604 0)
(-0.013663 -0.0513258 0)
(-0.00812882 -0.045539 0)
(-0.00387735 -0.0371668 0)
(-0.00108098 -0.0256715 0)
(-2.24552e-05 -0.0102157 0)
(0.000160215 -0.0101042 0)
(0.0018134 -0.0263004 0)
(0.00555569 -0.0391072 0)
(0.0108099 -0.0490314 0)
(0.0173525 -0.0563807 0)
(0.0248005 -0.0613637 0)
(0.0327834 -0.0641529 0)
(0.0409563 -0.0649283 0)
(0.0490214 -0.0638968 0)
(0.0567394 -0.0612926 0)
(0.0639303 -0.0573673 0)
(0.0704701 -0.0523764 0)
(0.0762818 -0.0465653 0)
(0.0813267 -0.040158 0)
(0.0855934 -0.0333501 0)
(0.0890893 -0.0263045 0)
(0.0918316 -0.0191509 0)
(0.0938411 -0.0119864 0)
(0.0951358 -0.00487849 0)
(0.0957264 0.0021318 0)
(0.0956116 0.00902623 0)
(0.0947744 0.015805 0)
(0.0931805 0.0224852 0)
(0.0907754 0.0291003 0)
(0.0874841 0.0357014 0)
(0.0832121 0.0423622 0)
(0.0778489 0.0491839 0)
(0.0712749 0.0562975 0)
(0.0633726 0.0638496 0)
(0.0540457 0.071956 0)
(0.0432481 0.0806049 0)
(0.0310256 0.0895151 0)
(0.017568 0.0980025 0)
(0.00325513 0.10496 0)
(-0.0113252 0.109029 0)
(-0.0254198 0.109023 0)
(-0.0382771 0.104403 0)
(-0.0492885 0.0954084 0)
(-0.05811 0.0829304 0)
(-0.0646855 0.0682149 0)
(-0.0691871 0.0525229 0)
(-0.0719088 0.0368785 0)
(-0.0731637 0.0219582 0)
(-0.0732126 0.00810824 0)
(-0.0722358 -0.00456435 0)
(-0.0703362 -0.016082 0)
(-0.0675587 -0.0265007 0)
(-0.0639211 -0.0358457 0)
(-0.0594416 -0.0440818 0)
(-0.054161 -0.0511068 0)
(-0.048161 -0.0567615 0)
(-0.0415766 -0.060848 0)
(-0.0346026 -0.0631514 0)
(-0.0274938 -0.063459 0)
(-0.0205581 -0.0615718 0)
(-0.01414 -0.0573005 0)
(-0.00859142 -0.0504397 0)
(-0.00425072 -0.0407151 0)
(-0.00129244 -0.0277139 0)
(-7.8636e-05 -0.0107919 0)
(0.000201576 -0.0110884 0)
(0.00199764 -0.0291586 0)
(0.00591778 -0.0436522 0)
(0.0112936 -0.054978 0)
(0.0178821 -0.0633789 0)
(0.0252859 -0.0690408 0)
(0.0331311 -0.0721496 0)
(0.0410754 -0.0729252 0)
(0.0488297 -0.0716297 0)
(0.0561678 -0.068558 0)
(0.0629266 -0.064021 0)
(0.0690002 -0.0583265 0)
(0.0743305 -0.0517625 0)
(0.078896 -0.0445855 0)
(0.0827009 -0.0370135 0)
(0.0857656 -0.0292228 0)
(0.0881188 -0.0213487 0)
(0.0897902 -0.0134881 0)
(0.0908057 -0.00570241 0)
(0.0911826 0.00197746 0)
(0.0909252 0.00954768 0)
(0.090021 0.0170263 0)
(0.0884383 0.0244511 0)
(0.0861228 0.0318774 0)
(0.082996 0.0393786 0)
(0.078956 0.0470484 0)
(0.0738812 0.0550024 0)
(0.0676379 0.0633752 0)
(0.0600958 0.0723 0)
(0.0511515 0.0818514 0)
(0.0407638 0.0919383 0)
(0.0289989 0.102153 0)
(0.016081 0.111636 0)
(0.00242647 0.119085 0)
(-0.0113561 0.12297 0)
(-0.0245347 0.122045 0)
(-0.0364223 0.115864 0)
(-0.0465055 0.104881 0)
(-0.0545414 0.0902628 0)
(-0.0605537 0.0735013 0)
(-0.0647553 0.0560125 0)
(-0.0674393 0.0388716 0)
(-0.0688851 0.0227243 0)
(-0.0693021 0.0078424 0)
(-0.0688143 -0.00574866 0)
(-0.0674734 -0.0181363 0)
(-0.0652824 -0.0294142 0)
(-0.062226 -0.039617 0)
(-0.0582969 -0.0486942 0)
(-0.0535163 -0.0565086 0)
(-0.0479505 -0.0628514 0)
(-0.0417226 -0.0674657 0)
(-0.0350188 -0.0700746 0)
(-0.0280892 -0.0704071 0)
(-0.0212402 -0.0682181 0)
(-0.0148186 -0.0632942 0)
(-0.00918203 -0.0554385 0)
(-0.0046824 -0.0444274 0)
(-0.00151087 -0.0299488 0)
(-0.000128415 -0.011501 0)
(0.000235523 -0.0121744 0)
(0.00216067 -0.0321822 0)
(0.00624923 -0.0483458 0)
(0.0117407 -0.0610098 0)
(0.0183649 -0.0703745 0)
(0.0257047 -0.0766169 0)
(0.0333808 -0.0799461 0)
(0.041055 -0.0806298 0)
(0.0484508 -0.0789911 0)
(0.0553598 -0.0753904 0)
(0.0616404 -0.0701999 0)
(0.0672085 -0.06378 0)
(0.0720266 -0.0564603 0)
(0.0760914 -0.0485274 0)
(0.0794216 -0.0402187 0)
(0.0820493 -0.0317215 0)
(0.0840114 -0.0231746 0)
(0.0853442 -0.0146724 0)
(0.0860785 -0.00626974 0)
(0.0862359 0.00201371 0)
(0.0858245 0.0101889 0)
(0.0848358 0.0182926 0)
(0.0832417 0.0263843 0)
(0.0809904 0.0345438 0)
(0.0780042 0.0428697 0)
(0.0741795 0.0514789 0)
(0.06939 0.0605045 0)
(0.0634957 0.0700859 0)
(0.05636 0.0803397 0)
(0.0478773 0.0912921 0)
(0.0380129 0.102761 0)
(0.0268499 0.114199 0)
(0.0146361 0.124572 0)
(0.00180558 0.132387 0)
(-0.0110388 0.135979 0)
(-0.0232135 0.134083 0)
(-0.0341138 0.126374 0)
(-0.0433248 0.113534 0)
(-0.0506903 0.096989 0)
(-0.0562874 0.0784397 0)
(-0.0603405 0.0594173 0)
(-0.0631174 0.041014 0)
(-0.0648498 0.0238245 0)
(-0.0656913 0.0080401 0)
(-0.0657143 -0.00639146 0)
(-0.0649282 -0.0196135 0)
(-0.0633039 -0.0317478 0)
(-0.0608019 -0.0428309 0)
(-0.0573961 -0.0527915 0)
(-0.0530917 -0.0614536 0)
(-0.0479403 -0.0685564 0)
(-0.0420511 -0.0737818 0)
(-0.0355985 -0.0767878 0)
(-0.0288241 -0.0772412 0)
(-0.0220309 -0.0748461 0)
(-0.0155685 -0.0693598 0)
(-0.00980506 -0.0605865 0)
(-0.00511466 -0.0483417 0)
(-0.00171481 -0.032391 0)
(-0.000169678 -0.0123342 0)
(0.000262679 -0.0133462 0)
(0.00229768 -0.0353522 0)
(0.00653105 -0.0531706 0)
(0.0121151 -0.0671087 0)
(0.0187484 -0.0773442 0)
(0.0259915 -0.0840606 0)
(0.0334592 -0.0875034 0)
(0.04082 -0.0879979 0)
(0.0478131 -0.0859361 0)
(0.0542527 -0.0817483 0)
(0.0600219 -0.0758696 0)
(0.0650614 -0.0687122 0)
(0.0693555 -0.0606444 0)
(0.0729187 -0.0519794 0)
(0.0757836 -0.0429703 0)
(0.0779912 -0.0338115 0)
(0.0795848 -0.0246427 0)
(0.0806038 -0.0155543 0)
(0.0810813 -0.006593 0)
(0.0810402 0.00223283 0)
(0.0804902 0.0109487 0)
(0.0794251 0.0196097 0)
(0.07782 0.0282973 0)
(0.0756262 0.037116 0)
(0.0727692 0.046191 0)
(0.0691478 0.0556646 0)
(0.0646366 0.0656889 0)
(0.0590955 0.076409 0)
(0.0523882 0.0879229 0)
(0.0444126 0.100203 0)
(0.0351424 0.11297 0)
(0.0246744 0.125531 0)
(0.0132696 0.136678 0)
(0.00136246 0.14475 0)
(-0.0104718 0.147978 0)
(-0.0216171 0.145115 0)
(-0.0315599 0.135976 0)
(-0.0399781 0.121464 0)
(-0.0467842 0.103235 0)
(-0.0520843 0.0831613 0)
(-0.0560908 0.0628498 0)
(-0.0590313 0.0433851 0)
(-0.0610839 0.0253004 0)
(-0.0623496 0.00870881 0)
(-0.0628574 -0.00651068 0)
(-0.0625848 -0.0205466 0)
(-0.0614805 -0.0335404 0)
(-0.059489 -0.0455245 0)
(-0.0565706 -0.0564043 0)
(-0.0527168 -0.0659648 0)
(-0.0479641 -0.0738931 0)
(-0.0424051 -0.0798095 0)
(-0.0361987 -0.0833045 0)
(-0.0295738 -0.0839782 0)
(-0.0228275 -0.0814773 0)
(-0.016312 -0.0755209 0)
(-0.0104091 -0.065904 0)
(-0.00552078 -0.0524676 0)
(-0.00189736 -0.0350347 0)
(-0.000203153 -0.013277 0)
(0.000284345 -0.014588 0)
(0.00240896 -0.0386428 0)
(0.00675666 -0.0580981 0)
(0.0123999 -0.0732432 0)
(0.0190049 -0.084252 0)
(0.0261096 -0.0913315 0)
(0.0333246 -0.0947779 0)
(0.0403277 -0.094986 0)
(0.0468781 -0.0924252 0)
(0.0528158 -0.0875996 0)
(0.0580517 -0.0810082 0)
(0.0625524 -0.0731128 0)
(0.0663246 -0.0643165 0)
(0.0694 -0.0549542 0)
(0.0718228 -0.04529 0)
(0.0736416 -0.0355215 0)
(0.0749029 -0.0257861 0)
(0.0756473 -0.016168 0)
(0.0759068 -0.00670495 0)
(0.0757036 0.00260613 0)
(0.0750465 0.0118047 0)
(0.0739297 0.0209633 0)
(0.0723297 0.0301839 0)
(0.070201 0.0395955 0)
(0.0674732 0.0493494 0)
(0.0640496 0.0596136 0)
(0.0598099 0.0705597 0)
(0.0546191 0.0823383 0)
(0.0483472 0.0950275 0)
(0.0409003 0.108543 0)
(0.0322625 0.122504 0)
(0.0225418 0.136074 0)
(0.0120031 0.147881 0)
(0.00106703 0.156119 0)
(-0.00973585 0.158947 0)
(-0.0198683 0.155166 0)
(-0.0289088 0.144735 0)
(-0.036618 0.128765 0)
(-0.0429583 0.109104 0)
(-0.0480442 0.0877548 0)
(-0.0520611 0.0663703 0)
(-0.0551882 0.0460102 0)
(-0.0575508 0.0271442 0)
(-0.0592042 0.00981504 0)
(-0.0601434 -0.00615542 0)
(-0.0603244 -0.0209903 0)
(-0.0596827 -0.0348435 0)
(-0.0581529 -0.0477405 0)
(-0.0556861 -0.0595635 0)
(-0.0522613 -0.0700605 0)
(-0.0478989 -0.0788691 0)
(-0.0426725 -0.085549 0)
(-0.036721 -0.0896218 0)
(-0.0302568 -0.0906158 0)
(-0.0235673 -0.0881115 0)
(-0.0170063 -0.0817788 0)
(-0.01097 -0.0713906 0)
(-0.00589205 -0.0567986 0)
(-0.00205914 -0.0378659 0)
(-0.000230665 -0.0143153 0)
(0.000301808 -0.0158857 0)
(0.00249663 -0.0420268 0)
(0.00692562 -0.0630938 0)
(0.0125894 -0.079374 0)
(0.0191225 -0.0910548 0)
(0.0260424 -0.098384 0)
(0.0329586 -0.101724 0)
(0.039562 -0.101553 0)
(0.0456354 -0.0984252 0)
(0.0510476 -0.0929218 0)
(0.0557388 -0.0856055 0)
(0.0597024 -0.076984 0)
(0.0629665 -0.0674906 0)
(0.0655781 -0.0574761 0)
(0.0675917 -0.0472106 0)
(0.0690607 -0.0368904 0)
(0.0700329 -0.0266473 0)
(0.0705475 -0.0165572 0)
(0.070634 -0.00664817 0)
(0.0703113 0.00309447 0)
(0.0695854 0.0127234 0)
(0.068449 0.022327 0)
(0.0668789 0.0320265 0)
(0.0648313 0.0419733 0)
(0.06224 0.0523437 0)
(0.0590142 0.0633299 0)
(0.0550409 0.0751224 0)
(0.0501946 0.0878756 0)
(0.0443558 0.101647 0)
(0.037443 0.116294 0)
(0.0294526 0.131333 0)
(0.0205009 0.145793 0)
(0.0108494 0.158149 0)
(0.000893786 0.166479 0)
(-0.00889155 0.168903 0)
(-0.0180529 0.164283 0)
(-0.0262568 0.152726 0)
(-0.0333337 0.135519 0)
(-0.0392796 0.11467 0)
(-0.0442024 0.0922713 0)
(-0.0482506 0.0699986 0)
(-0.0515537 0.0488769 0)
(-0.0541885 0.0293171 0)
(-0.056173 0.0113026 0)
(-0.0574778 -0.00538953 0)
(-0.0580461 -0.0210072 0)
(-0.0578075 -0.0357117 0)
(-0.056692 -0.0495207 0)
(-0.0546441 -0.0622957 0)
(-0.0516316 -0.0737522 0)
(-0.0476578 -0.0834828 0)
(-0.0427749 -0.090989 0)
(-0.0370983 -0.0957227 0)
(-0.0308192 -0.0971351 0)
(-0.0242115 -0.0947314 0)
(-0.0176277 -0.0881186 0)
(-0.0114777 -0.0770324 0)
(-0.00622787 -0.0613195 0)
(-0.00220352 -0.040868 0)
(-0.000254119 -0.0154374 0)
(0.000316054 -0.017227 0)
(0.00256302 -0.045477 0)
(0.00703984 -0.0681212 0)
(0.0126833 -0.085458 0)
(0.0190986 -0.0977058 0)
(0.0257864 -0.105171 0)
(0.0323594 -0.1083 0)
(0.0385258 -0.107664 0)
(0.0440956 -0.103911 0)
(0.0489684 -0.0977027 0)
(0.0531148 -0.0896621 0)
(0.0565538 -0.0803391 0)
(0.0593331 -0.0701907 0)
(0.0615134 -0.0595778 0)
(0.0631565 -0.0487711 0)
(0.0643186 -0.0379614 0)
(0.0650468 -0.0272718 0)
(0.0653774 -0.0167681 0)
(0.0653356 -0.00646746 0)
(0.0649358 0.00365607 0)
(0.0641797 0.0136677 0)
(0.0630572 0.0236702 0)
(0.0615436 0.0338022 0)
(0.0595963 0.0442351 0)
(0.0571524 0.0551678 0)
(0.0541273 0.0668145 0)
(0.0504173 0.0793821 0)
(0.0459083 0.0930272 0)
(0.0404953 0.107784 0)
(0.0341116 0.123452 0)
(0.0267671 0.13945 0)
(0.0185844 0.154679 0)
(0.00981575 0.167484 0)
(0.000823459 0.17585 0)
(-0.00798038 0.177884 0)
(-0.0162255 0.172526 0)
(-0.023659 0.160017 0)
(-0.0301687 0.141793 0)
(-0.0357701 0.11998 0)
(-0.0405543 0.0967319 0)
(-0.0446294 0.0737256 0)
(-0.0480767 0.0519496 0)
(-0.0509312 0.0317638 0)
(-0.053182 0.0131053 0)
(-0.0547836 -0.00428109 0)
(-0.0556737 -0.0206603 0)
(-0.0557812 -0.0361974 0)
(-0.0550357 -0.0509033 0)
(-0.0533774 -0.0646235 0)
(-0.0507638 -0.0770467 0)
(-0.0471811 -0.0877264 0)
(-0.042658 -0.09611 0)
(-0.0372835 -0.10158 0)
(-0.0312235 -0.103505 0)
(-0.0247337 -0.101307 0)
(-0.0181611 -0.094513 0)
(-0.0119271 -0.0828059 0)
(-0.00652979 -0.0660101 0)
(-0.00233384 -0.0440245 0)
(-0.000275032 -0.0166343 0)
(0.000327728 -0.0186009 0)
(0.00260999 -0.0489671 0)
(0.0071018 -0.073143 0)
(0.012684 -0.0914515 0)
(0.0189359 -0.104158 0)
(0.0253464 -0.111648 0)
(0.0315362 -0.114466 0)
(0.0372354 -0.113291 0)
(0.0422839 -0.108868 0)
(0.046614 -0.10194 0)
(0.0502257 -0.0931895 0)
(0.0531621 -0.0832008 0)
(0.0554884 -0.0724486 0)
(0.0572756 -0.0612978 0)
(0.0585906 -0.0500142 0)
(0.0594901 -0.0387794 0)
(0.0600189 -0.0277049 0)
(0.0602088 -0.016845 0)
(0.06008 -0.00620518 0)
(0.0596413 0.00425174 0)
(0.0588897 0.0146026 0)
(0.057811 0.0249634 0)
(0.0563785 0.0354879 0)
(0.0545495 0.0463652 0)
(0.052264 0.0578138 0)
(0.0494435 0.0700668 0)
(0.045994 0.083344 0)
(0.041815 0.0978013 0)
(0.0368173 0.113448 0)
(0.0309515 0.130026 0)
(0.0242412 0.146864 0)
(0.016813 0.162745 0)
(0.00890554 0.175906 0)
(0.000842798 0.184266 0)
(-0.00702804 0.185942 0)
(-0.0144164 0.179957 0)
(-0.021141 0.166669 0)
(-0.0271351 0.147635 0)
(-0.0324236 0.125062 0)
(-0.0370747 0.101136 0)
(-0.0411558 0.0775243 0)
(-0.0447043 0.05518 0)
(-0.0477206 0.0344226 0)
(-0.0501722 0.0151559 0)
(-0.0520044 -0.00289637 0)
(-0.0531547 -0.020009 0)
(-0.0535559 -0.0363493 0)
(-0.0531394 -0.0519237 0)
(-0.0518437 -0.0665669 0)
(-0.0496172 -0.0799482 0)
(-0.0464291 -0.0915889 0)
(-0.0422843 -0.100888 0)
(-0.0372429 -0.107159 0)
(-0.0314418 -0.109688 0)
(-0.0251136 -0.107797 0)
(-0.0185948 -0.100926 0)
(-0.0123139 -0.0886804 0)
(-0.00679857 -0.0708468 0)
(-0.00245237 -0.0473193 0)
(-0.00029441 -0.0178991 0)
(0.0003372 -0.0199977 0)
(0.00263891 -0.052472 0)
(0.00711405 -0.0781233 0)
(0.0125955 -0.0973115 0)
(0.0186407 -0.110369 0)
(0.0247327 -0.117775 0)
(0.0305056 -0.120191 0)
(0.0357154 -0.118413 0)
(0.0402347 -0.11329 0)
(0.0440284 -0.105643 0)
(0.047125 -0.0962087 0)
(0.0495893 -0.0856002 0)
(0.0515005 -0.0743025 0)
(0.052937 -0.0626784 0)
(0.053968 -0.0509841 0)
(0.0546488 -0.0393884 0)
(0.05502 -0.0279893 0)
(0.0551085 -0.0168282 0)
(0.0549286 -0.00589859 0)
(0.0544834 0.0048477 0)
(0.0537647 0.0154986 0)
(0.0527543 0.0261817 0)
(0.0514225 0.0370641 0)
(0.0497262 0.0483503 0)
(0.0476077 0.0602748 0)
(0.0449946 0.0730862 0)
(0.0418028 0.0870131 0)
(0.0379459 0.102207 0)
(0.0333521 0.118652 0)
(0.0279895 0.136032 0)
(0.0218952 0.153592 0)
(0.015198 0.170015 0)
(0.00811977 0.183449 0)
(0.000943353 0.191774 0)
(-0.00604838 0.193134 0)
(-0.0126387 0.186634 0)
(-0.0187083 0.172736 0)
(-0.0242263 0.15308 0)
(-0.029219 0.129925 0)
(-0.0337296 0.105469 0)
(-0.0377865 0.081358 0)
(-0.0413893 0.0585156 0)
(-0.0445097 0.0372317 0)
(-0.0471006 0.0173901 0)
(-0.049103 -0.00129662 0)
(-0.050458 -0.019108 0)
(-0.0511048 -0.0362122 0)
(-0.0509794 -0.0526146 0)
(-0.0500202 -0.0681449 0)
(-0.0481684 -0.0824607 0)
(-0.0453776 -0.0950592 0)
(-0.0416289 -0.105297 0)
(-0.0369522 -0.112424 0)
(-0.0314523 -0.115637 0)
(-0.0253339 -0.114157 0)
(-0.0189174 -0.107313 0)
(-0.0126328 -0.09462 0)
(-0.00703325 -0.0758029 0)
(-0.00255997 -0.0507356 0)
(-0.000312806 -0.0192262 0)
(0.000344669 -0.021408 0)
(0.0026508 -0.0559677 0)
(0.00707914 -0.0830274 0)
(0.0124226 -0.102998 0)
(0.0182216 -0.116296 0)
(0.0239593 -0.123516 0)
(0.0292886 -0.12545 0)
(0.0339954 -0.12302 0)
(0.0379866 -0.11718 0)
(0.0412593 -0.108829 0)
(0.0438685 -0.0987488 0)
(0.0458973 -0.0875745 0)
(0.0474355 -0.0757946 0)
(0.048566 -0.0637638 0)
(0.0493572 -0.0517246 0)
(0.049861 -0.0398301 0)
(0.0501131 -0.0281636 0)
(0.0501344 -0.0167526 0)
(0.0499334 -0.00557878 0)
(0.0495076 0.0054168 0)
(0.0488436 0.0163323 0)
(0.0479191 0.027306 0)
(0.0467018 0.0385164 0)
(0.0451479 0.0501806 0)
(0.0432018 0.0625464 0)
(0.0407967 0.0758733 0)
(0.0378588 0.090395 0)
(0.0343159 0.106255 0)
(0.0301137 0.123408 0)
(0.0252379 0.141487 0)
(0.0197381 0.159658 0)
(0.0137437 0.17652 0)
(0.00745727 0.190156 0)
(0.00111989 0.198425 0)
(-0.00504722 0.199516 0)
(-0.0108941 0.192612 0)
(-0.0163547 0.178257 0)
(-0.021425 0.158149 0)
(-0.0261286 0.13457 0)
(-0.0304833 0.109708 0)
(-0.0344823 0.0851865 0)
(-0.0380929 0.0619044 0)
(-0.0412644 0.0401339 0)
(-0.0439393 0.0197501 0)
(-0.0460584 0.000463335 0)
(-0.0475687 -0.0180063 0)
(-0.0484178 -0.0358273 0)
(-0.0485481 -0.0530072 0)
(-0.0478995 -0.0693769 0)
(-0.0464084 -0.08459 0)
(-0.0440147 -0.0981281 0)
(-0.0406769 -0.109314 0)
(-0.0363946 -0.117337 0)
(-0.0312381 -0.121308 0)
(-0.0253798 -0.120336 0)
(-0.0191177 -0.113627 0)
(-0.0128772 -0.100584 0)
(-0.00723121 -0.0808484 0)
(-0.00265638 -0.054256 0)
(-0.000330428 -0.0206101 0)
(0.000350248 -0.0228232 0)
(0.00264655 -0.0594315 0)
(0.00699977 -0.0878229 0)
(0.0121709 -0.108474 0)
(0.0176885 -0.121905 0)
(0.0230422 -0.128845 0)
(0.0279086 -0.130228 0)
(0.0321069 -0.127111 0)
(0.035579 -0.120553 0)
(0.0383537 -0.111524 0)
(0.0405091 -0.100845 0)
(0.0421433 -0.0891654 0)
(0.0433531 -0.0769695 0)
(0.0442223 -0.0645985 0)
(0.0448165 -0.0522779 0)
(0.0451824 -0.0401432 0)
(0.0453497 -0.0282618 0)
(0.0453329 -0.0166476 0)
(0.045135 -0.0052705 0)
(0.0447479 0.00593864 0)