/*--------------------------------*- C++ -*----------------------------------*\
| =========                 |                                                 |
| \\      /  F ield         | OpenFOAM: The Open Source CFD Toolbox           |
|  \\    /   O peration     | Version:  2406                                  |
|   \\  /    A nd           | Website:  www.openfoam.com                      |
|    \\/     M anipulation  |                                                 |
\*---------------------------------------------------------------------------*/
FoamFile
{
    version     2.0;
    format      ascii;
    arch        "LSB;label=32;scalar=64";
    class       volScalarField;
    location    "10000";
    object      wallHeatFlux;
}
// * * * * * * * * * * * * * * * * * * * * * * * * * * * * * * * * * * * * * //

dimensions      [1 0 -3 0 0 0 0];

internalField   uniform 0;

boundaryField
{
    bottomwall
    {
        type            calculated;
        value           nonuniform List<scalar> 
60
(
311.044
241.423
202.183
178.045
162.172
151.148
143.126
137.018
132.147
128.091
124.581
121.421
118.453
115.557
112.66
109.732
106.769
103.771
100.737
97.6575
94.5135
91.2743
87.8933
84.3121
80.4793
76.3807
72.0624
67.6163
63.1071
58.4569
53.3535
47.2758
39.704
30.4918
20.2729
10.7033
4.36078
4.25604
13.0543
32.2546
61.6425
99.229
141.701
185.199
226.121
261.668
289.99
310.022
321.195
323.264
316.374
301.315
279.829
254.767
229.981
209.997
199.632
204.411
231.518
293.685
)
;
    }
    topwall
    {
        type            calculated;
        value           nonuniform List<scalar> 
60
(
9.95298
6.4927
3.76962
1.28145
-0.712709
-2.22448
-3.22494
-3.63599
-3.34322
-2.33029
-0.772205
1.0116
2.70475
4.113
5.17609
5.90174
6.29979
6.36208
6.07875
5.45881
4.53556
3.35839
1.983
0.470782
-1.09914
-2.61162
-3.90467
-4.7816
-5.05273
-4.59628
-3.41288
-1.64524
0.451225
2.57659
4.46382
5.93305
6.90491
7.37733
7.38642
6.97408
6.1768
5.03644
3.62257
2.04853
0.465405
-0.967963
-2.11827
-2.88427
-3.17094
-2.8694
-1.88998
-0.237997
1.9459
4.44258
7.07098
9.75087
12.5063
15.2954
18.3732
20.7884
)
;
    }
    coldwall
    {
        type            calculated;
        value           nonuniform List<scalar> 
48
(
-416.765
-217.312
-134.035
-90.5723
-64.6885
-48.4356
-38.2374
-32.1109
-28.7804
-27.3574
-27.2074
-27.8817
-29.071
-30.5702
-32.2485
-34.0257
-35.8546
-37.7086
-39.5728
-41.4395
-43.3045
-45.1658
-47.0227
-48.8749
-50.7229
-52.5673
-54.4087
-56.2478
-58.0853
-59.9212
-61.7553
-63.5866
-65.4133
-67.2322
-69.0392
-70.8286
-72.5928
-74.3225
-76.0062
-77.6303
-79.179
-80.6348
-82.6953
-81.3707
-80.0489
-79.0519
-79.2848
-83.712
)
;
    }
    radinlet
    {
        type            calculated;
        value           nonuniform List<scalar> 
12
(
-81.9781
-83.1882
-84.2431
-85.1208
-85.8
-86.2611
-86.4875
-86.4669
-86.1926
-85.6646
-84.8908
-83.8898
)
;
    }
    hotwall
    {
        type            calculated;
        value           nonuniform List<scalar> 
60
(
-428.86
-235.444
-150.779
-104.159
-75.0399
-55.9858
-43.5296
-35.6511
-30.9904
-28.5703
-27.6785
-27.8037
-28.5891
-29.7944
-31.2638
-32.8998
-34.6436
-36.461
-38.3321
-40.2457
-42.1949
-44.1749
-46.1821
-48.2133
-50.2653
-52.3347
-54.4181
-56.512
-58.6126
-60.716
-62.8182
-64.9148
-67.0013
-69.0727
-71.1239
-73.1492
-75.1421
-77.0958
-79.0026
-80.8535
-82.6388
-84.3474
-85.9672
-87.4846
-88.8847
-90.1508
-91.265
-92.2081
-92.9606
-93.5037
-93.8216
-93.9047
-93.7556
-93.3987
-92.8976
-92.3912
-92.1767
-92.9369
-96.472
-108.439
)
;
    }
    frontAndback
    {
        type            empty;
    }
}


// ************************************************************************* //
