/*--------------------------------*- C++ -*----------------------------------*\
| =========                 |                                                 |
| \\      /  F ield         | OpenFOAM: The Open Source CFD Toolbox           |
|  \\    /   O peration     | Version:  2306                                  |
|   \\  /    A nd           | Website:  www.openfoam.com                      |
|    \\/     M anipulation  |                                                 |
\*---------------------------------------------------------------------------*/
FoamFile
{
    version     2.0;
    format      ascii;
    arch        "LSB;label=32;scalar=64";
    class       volScalarField;
    location    "0.05";
    object      G;
}
// * * * * * * * * * * * * * * * * * * * * * * * * * * * * * * * * * * * * * //

dimensions      [1 0 -3 0 0 0 0];

internalField   nonuniform List<scalar> 
100
(
9963.97
10988.4
11697.8
12057
12231
12231
12057
11697.8
10988.4
9963.98
10988.4
12232.7
13073.7
13504.1
13706.4
13706.4
13504.1
13073.7
12232.7
10988.4
11697.8
13073.7
14020.2
14509.7
14736.5
14736.5
14509.7
14020.3
13073.7
11697.8
12057
13504.1
14509.7
15034.2
15276
15276
15034.2
14509.7
13504.1
12057
12231
13706.4
14736.5
15276
15524.5
15524.5
15276
14736.5
13706.4
12231
12231
13706.4
14736.5
15276
15524.5
15524.5
15276
14736.5
13706.4
12231
12057
13504.1
14509.7
15034.2
15276
15276
15034.2
14509.7
13504.1
12057
11697.8
13073.7
14020.3
14509.7
14736.5
14736.5
14509.7
14020.2
13073.7
11697.8
10988.4
12232.7
13073.7
13504.1
13706.4
13706.4
13504.1
13073.7
12232.7
10988.4
9963.98
10988.4
11697.8
12057
12231
12231
12057
11697.8
10988.4
9963.97
)
;

boundaryField
{
    fixedWall_Bottom
    {
        type            calculated;
        value           nonuniform List<scalar> 10(8696.43 9487.02 10095 10405.5 10557.6 10557.6 10405.5 10095 9487.03 8696.45);
    }
    fixedWall_Right
    {
        type            calculated;
        value           nonuniform List<scalar> 10(8696.45 9487.03 10095 10405.5 10557.6 10557.6 10405.5 10095 9487.02 8696.43);
    }
    fixedWall_Left
    {
        type            calculated;
        value           nonuniform List<scalar> 10(8696.43 9487.02 10095 10405.5 10557.6 10557.6 10405.5 10095 9487.03 8696.45);
    }
    fixedWall_Top
    {
        type            calculated;
        value           nonuniform List<scalar> 10(8696.45 9487.03 10095 10405.5 10557.6 10557.6 10405.5 10095 9487.02 8696.43);
    }
    frontAndBack
    {
        type            empty;
    }
}


// ************************************************************************* //
