/*--------------------------------*- C++ -*----------------------------------*\
| =========                 |                                                 |
| \\      /  F ield         | OpenFOAM: The Open Source CFD Toolbox           |
|  \\    /   O peration     | Version:  2306                                  |
|   \\  /    A nd           | Website:  www.openfoam.com                      |
|    \\/     M anipulation  |                                                 |
\*---------------------------------------------------------------------------*/
FoamFile
{
    version     2.0;
    format      ascii;
    arch        "LSB;label=32;scalar=64";
    class       volScalarField;
    location    "0.05";
    object      ILambda_16_0;
}
// * * * * * * * * * * * * * * * * * * * * * * * * * * * * * * * * * * * * * //

dimensions      [1 0 -3 0 0 0 0];

internalField   nonuniform List<scalar> 
100
(
2181.37
2181.41
2181.42
2180.85
2179.03
2182.24
2215.28
2272.41
2102.51
1079.48
1825.81
1825.83
1825.89
1825.74
1824.45
1823.88
1841.74
1896.57
1825.83
1018.43
1647.43
1647.44
1647.47
1647.43
1646.71
1645.98
1657.69
1702.73
1662.6
969.923
1432.76
1432.76
1432.78
1432.79
1432.44
1431.6
1438.05
1473.71
1464.78
904.471
1226.53
1226.52
1226.53
1226.55
1226.42
1225.85
1229.21
1255.29
1263.99
825.717
1014.63
1014.63
1014.63
1014.63
1014.59
1014.26
1015.89
1033.75
1051.8
729.339
794.775
794.775
794.773
794.77
794.739
794.541
795.198
806.092
826.348
611.759
568.789
568.79
568.79
568.788
568.767
568.648
568.739
573.912
590.408
470.541
342.197
342.197
342.197
342.199
342.195
342.156
342.055
343.42
352.409
304.125
115.234
115.234
115.234
115.234
115.237
115.242
115.211
115.184
116.93
109.971
)
;

boundaryField
{
    fixedWall_Bottom
    {
        type            greyDiffusiveRadiation;
        refValue        uniform 0;
        refGradient     uniform 0;
        valueFraction   uniform 0;
        source          uniform 0;
        value           nonuniform List<scalar> 10(2181.37 2181.41 2181.42 2180.85 2179.03 2182.24 2215.28 2272.41 2102.51 1079.48);
    }
    fixedWall_Right
    {
        type            greyDiffusiveRadiation;
        refValue        uniform 0;
        refGradient     uniform 0;
        valueFraction   uniform 1;
        source          uniform 0;
        value           uniform 0;
    }
    fixedWall_Left
    {
        type            greyDiffusiveRadiation;
        refValue        uniform 0;
        refGradient     uniform 0;
        valueFraction   uniform 0;
        source          uniform 0;
        value           nonuniform List<scalar> 10(2181.37 1825.81 1647.43 1432.76 1226.53 1014.63 794.775 568.789 342.197 115.234);
    }
    fixedWall_Top
    {
        type            greyDiffusiveRadiation;
        refValue        uniform 0;
        refGradient     uniform 0;
        valueFraction   uniform 1;
        source          uniform 0;
        value           uniform 0;
    }
    frontAndBack
    {
        type            empty;
    }
}


// ************************************************************************* //
