/*--------------------------------*- C++ -*----------------------------------*\
| =========                 |                                                 |
| \\      /  F ield         | OpenFOAM: The Open Source CFD Toolbox           |
|  \\    /   O peration     | Version:  2306                                  |
|   \\  /    A nd           | Website:  www.openfoam.com                      |
|    \\/     M anipulation  |                                                 |
\*---------------------------------------------------------------------------*/
FoamFile
{
    version     2.0;
    format      ascii;
    arch        "LSB;label=32;scalar=64";
    class       volScalarField;
    location    "0.05";
    object      qr;
}
// * * * * * * * * * * * * * * * * * * * * * * * * * * * * * * * * * * * * * //

dimensions      [1 0 -3 0 0 0 0];

internalField   uniform 0;

boundaryField
{
    fixedWall_Bottom
    {
        type            calculated;
        value           nonuniform List<scalar> 10(4569.59 5262.39 5684.38 5915.87 6029.92 6029.9 5915.85 5684.39 5262.41 4569.61);
    }
    fixedWall_Right
    {
        type            calculated;
        value           nonuniform List<scalar> 10(4569.61 5262.41 5684.39 5915.85 6029.9 6029.92 5915.87 5684.38 5262.39 4569.59);
    }
    fixedWall_Left
    {
        type            calculated;
        value           nonuniform List<scalar> 10(4569.59 5262.39 5684.38 5915.87 6029.92 6029.9 5915.85 5684.39 5262.41 4569.61);
    }
    fixedWall_Top
    {
        type            calculated;
        value           nonuniform List<scalar> 10(4569.61 5262.41 5684.39 5915.85 6029.9 6029.92 5915.87 5684.38 5262.39 4569.59);
    }
    frontAndBack
    {
        type            empty;
    }
}


// ************************************************************************* //
