/*--------------------------------*- C++ -*----------------------------------*\
| =========                 |                                                 |
| \\      /  F ield         | OpenFOAM: The Open Source CFD Toolbox           |
|  \\    /   O peration     | Version:  2112                                  |
|   \\  /    A nd           | Website:  www.openfoam.com                      |
|    \\/     M anipulation  |                                                 |
\*---------------------------------------------------------------------------*/
FoamFile
{
    version     2.0;
    format      ascii;
    arch        "LSB;label=32;scalar=64";
    class       volScalarField;
    location    "0.06";
    object      G;
}
// * * * * * * * * * * * * * * * * * * * * * * * * * * * * * * * * * * * * * //

dimensions      [1 0 -3 0 0 0 0];

internalField   nonuniform List<scalar> 
900
(
84940.7
101673
106533
108386
109374
110016
110468
110799
111045
111230
111369
111471
111544
111590
111612
111612
111590
111544
111471
111369
111230
111045
110799
110468
110016
109374
108386
106533
101673
84940.7
66658.5
83292.2
92331.4
97154.4
99964.4
101771
103020
103923
104592
105093
105467
105742
105935
106058
106118
106118
106058
105935
105742
105467
105093
104592
103923
103020
101771
99964.4
97154.4
92331.4
83292.2
66658.5
60156.8
72548.4
81577.9
87595.2
91592.9
94337.7
96300
97748
98837.9
99665.1
100290
100754
101082
101292
101395
101395
101292
101082
100754
100290
99665.1
98837.9
97748
96300
94337.7
91592.9
87595.2
81577.9
72548.4
60156.8
57224.4
66532.7
74317.5
80288.8
84701.4
87946.1
90362.1
92187.8
93582.4
94651.1
95464.3
96069.6
96499.6
96775.4
96910.2
96910.2
96775.4
96499.6
96069.6
95464.3
94651.1
93582.4
92187.8
90362.1
87946.1
84701.4
80288.8
74317.5
66532.7
57224.4
55196
62514.5
69035.6
74470
78813.7
82205.9
84842.2
86893.1
88490.8
89732
90685.7
91400.6
91910.8
92239.3
92400.2
92400.2
92239.3
91910.8
91400.6
90685.7
89732
88490.8
86893.1
84842.2
82205.9
78813.7
74470
69035.6
62514.5
55196
53293.5
59310.1
64833.1
69663.9
73744.6
77089.6
79794.3
81963.1
83691.2
85056.3
86118.3
86921.7
87498.9
87872.2
88055.4
88055.4
87872.2
87498.9
86921.7
86118.3
85056.3
83691.2
81963.1
79794.3
77089.6
73744.6
69663.9
64833.1
59310.1
53293.5
51572.7
56685.9
61440.8
65719.4
69470
72654.9
75313.1
77500.9
79280.3
80708.1
81831.9
82689.7
83309.7
83712.3
83910.4
83910.4
83712.3
83309.7
82689.7
81831.9
80708.1
79280.3
77500.9
75313.1
72654.9
69470
65719.4
61440.9
56685.9
51572.7
50071.6
54488.4
58627.8
62414
65819.3
68784.5
71320.9
73454.3
75221.3
76660.2
77805.8
78687.9
79329.7
79748.2
79954.7
79954.7
79748.2
79329.7
78687.9
77805.9
76660.2
75221.3
73454.3
71320.9
68784.5
65819.3
62414
58627.8
54488.4
50071.6
48678.9
52532.7
56171.4
59529.8
62610.2
65341.8
67723.1
69762.4
71478.3
72894.1
74033.7
74918.5
75566.4
75990.7
76200.7
76200.7
75990.7
75566.4
74918.5
74033.7
72894.1
71478.3
69762.4
67723.1
65341.8
62610.2
59529.8
56171.4
52532.7
48678.9
47330.5
50734.4
53965.1
56958.7
59748.1
62253.8
64469.7
66394.3
68034.4
69402.9
70514.8
71384.6
72025
72446.1
72655
72655
72446.1
72025
71384.6
70514.8
69402.9
68034.4
66394.3
64469.7
62253.8
59748.1
56958.7
53965
50734.4
47330.5
46038.6
49077.6
51969
54647.4
57176.2
59468.8
61517.4
63316.3
64865.2
66169.6
67237.8
68078.8
68701.2
69112
69316.1
69316.1
69112
68701.2
68078.8
67237.8
66169.6
64865.2
63316.3
61517.4
59468.8
57176.2
54647.4
51969
49077.6
46038.6
44811.6
47541.5
50144.8
52545.8
54840.5
56934.8
58820.8
60491.4
61941.8
63172.5
64187.1
64990.4
65587.5
65982.8
66179.6
66179.6
65982.8
65587.5
64990.4
64187.1
63172.5
61941.8
60491.4
58820.8
56934.8
54840.5
52545.8
50144.8
47541.5
44811.6
43634.5
46097.9
48455.6
50611.7
52697.5
54610.9
56343.3
57888.6
59239.1
60391.9
61347.6
62107.7
62674.8
63051.2
63238.9
63238.9
63051.2
62674.8
62107.7
61347.6
60392
59239.1
57888.6
56343.4
54610.9
52697.5
50611.7
48455.7
46097.9
43634.6
42496.2
44730.6
46879.1
48818.6
50718.3
52467.9
54057.6
55483.1
56735.5
57809.7
58704
59418
59952.4
60307.9
60485.4
60485.4
60307.9
59952.4
59418
58704
57809.7
56735.5
55483.2
54057.6
52467.9
50718.3
48818.6
46879.1
44730.7
42496.2
41396.7
43432.9
45401.8
47148.4
48881.3
50483
51940.6
53253.3
54411.4
55408.3
56241.2
56908.3
57408.7
57742.2
57909
57909
57742.2
57408.7
56908.2
56241.2
55408.3
54411.3
53253.3
51940.6
50482.9
48881.3
47148.4
45401.8
43432.9
41396.7
40336.5
42197.9
44012
45585.3
47168.2
48636.4
49972.8
51180.1
52249
53171.8
53944.8
54565.4
55032
55343.4
55499.2
55499.2
55343.4
55032
54565.4
53944.7
53171.7
52249
51180.1
49972.8
48636.4
47168.1
45585.3
44011.9
42197.8
40336.5
39312.8
41018.4
42699.4
44116.8
45564
46912.5
48138
49247.6
50233.1
51085.7
51801.4
52377.2
52810.6
53100.3
53245.4
53245.4
53100.3
52810.6
52377.2
51801.4
51085.7
50233.1
49247.6
48138
46912.4
45564
44116.8
42699.3
41018.3
39312.7
38322.8
39889.6
41456.4
42733
44057.2
45298.1
46422.6
47442.1
48350.3
49137.2
49798.6
50331.6
50733.4
51002.1
51136.8
51136.8
51002.1
50733.4
50331.6
49798.6
49137.2
48350.3
47442.1
46422.7
45298.1
44057.3
42733
41456.4
39889.6
38322.8
37366
38808.5
40277.3
41426.3
42638
43782.5
44815.3
45751.8
46588.5
47314.4
47925.1
48417.7
48789.5
49038.4
49163.1
49163.1
49038.4
48789.5
48417.8
47925.1
47314.5
46588.6
45751.9
44815.4
43782.5
42638.1
41426.3
40277.3
38808.6
37366.1
36442.1
37771.7
39156.6
40189.8
41298.3
42356.4
43306.3
44166.4
44937.4
45606.9
46170.3
46625.3
46968.9
47199.1
47314.4
47314.4
47199.1
46969
46625.3
46170.3
45607
44937.4
44166.5
43306.3
42356.4
41298.3
40189.9
39156.6
37771.8
36442.2
35549.8
36776
38089.7
39018.1
40031
41011.8
41886.9
42676.9
43387.3
44005.1
44524.8
44944.7
45262.2
45474.9
45581.4
45581.4
45474.8
45262.2
44944.7
44524.8
44005.1
43387.3
42676.8
41886.9
41011.7
40031
39018.1
38089.7
36776
35549.9
34687.5
35818.8
37072.9
37906.4
38830.3
39741.7
40549.6
41275.1
41929.8
42500.4
42979.8
43367.3
43660.5
43857
43955.4
43955.4
43857
43660.5
43367.3
42979.8
42500.4
41929.8
41275
40549.6
39741.6
38830.2
37906.3
37072.8
35818.7
34687.4
33854.1
34898.1
36102.7
36850.6
37690.9
38539.9
39287.9
39954
40557.5
41084.9
41527.5
41885
42155.8
42337.3
42428.3
42428.3
42337.3
42155.8
41885
41527.5
41084.9
40557.5
39953.9
39287.8
38539.8
37690.8
36850.4
36102.5
34897.9
33853.9
33048.6
34011.7
35175.6
35846.7
36608
37400.7
38095.5
38707.2
39263.5
39751.7
40160.6
40490.4
40740.5
40908.3
40992.4
40992.4
40908.3
40740.4
40490.3
40160.6
39751.6
39263.5
38707.3
38095.6
37400.7
36607.9
35846.6
35175.5
34011.5
33048.4
32270.4
33158.1
34289.3
34891.9
35578
36319.6
36968
37529.9
38042.3
38494.7
38873
39177.3
39408.3
39563.6
39641.3
39641.3
39563.6
39408.3
39177.2
38873
38494.6
38042.3
37529.9
36968.1
36319.8
35578.2
34892
34289.3
33158.1
32270.4
31516.1
32333
33438.6
33981.1
34595.4
35290.1
35898.2
36414.7
36886
37305.7
37656.4
37937.2
38150.6
38294.4
38366.3
38366.3
38294.4
38150.6
37937.2
37656.3
37305.7
36886
36414.7
35898.3
35290.3
34595.7
33981.4
33439
32333.3
31516.4
30793.2
31544
32630.3
33120.5
33666.3
34317.8
34891.4
35366.8
35799.7
36189.6
36515.4
36775
36972.1
37105.3
37171.9
37171.9
37105.3
36972.1
36775
36515.4
36189.5
35799.7
35366.7
34891.4
34318
33666.6
33120.9
32630.8
31544.5
30793.7
30064.8
30751.9
31824.6
32270.4
32748.3
33357.6
33902.1
34340.3
34736
35097.5
35400.9
35640.9
35822.6
35945.7
36007.4
36007.4
35945.7
35822.6
35640.9
35400.9
35097.5
34735.9
34340.2
33902
33357.6
32748.4
32270.7
31825
30752.4
30065.4
29477.3
30111.7
31174.7
31585.2
32006.7
32582.1
33103.9
33511.7
33876.7
34215.6
34501.2
34725.1
34894.2
35009.3
35067.2
35067.2
35009.2
34894.1
34725.1
34501.3
34215.7
33876.7
33511.5
33103.6
32581.8
32006.6
31585.2
31174.8
30111.9
29477.6
28412.4
28960.8
30019.1
30390.8
30716.4
31230.2
31724.7
32092.3
32406.5
32707.8
32968.2
33168.6
33316.4
33418.6
33472
33472
33418.6
33316.3
33168.5
32968.3
32708
32406.8
32092.3
31724.4
31229.7
30715.7
30390.1
30018.5
28960.2
28411.7
)
;

boundaryField
{
    fixedWall_Bottom
    {
        type            calculated;
        value           uniform 113408;
    }
    fixedWall_Right
    {
        type            calculated;
        value           nonuniform List<scalar> 
30
(
56588.6
55082.4
53468.2
52421.8
51417.8
50196.5
48970.3
47845.6
46749.1
45640.2
44546.6
43486.9
42453.3
41439.8
40449.9
39487.2
38550.7
37639.4
36753.9
35895
35061.9
34253.9
33470.4
32710.9
31975.3
31260.5
30573.7
29879.3
29318.7
28296.3
)
;
    }
    fixedWall_Left
    {
        type            calculated;
        value           nonuniform List<scalar> 
30
(
56588.6
55082.4
53468.2
52421.8
51417.8
50196.5
48970.3
47845.6
46749.1
45640.2
44546.6
43486.9
42453.3
41439.8
40450
39487.2
38550.7
37639.3
36753.8
35894.8
35061.9
34254
33470.6
32711.1
31975.4
31260.2
30573.2
29878.8
29318.4
28296.9
)
;
    }
    fixedWall_Top
    {
        type            calculated;
        value           nonuniform List<scalar> 
30
(
28412.4
28960.8
30019.1
30390.8
30716.4
31230.2
31724.7
32092.3
32406.5
32707.8
32968.2
33168.6
33316.4
33418.6
33472
33472
33418.6
33316.3
33168.5
32968.3
32708
32406.8
32092.3
31724.4
31229.7
30715.7
30390.1
30018.5
28960.2
28411.7
)
;
    }
    frontAndBack
    {
        type            empty;
    }
}


// ************************************************************************* //
