/*--------------------------------*- C++ -*----------------------------------*\
| =========                 |                                                 |
| \\      /  F ield         | OpenFOAM: The Open Source CFD Toolbox           |
|  \\    /   O peration     | Version:  2112                                  |
|   \\  /    A nd           | Website:  www.openfoam.com                      |
|    \\/     M anipulation  |                                                 |
\*---------------------------------------------------------------------------*/
FoamFile
{
    version     2.0;
    format      ascii;
    arch        "LSB;label=32;scalar=64";
    class       volScalarField;
    location    "0.06";
    object      qr;
}
// * * * * * * * * * * * * * * * * * * * * * * * * * * * * * * * * * * * * * //

dimensions      [1 0 -3 0 0 0 0];

internalField   uniform 0;

boundaryField
{
    fixedWall_Bottom
    {
        type            calculated;
        value           uniform -56704.1;
    }
    fixedWall_Right
    {
        type            calculated;
        value           nonuniform List<scalar> 
30
(
28261.5
27080
25814.5
24997.5
24218.1
23272.3
22327.1
21467.4
20636.6
19802.8
18987.7
18206.4
17453.2
16723.1
16018.8
15342.7
14694
14071.5
13475.1
12905.1
12360.6
11840.4
11343.6
10869.2
10416.7
9983.75
9573.62
9166.45
8839.5
8260.55
)
;
    }
    fixedWall_Left
    {
        type            calculated;
        value           nonuniform List<scalar> 
30
(
28261.5
27080
25814.5
24997.5
24218.1
23272.3
22327.1
21467.4
20636.5
19802.8
18987.7
18206.4
17453.2
16723.1
16018.8
15342.8
14694
14071.4
13475
12905.1
12360.6
11840.5
11343.7
10869.3
10416.6
9983.53
9573.35
9166.27
8839.61
8261.14
)
;
    }
    fixedWall_Top
    {
        type            calculated;
        value           nonuniform List<scalar> 
30
(
20070.8
20726.1
21672.8
22100.9
22480.5
23002
23500.2
23889.4
24226
24541.1
24812.3
25023.6
25180.5
25288.4
25344.3
25344.3
25288.3
25180.4
25023.6
24812.5
24541.4
24226.2
23889.3
23499.8
23001.4
22479.8
22100.1
21672.1
20725.4
20070.1
)
;
    }
    frontAndBack
    {
        type            empty;
    }
}


// ************************************************************************* //
