/*--------------------------------*- C++ -*----------------------------------*\
| =========                 |                                                 |
| \\      /  F ield         | OpenFOAM: The Open Source CFD Toolbox           |
|  \\    /   O peration     | Version:  2306                                  |
|   \\  /    A nd           | Website:  www.openfoam.com                      |
|    \\/     M anipulation  |                                                 |
\*---------------------------------------------------------------------------*/
FoamFile
{
    version     2.0;
    format      ascii;
    arch        "LSB;label=32;scalar=64";
    class       volScalarField;
    location    "11";
    object      Keff;
}
// * * * * * * * * * * * * * * * * * * * * * * * * * * * * * * * * * * * * * //

dimensions      [1 1 -3 -1 0 0 0];

internalField   nonuniform List<scalar> 
32768
(
67.2037
67.2017
67.1977
67.1915
67.1832
67.1729
67.1604
67.1459
67.1293
67.1105
67.0896
67.0665
67.0412
67.0138
66.9841
66.9522
66.918
66.8816
66.8428
66.8017
66.7583
66.7125
66.6643
66.6138
66.5608
66.5054
66.4476
66.3874
66.3247
66.2595
66.192
66.122
66.0497
65.975
65.8979
65.8185
65.7368
65.6529
65.5668
65.4786
65.3884
65.2961
65.202
65.1061
65.0084
64.9091
64.8082
64.706
64.6024
64.4976
64.3918
64.285
64.1774
64.0692
63.9603
63.851
63.7414
63.6316
63.5218
63.412
63.3024
63.1931
63.0842
62.9759
62.8681
62.7611
62.6549
62.5496
62.4453
62.342
62.2399
62.1389
62.0391
61.9406
61.8434
61.7475
61.653
61.5599
61.4681
61.3778
61.2889
61.2014
61.1152
61.0305
60.9471
60.8651
60.7844
60.705
60.6269
60.5501
60.4745
60.4
60.3268
60.2546
60.1835
60.1136
60.0446
59.9766
59.9096
59.8436
59.7784
59.7142
59.6508
59.5883
59.5266
59.4657
59.4056
59.3463
59.2877
59.23
59.173
59.1168
59.0613
59.0067
58.9528
58.8998
58.8476
58.7962
58.7456
58.696
58.6472
58.5994
58.5526
58.5067
58.4618
58.418
58.3753
58.3338
58.2934
58.2542
58.2162
58.1796
58.1442
58.1103
58.0777
58.0466
58.017
57.989
57.9625
57.9376
57.9144
57.8929
57.8732
57.8552
57.8391
57.8248
57.8124
57.8019
57.7934
57.7869
57.7824
57.7799
57.7796
57.7813
57.7852
57.7913
57.7995
57.81
57.8227
57.8376
57.8548
57.8743
57.8961
57.9203
57.9467
57.9755
58.0066
58.0401
58.0759
58.1141
58.1547
58.1977
58.243
58.2906
58.3407
58.393
58.4478
58.5048
58.5642
58.6259
58.6899
58.7561
58.8246
58.8953
58.9683
59.0433
59.1206
59.1999
59.2813
59.3647
59.4501
59.5375
59.6267
59.7178
59.8107
59.9053
60.0016
60.0995
60.1989
60.2999
60.4023
60.506
60.611
60.7172
60.8246
60.933
61.0424
61.1527
61.2639
61.3757
61.4882
61.6013
61.7149
61.8289
61.9433
62.0579
62.1726
62.2875
62.4023
62.5171
62.6317
62.7462
62.8603
62.9741
63.0874
63.2003
63.3126
63.4243
63.5353
63.6456
63.7551
63.8638
63.9717
64.0786
64.1846
64.2896
64.3936
64.4966
64.5985
64.6993
64.799
64.8976
64.9951
65.0914
65.1865
65.2805
65.3734
65.4651
65.5555
65.6451
65.7327
65.8213
65.9035
65.997
66.0609
66.1949
67.2037
67.2017
67.1977
67.1915
67.1832
67.1729
67.1604
67.1459
67.1293
67.1105
67.0896
67.0665
67.0413
67.0138
66.9842
66.9523
66.9181
66.8816
66.8429
66.8018
66.7584
66.7126
66.6644
66.6138
66.5608
66.5054
66.4476
66.3873
66.3246
66.2594
66.1919
66.1218
66.0494
65.9746
65.8975
65.818
65.7363
65.6523
65.5661
65.4778
65.3874
65.2951
65.2008
65.1048
65.0069
64.9075
64.8065
64.7041
64.6004
64.4955
64.3895
64.2826
64.1749
64.0664
63.9574
63.848
63.7382
63.6283
63.5183
63.4084
63.2987
63.1893
63.0803
62.9718
62.864
62.7569
62.6506
62.5452
62.4408
62.3375
62.2353
62.1342
62.0344
61.9358
61.8386
61.7427
61.6482
61.5551
61.4633
61.373
61.2841
61.1966
61.1104
61.0257
60.9424
60.8604
60.7797
60.7004
60.6223
60.5455
60.4699
60.3955
60.3222
60.2501
60.1791
60.1091
60.0402
59.9722
59.9053
59.8392
59.7741
59.7099
59.6465
59.584
59.5223
59.4614
59.4013
59.342
59.2835
59.2257
59.1687
59.1125
59.0571
59.0024
58.9485
58.8955
58.8432
58.7918
58.7413
58.6916
58.6428
58.5949
58.548
58.5021
58.4573
58.4134
58.3707
58.3291
58.2886
58.2494
58.2114
58.1747
58.1393
58.1053
58.0727
58.0416
58.012
57.9839
57.9573
57.9324
57.9092
57.8877
57.8679
57.8499
57.8337
57.8194
57.8069
57.7964
57.7879
57.7813
57.7768
57.7743
57.7739
57.7757
57.7795
57.7856
57.7938
57.8043
57.8169
57.8319
57.8491
57.8685
57.8903
57.9144
57.9409
57.9696
58.0008
58.0342
58.0701
58.1083
58.1489
58.1918
58.2371
58.2848
58.3348
58.3872
58.442
58.499
58.5584
58.6201
58.6841
58.7504
58.8189
58.8897
58.9626
59.0377
59.115
59.1943
59.2758
59.3592
59.4447
59.5321
59.6214
59.7125
59.8054
59.9001
59.9964
60.0944
60.194
60.295
60.3974
60.5012
60.6063
60.7126
60.8201
60.9286
61.0381
61.1485
61.2597
61.3716
61.4843
61.5975
61.7111
61.8252
61.9397
62.0544
62.1692
62.2841
62.3991
62.514
62.6287
62.7432
62.8574
62.9713
63.0848
63.1977
63.3101
63.4219
63.533
63.6434
63.753
63.8617
63.9696
64.0766
64.1827
64.2878
64.3918
64.4949
64.5968
64.6977
64.7974
64.8961
64.9936
65.0899
65.1851
65.2791
65.372
65.4637
65.5542
65.6438
65.7314
65.8201
65.9023
65.9959
66.0596
66.1937
67.2037
67.2017
67.1977
67.1915
67.1832
67.1729
67.1605
67.146
67.1294
67.1106
67.0897
67.0667
67.0414
67.014
66.9843
66.9524
66.9183
66.8818
66.8431
66.802
66.7585
66.7127
66.6645
66.6139
66.5609
66.5055
66.4476
66.3873
66.3245
66.2592
66.1916
66.1214
66.0489
65.974
65.8967
65.8171
65.7352
65.651
65.5646
65.4761
65.3856
65.293
65.1985
65.1022
65.0041
64.9044
64.8031
64.7004
64.5964
64.4912
64.385
64.2777
64.1697
64.061
63.9517
63.8419
63.7319
63.6217
63.5114
63.4013
63.2913
63.1816
63.0724
62.9637
62.8557
62.7484
62.642
62.5364
62.4319
62.3284
62.2261
62.1249
62.025
61.9264
61.8291
61.7332
61.6386
61.5454
61.4537
61.3634
61.2744
61.1869
61.1009
61.0162
60.9329
60.8509
60.7703
60.691
60.613
60.5362
60.4607
60.3863
60.3131
60.2411
60.1701
60.1002
60.0313
59.9634
59.8965
59.8305
59.7655
59.7013
59.6379
59.5754
59.5138
59.4529
59.3928
59.3335
59.275
59.2172
59.1602
59.104
59.0485
58.9939
58.94
58.8868
58.8346
58.7831
58.7325
58.6827
58.6339
58.586
58.539
58.4931
58.4481
58.4042
58.3614
58.3197
58.2792
58.2399
58.2018
58.165
58.1295
58.0955
58.0628
58.0316
58.0018
57.9737
57.9471
57.9221
57.8988
57.8772
57.8573
57.8392
57.8229
57.8085
57.796
57.7855
57.7769
57.7702
57.7657
57.7631
57.7627
57.7644
57.7682
57.7742
57.7824
57.7928
57.8054
57.8203
57.8375
57.857
57.8787
57.9028
57.9292
57.958
57.9891
58.0225
58.0584
58.0966
58.1372
58.1801
58.2254
58.2731
58.3232
58.3756
58.4303
58.4874
58.5468
58.6086
58.6726
58.7389
58.8075
58.8783
58.9513
59.0265
59.1038
59.1832
59.2647
59.3483
59.4338
59.5213
59.6107
59.7019
59.795
59.8898
59.9862
60.0843
60.184
60.2852
60.3878
60.4917
60.597
60.7035
60.8111
60.9197
61.0294
61.14
61.2514
61.3635
61.4763
61.5897
61.7036
61.8179
61.9325
62.0474
62.1624
62.2775
62.3927
62.5077
62.6227
62.7374
62.8518
62.9658
63.0794
63.1926
63.3051
63.4171
63.5283
63.6389
63.7486
63.8575
63.9656
64.0727
64.1789
64.2841
64.3883
64.4914
64.5935
64.6944
64.7943
64.893
64.9906
65.087
65.1822
65.2763
65.3692
65.4611
65.5515
65.6413
65.7288
65.8176
65.8998
65.9935
66.0572
66.1914
67.2037
67.2017
67.1977
67.1915
67.1833
67.1729
67.1605
67.1461
67.1294
67.1107
67.0898
67.0668
67.0416
67.0142
66.9845
66.9527
66.9185
66.8821
66.8433
66.8022
66.7588
66.713
66.6648
66.6141
66.5611
66.5056
66.4476
66.3872
66.3243
66.2589
66.1911
66.1209
66.0482
65.9731
65.8956
65.8157
65.7336
65.6491
65.5625
65.4737
65.3828
65.2898
65.195
65.0983
64.9998
64.8997
64.798
64.6949
64.5905
64.4848
64.3781
64.2704
64.1619
64.0528
63.943
63.8328
63.7224
63.6118
63.5011
63.3905
63.2802
63.1702
63.0606
62.9516
62.8433
62.7357
62.629
62.5232
62.4185
62.3148
62.2123
62.111
62.0109
61.9122
61.8148
61.7188
61.6242
61.531
61.4392
61.3489
61.26
61.1725
61.0865
61.0018
60.9186
60.8367
60.7562
60.6769
60.599
60.5223
60.4469
60.3726
60.2995
60.2276
60.1567
60.0869
60.0181
59.9503
59.8834
59.8175
59.7525
59.6884
59.6251
59.5626
59.501
59.4402
59.3801
59.3208
59.2623
59.2045
59.1475
59.0913
59.0358
58.981
58.9271
58.8739
58.8216
58.7701
58.7194
58.6695
58.6206
58.5726
58.5255
58.4795
58.4344
58.3904
58.3475
58.3057
58.265
58.2256
58.1874
58.1505
58.1149
58.0807
58.0479
58.0165
57.9867
57.9584
57.9316
57.9065
57.8831
57.8614
57.8414
57.8232
57.8068
57.7923
57.7797
57.7691
57.7604
57.7537
57.749
57.7464
57.7459
57.7475
57.7512
57.7572
57.7653
57.7756
57.7882
57.8031
57.8202
57.8396
57.8613
57.8854
57.9118
57.9405
57.9716
58.005
58.0409
58.0791
58.1196
58.1626
58.2079
58.2556
58.3057
58.3581
58.4129
58.47
58.5295
58.5913
58.6554
58.7218
58.7904
58.8613
58.9343
59.0096
59.087
59.1666
59.2482
59.3319
59.4175
59.5052
59.5947
59.6861
59.7793
59.8743
59.9709
60.0692
60.1691
60.2705
60.3733
60.4775
60.583
60.6897
60.7975
60.9065
61.0164
61.1272
61.2389
61.3513
61.4644
61.578
61.6922
61.8068
61.9217
62.0369
62.1522
62.2676
62.383
62.4984
62.6136
62.7286
62.8433
62.9576
63.0715
63.1848
63.2977
63.4098
63.5214
63.6321
63.7421
63.8512
63.9595
64.0668
64.1732
64.2786
64.3829
64.4862
64.5884
64.6895
64.7895
64.8884
64.9861
65.0826
65.178
65.2722
65.3652
65.4571
65.5476
65.6374
65.725
65.8138
65.8961
65.9899
66.0536
66.1878
67.2037
67.2017
67.1977
67.1915
67.1833
67.173
67.1606
67.1462
67.1296
67.1109
67.09
67.067
67.0419
67.0145
66.9849
66.953
66.9189
66.8824
66.8437
66.8026
66.7592
66.7133
66.6651
66.6144
66.5613
66.5057
66.4476
66.3871
66.3241
66.2586
66.1906
66.1201
66.0472
65.9719
65.8941
65.8139
65.7315
65.6467
65.5596
65.4704
65.3791
65.2857
65.1904
65.0932
64.9942
64.8935
64.7913
64.6876
64.5826
64.4763
64.369
64.2607
64.1516
64.0418
63.9315
63.8207
63.7097
63.5985
63.4873
63.3762
63.2654
63.1549
63.0449
62.9354
62.8267
62.7187
62.6117
62.5056
62.4005
62.2966
62.1939
62.0924
61.9922
61.8933
61.7958
61.6997
61.605
61.5118
61.42
61.3296
61.2408
61.1533
61.0673
60.9828
60.8996
60.8178
60.7373
60.6582
60.5804
60.5039
60.4285
60.3544
60.2814
60.2096
60.1388
60.0691
60.0005
59.9328
59.866
59.8002
59.7353
59.6712
59.608
59.5456
59.484
59.4232
59.3632
59.3039
59.2454
59.1876
59.1306
59.0743
59.0188
58.964
58.91
58.8568
58.8043
58.7527
58.7019
58.652
58.6029
58.5548
58.5076
58.4614
58.4162
58.372
58.3289
58.287
58.2462
58.2066
58.1682
58.1311
58.0954
58.061
58.028
57.9965
57.9665
57.938
57.9111
57.8859
57.8623
57.8404
57.8203
57.8019
57.7854
57.7708
57.7581
57.7473
57.7384
57.7316
57.7268
57.7241
57.7235
57.725
57.7287
57.7345
57.7425
57.7528
57.7653
57.7801
57.7972
57.8165
57.8382
57.8622
57.8886
57.9173
57.9483
57.9817
58.0176
58.0557
58.0963
58.1393
58.1846
58.2323
58.2824
58.3349
58.3897
58.4469
58.5064
58.5683
58.6324
58.6989
58.7676
58.8386
58.9118
58.9872
59.0647
59.1444
59.2262
59.31
59.3959
59.4837
59.5734
59.665
59.7585
59.8537
59.9506
60.0491
60.1493
60.2509
60.354
60.4585
60.5643
60.6713
60.7795
60.8888
60.9991
61.1103
61.2223
61.3351
61.4485
61.5626
61.6771
61.7921
61.9074
62.0229
62.1386
62.2544
62.3702
62.486
62.6016
62.7169
62.832
62.9466
63.0609
63.1746
63.2878
63.4003
63.5121
63.6232
63.7335
63.8429
63.9514
64.059
64.1657
64.2713
64.3758
64.4794
64.5818
64.6831
64.7832
64.8823
64.9801
65.0768
65.1723
65.2666
65.3597
65.4517
65.5424
65.6323
65.72
65.8089
65.8912
65.985
66.0488
66.1831
67.2037
67.2017
67.1977
67.1916
67.1834
67.1731
67.1607
67.1463
67.1298
67.1111
67.0903
67.0673
67.0422
67.0148
66.9853
66.9534
66.9193
66.8829
66.8442
66.8031
66.7596
66.7138
66.6655
66.6148
66.5616
66.5059
66.4477
66.387
66.3239
66.2582
66.19
66.1193
66.0461
65.9704
65.8923
65.8118
65.7289
65.6436
65.5561
65.4664
65.3745
65.2806
65.1846
65.0868
64.9871
64.8858
64.7828
64.6784
64.5727
64.4657
64.3576
64.2486
64.1387
64.0282
63.9171
63.8056
63.6938
63.5819
63.4701
63.3583
63.2468
63.1357
63.0251
62.9152
62.8059
62.6975
62.59
62.4835
62.3781
62.2738
62.1708
62.0691
61.9687
61.8696
61.772
61.6758
61.581
61.4877
61.3959
61.3056
61.2167
61.1293
61.0434
60.9589
60.8759
60.7942
60.7139
60.6349
60.5572
60.4808
60.4057
60.3317
60.2589
60.1872
60.1166
60.047
59.9785
59.911
59.8443
59.7787
59.7138
59.6499
59.5868
59.5244
59.4629
59.4022
59.3422
59.2829
59.2244
59.1666
59.1096
59.0532
58.9977
58.9428
58.8887
58.8354
58.7829
58.7311
58.6802
58.6301
58.5809
58.5326
58.4853
58.4389
58.3935
58.3492
58.3059
58.2637
58.2227
58.1829
58.1443
58.107
58.0711
58.0365
58.0033
57.9716
57.9413
57.9127
57.8856
57.8601
57.8363
57.8143
57.7939
57.7754
57.7587
57.7439
57.731
57.7201
57.7111
57.7041
57.6992
57.6963
57.6956
57.697
57.7005
57.7062
57.7142
57.7244
57.7368
57.7515
57.7685
57.7877
57.8094
57.8333
57.8596
57.8883
57.9193
57.9527
57.9885
58.0267
58.0672
58.1102
58.1555
58.2033
58.2534
58.3059
58.3608
58.418
58.4776
58.5395
58.6038
58.6704
58.7392
58.8103
58.8836
58.9592
59.0369
59.1168
59.1987
59.2828
59.3688
59.4569
59.5469
59.6387
59.7324
59.8279
59.9251
60.024
60.1245
60.2265
60.33
60.4348
60.541
60.6484
60.757
60.8667
60.9774
61.0891
61.2016
61.3148
61.4287
61.5432
61.6582
61.7737
61.8895
62.0055
62.1217
62.238
62.3543
62.4705
62.5865
62.7024
62.8179
62.933
63.0477
63.1618
63.2754
63.3884
63.5006
63.612
63.7227
63.8325
63.9414
64.0493
64.1563
64.2622
64.367
64.4708
64.5735
64.675
64.7754
64.8747
64.9727
65.0696
65.1653
65.2597
65.353
65.4451
65.5359
65.6259
65.7137
65.8027
65.8851
65.979
66.0428
66.1773
67.2037
67.2017
67.1977
67.1916
67.1834
67.1732
67.1609
67.1465
67.13
67.1113
67.0906
67.0677
67.0426
67.0153
66.9857
66.954
66.9199
66.8835
66.8448
66.8037
66.7602
66.7144
66.666
66.6152
66.562
66.5062
66.4479
66.3871
66.3237
66.2578
66.1893
66.1183
66.0448
65.9688
65.8902
65.8093
65.7259
65.6401
65.552
65.4617
65.3691
65.2745
65.1778
65.0792
64.9788
64.8766
64.7728
64.6675
64.5609
64.453
64.344
64.234
64.1233
64.0118
63.8998
63.7874
63.6748
63.562
63.4493
63.3368
63.2245
63.1127
63.0014
62.8908
62.7809
62.672
62.5639
62.457
62.3511
62.2465
62.1431
62.0411
61.9404
61.8412
61.7434
61.647
61.5522
61.4588
61.367
61.2767
61.1879
61.1006
61.0147
60.9304
60.8474
60.7659
60.6857
60.6069
60.5295
60.4532
60.3783
60.3045
60.2319
60.1604
60.09
60.0206
59.9523
59.8849
59.8184
59.7529
59.6882
59.6244
59.5614
59.4991
59.4377
59.377
59.3171
59.2578
59.1993
59.1415
59.0845
59.0281
58.9724
58.9175
58.8633
58.8099
58.7572
58.7054
58.6543
58.604
58.5547
58.5062
58.4586
58.412
58.3664
58.3218
58.2783
58.2359
58.1947
58.1546
58.1158
58.0782
58.042
58.0072
57.9737
57.9418
57.9113
57.8824
57.855
57.8293
57.8053
57.783
57.7625
57.7437
57.7268
57.7118
57.6987
57.6875
57.6784
57.6712
57.6661
57.6631
57.6622
57.6634
57.6668
57.6724
57.6803
57.6903
57.7026
57.7172
57.7341
57.7533
57.7748
57.7987
57.825
57.8536
57.8846
57.9179
57.9537
57.9919
58.0324
58.0754
58.1207
58.1685
58.2187
58.2712
58.3262
58.3835
58.4431
58.5052
58.5695
58.6362
58.7052
58.7764
58.8499
58.9256
59.0036
59.0836
59.1658
59.2501
59.3364
59.4248
59.515
59.6072
59.7013
59.7971
59.8947
59.9939
60.0948
60.1972
60.3011
60.4065
60.5131
60.621
60.7301
60.8403
60.9515
61.0637
61.1767
61.2905
61.405
61.5201
61.6357
61.7517
61.868
61.9847
62.1014
62.2183
62.3352
62.452
62.5686
62.685
62.801
62.9167
63.0319
63.1466
63.2607
63.3741
63.4868
63.5988
63.7099
63.8201
63.9294
64.0377
64.145
64.2513
64.3565
64.4606
64.5636
64.6655
64.7661
64.8656
64.9639
65.061
65.1569
65.2515
65.345
65.4373
65.5282
65.6183
65.7063
65.7953
65.8779
65.9719
66.0357
66.1703
67.2037
67.2017
67.1977
67.1917
67.1835
67.1733
67.161
67.1467
67.1302
67.1117
67.091
67.0681
67.0431
67.0158
66.9864
66.9546
66.9206
66.8843
66.8456
66.8045
66.761
66.7151
66.6667
66.6159
66.5625
66.5066
66.4482
66.3872
66.3236
66.2574
66.1887
66.1173
66.0434
65.967
65.888
65.8065
65.7225
65.6361
65.5473
65.4563
65.363
65.2675
65.17
65.0705
64.9691
64.8659
64.7611
64.6548
64.5471
64.4382
64.3281
64.2171
64.1052
63.9927
63.8796
63.7662
63.6525
63.5388
63.4251
63.3116
63.1985
63.0858
62.9737
62.8623
62.7518
62.6421
62.5335
62.426
62.3196
62.2146
62.1108
62.0084
61.9075
61.808
61.71
61.6135
61.5186
61.4252
61.3333
61.243
61.1543
61.067
60.9813
60.8971
60.8143
60.7329
60.653
60.5744
60.4971
60.4212
60.3464
60.2729
60.2005
60.1293
60.0591
59.9899
59.9218
59.8546
59.7884
59.723
59.6585
59.5948
59.5319
59.4698
59.4084
59.3478
59.2879
59.2287
59.1702
59.1124
59.0553
58.9989
58.9432
58.8882
58.8339
58.7803
58.7275
58.6755
58.6242
58.5738
58.5242
58.4755
58.4277
58.3808
58.335
58.2901
58.2463
58.2037
58.1621
58.1218
58.0827
58.0448
58.0083
57.9732
57.9394
57.9072
57.8764
57.8472
57.8196
57.7936
57.7693
57.7467
57.7259
57.7069
57.6897
57.6745
57.6611
57.6498
57.6404
57.633
57.6277
57.6245
57.6234
57.6245
57.6277
57.6332
57.6408
57.6507
57.6629
57.6774
57.6942
57.7133
57.7347
57.7585
57.7847
57.8133
57.8442
57.8775
57.9133
57.9514
57.9919
58.0349
58.0803
58.1281
58.1783
58.2309
58.2859
58.3433
58.403
58.4652
58.5296
58.5965
58.6656
58.737
58.8107
58.8866
58.9648
59.0451
59.1275
59.2121
59.2987
59.3874
59.478
59.5705
59.665
59.7612
59.8592
59.9589
60.0603
60.1632
60.2676
60.3734
60.4806
60.5891
60.6988
60.8095
60.9214
61.0342
61.1478
61.2623
61.3774
61.4931
61.6094
61.7261
61.8431
61.9604
62.0779
62.1954
62.313
62.4304
62.5477
62.6647
62.7815
62.8978
63.0136
63.1289
63.2436
63.3576
63.4709
63.5833
63.695
63.8057
63.9155
64.0243
64.1321
64.2388
64.3444
64.4489
64.5522
64.6544
64.7554
64.8551
64.9537
65.051
65.1471
65.242
65.3357
65.4281
65.5192
65.6095
65.6976
65.7868
65.8694
65.9635
66.0275
66.1621
67.2037
67.2017
67.1978
67.1917
67.1836
67.1734
67.1612
67.1469
67.1305
67.112
67.0914
67.0686
67.0437
67.0165
66.9871
66.9554
66.9215
66.8852
66.8465
66.8055
66.762
66.7161
66.6677
66.6167
66.5633
66.5072
66.4486
66.3874
66.3236
66.2571
66.1881
66.1163
66.042
65.965
65.8855
65.8034
65.7188
65.6317
65.5422
65.4503
65.3561
65.2597
65.1612
65.0606
64.9581
64.8539
64.7479
64.6404
64.5315
64.4213
64.31
64.1977
64.0846
63.9709
63.8566
63.7419
63.6271
63.5122
63.3974
63.2828
63.1686
63.055
62.9419
62.8297
62.7183
62.6079
62.4986
62.3905
62.2836
62.178
62.0738
61.971
61.8698
61.77
61.6718
61.5752
61.4801
61.3867
61.2948
61.2046
61.1159
61.0288
60.9432
60.8591
60.7765
60.6954
60.6157
60.5373
60.4603
60.3846
60.3102
60.2369
60.1648
60.0938
60.0239
59.955
59.8872
59.8202
59.7542
59.689
59.6247
59.5612
59.4985
59.4365
59.3752
59.3147
59.2549
59.1957
59.1372
59.0794
59.0223
58.9658
58.91
58.8549
58.8005
58.7468
58.6938
58.6416
58.5901
58.5394
58.4896
58.4407
58.3926
58.3455
58.2993
58.2541
58.21
58.167
58.1252
58.0845
58.045
58.0069
57.97
57.9345
57.9004
57.8678
57.8367
57.8072
57.7792
57.7529
57.7283
57.7054
57.6843
57.665
57.6476
57.632
57.6184
57.6068
57.5972
57.5896
57.584
57.5806
57.5793
57.5802
57.5832
57.5885
57.596
57.6057
57.6178
57.6321
57.6488
57.6678
57.6891
57.7128
57.7389
57.7674
57.7983
57.8315
57.8672
57.9054
57.9459
57.9889
58.0343
58.0821
58.1323
58.185
58.24
58.2975
58.3574
58.4196
58.4842
58.5512
58.6205
58.6921
58.766
58.8422
58.9205
59.0011
59.0839
59.1688
59.2557
59.3447
59.4358
59.5287
59.6236
59.7203
59.8188
59.919
60.0209
60.1243
60.2293
60.3357
60.4436
60.5527
60.663
60.7745
60.887
61.0005
61.1149
61.23
61.3459
61.4624
61.5795
61.6969
61.8147
61.9328
62.051
62.1694
62.2877
62.4059
62.5239
62.6417
62.7592
62.8762
62.9928
63.1088
63.2241
63.3388
63.4527
63.5658
63.6781
63.7894
63.8997
64.009
64.1173
64.2245
64.3306
64.4355
64.5393
64.6418
64.7431
64.8433
64.9421
65.0398
65.1361
65.2313
65.3251
65.4178
65.5091
65.5995
65.6878
65.7771
65.8599
65.9541
66.0181
66.1529
67.2037
67.2018
67.1978
67.1918
67.1837
67.1736
67.1614
67.1472
67.1309
67.1125
67.0919
67.0693
67.0444
67.0173
66.988
66.9564
66.9225
66.8863
66.8476
66.8066
66.7632
66.7172
66.6688
66.6178
66.5642
66.5081
66.4493
66.3879
66.3238
66.257
66.1876
66.1154
66.0406
65.9631
65.883
65.8002
65.7148
65.6269
65.5365
65.4437
65.3485
65.2511
65.1514
65.0497
64.946
64.8405
64.7332
64.6244
64.5141
64.4025
64.2897
64.176
64.0615
63.9463
63.8306
63.7146
63.5984
63.4822
63.3661
63.2503
63.135
63.0202
62.9061
62.7929
62.6806
62.5694
62.4593
62.3504
62.2429
62.1368
62.0321
61.9289
61.8273
61.7272
61.6288
61.532
61.4369
61.3434
61.2515
61.1613
61.0727
60.9858
60.9003
60.8165
60.7341
60.6533
60.5738
60.4958
60.4191
60.3437
60.2695
60.1966
60.1248
60.0542
59.9846
59.916
59.8484
59.7818
59.716
59.6511
59.587
59.5237
59.4611
59.3993
59.3382
59.2778
59.218
59.1589
59.1004
59.0426
58.9854
58.9289
58.873
58.8178
58.7632
58.7094
58.6562
58.6037
58.552
58.5011
58.451
58.4018
58.3534
58.306
58.2595
58.214
58.1695
58.1261
58.0839
58.0428
58.003
57.9644
57.9272
57.8913
57.8569
57.8239
57.7924
57.7625
57.7341
57.7075
57.6825
57.6593
57.6378
57.6182
57.6004
57.5846
57.5707
57.5587
57.5488
57.541
57.5352
57.5315
57.53
57.5306
57.5334
57.5385
57.5458
57.5554
57.5673
57.5815
57.598
57.6168
57.6381
57.6617
57.6877
57.7161
57.7469
57.7801
57.8157
57.8538
57.8943
57.9373
57.9827
58.0306
58.0808
58.1335
58.1887
58.2463
58.3062
58.3686
58.4334
58.5005
58.57
58.6418
58.7159
58.7923
58.871
58.9519
59.035
59.1202
59.2075
59.297
59.3884
59.4818
59.5772
59.6744
59.7734
59.8742
59.9766
60.0807
60.1864
60.2935
60.402
60.5118
60.6229
60.7351
60.8484
60.9627
61.0779
61.1939
61.3106
61.428
61.5459
61.6642
61.7829
61.9019
62.021
62.1402
62.2594
62.3784
62.4974
62.616
62.7343
62.8521
62.9695
63.0863
63.2024
63.3178
63.4325
63.5463
63.6592
63.7712
63.8821
63.9921
64.1009
64.2086
64.3152
64.4206
64.5248
64.6278
64.7296
64.8301
64.9293
65.0272
65.1239
65.2193
65.3134
65.4063
65.4978
65.5884
65.6768
65.7663
65.8492
65.9436
66.0077
66.1426
67.2037
67.2018
67.1978
67.1918
67.1838
67.1738
67.1617
67.1475
67.1313
67.113
67.0926
67.07
67.0452
67.0182
66.989
66.9575
66.9237
66.8876
66.849
66.808
66.7646
66.7187
66.6702
66.6192
66.5655
66.5092
66.4502
66.3886
66.3242
66.2571
66.1873
66.1147
66.0393
65.9612
65.8804
65.7969
65.7107
65.6219
65.5305
65.4367
65.3404
65.2417
65.1408
65.0378
64.9327
64.8257
64.717
64.6066
64.4948
64.3816
64.2673
64.152
64.0358
63.919
63.8018
63.6842
63.5665
63.4488
63.3313
63.2141
63.0975
62.9815
62.8662
62.7519
62.6386
62.5264
62.4154
62.3058
62.1976
62.0908
61.9856
61.882
61.78
61.6797
61.581
61.4841
61.3888
61.2953
61.2035
61.1133
61.0249
60.9381
60.8529
60.7692
60.6872
60.6066
60.5275
60.4498
60.3735
60.2984
60.2247
60.1521
60.0807
60.0104
59.9412
59.873
59.8057
59.7394
59.6739
59.6093
59.5455
59.4824
59.42
59.3584
59.2974
59.2371
59.1774
59.1184
59.06
59.0021
58.9449
58.8883
58.8323
58.777
58.7223
58.6682
58.6148
58.5621
58.5102
58.459
58.4086
58.359
58.3103
58.2625
58.2156
58.1697
58.1249
58.0811
58.0384
57.9969
57.9567
57.9177
57.88
57.8437
57.8088
57.7754
57.7435
57.7132
57.6844
57.6574
57.632
57.6084
57.5865
57.5665
57.5484
57.5322
57.518
57.5057
57.4955
57.4873
57.4812
57.4773
57.4755
57.4759
57.4785
57.4833
57.4904
57.4998
57.5115
57.5255
57.5419
57.5606
57.5817
57.6052
57.6311
57.6594
57.6901
57.7233
57.7589
57.7969
57.8374
57.8804
57.9258
57.9736
58.024
58.0767
58.1319
58.1896
58.2497
58.3122
58.3771
58.4444
58.5141
58.5862
58.6605
58.7372
58.8162
58.8974
58.9808
59.0664
59.1542
59.2441
59.336
59.4299
59.5258
59.6236
59.7232
59.8246
59.9277
60.0325
60.1388
60.2467
60.3559
60.4666
60.5785
60.6915
60.8057
60.9209
61.037
61.1539
61.2716
61.3899
61.5087
61.628
61.7477
61.8676
61.9877
62.1079
62.2281
62.3481
62.468
62.5876
62.7068
62.8256
62.9438
63.0615
63.1785
63.2947
63.4102
63.5248
63.6384
63.7511
63.8628
63.9734
64.0829
64.1912
64.2984
64.4043
64.509
64.6125
64.7147
64.8156
64.9152
65.0135
65.1105
65.2062
65.3005
65.3937
65.4854
65.5762
65.6648
65.7545
65.8375
65.932
65.9962
66.1313
67.2037
67.2018
67.1979
67.1919
67.184
67.174
67.162
67.1479
67.1318
67.1136
67.0933
67.0708
67.0462
67.0193
66.9902
66.9589
66.9252
66.8891
66.8506
66.8097
66.7663
66.7204
66.6719
66.6208
66.5671
66.5107
66.4515
66.3896
66.325
66.2575
66.1872
66.1141
66.0382
65.9595
65.8779
65.7936
65.7065
65.6167
65.5243
65.4293
65.3317
65.2318
65.1295
65.025
64.9184
64.8098
64.6994
64.5873
64.4737
64.3588
64.2427
64.1256
64.0076
63.8891
63.77
63.6507
63.5313
63.412
63.2929
63.1742
63.0561
62.9387
62.8222
62.7066
62.5922
62.479
62.3671
62.2566
62.1476
62.0402
61.9344
61.8303
61.7279
61.6273
61.5284
61.4313
61.336
61.2424
61.1506
61.0606
60.9723
60.8857
60.8007
60.7174
60.6357
60.5555
60.4767
60.3994
60.3235
60.2489
60.1756
60.1035
60.0325
59.9627
59.8939
59.826
59.7592
59.6932
59.6281
59.5638
59.5002
59.4374
59.3753
59.3139
59.2531
59.1929
59.1333
59.0743
59.0159
58.9581
58.9009
58.8442
58.7881
58.7326
58.6777
58.6234
58.5698
58.5169
58.4646
58.4131
58.3624
58.3124
58.2634
58.2151
58.1679
58.1215
58.0762
58.032
57.9889
57.947
57.9062
57.8668
57.8286
57.7918
57.7565
57.7226
57.6902
57.6594
57.6302
57.6027
57.5769
57.5529
57.5306
57.5102
57.4917
57.4751
57.4605
57.4479
57.4373
57.4288
57.4224
57.4182
57.4161
57.4162
57.4185
57.4231
57.43
57.4392
57.4507
57.4645
57.4807
57.4992
57.5202
57.5435
57.5693
57.5975
57.6281
57.6612
57.6967
57.7347
57.7752
57.8181
57.8636
57.9114
57.9618
58.0146
58.0699
58.1277
58.1879
58.2505
58.3156
58.3831
58.453
58.5253
58.5999
58.6769
58.7562
58.8377
58.9216
59.0076
59.0958
59.1861
59.2786
59.373
59.4695
59.5679
59.6681
59.7702
59.8741
59.9796
60.0867
60.1954
60.3055
60.417
60.5298
60.6438
60.7589
60.8751
60.9922
61.1101
61.2288
61.3481
61.4681
61.5884
61.7092
61.8302
61.9514
62.0726
62.1938
62.315
62.4359
62.5565
62.6768
62.7966
62.9158
63.0344
63.1524
63.2696
63.3859
63.5013
63.6158
63.7293
63.8418
63.9531
64.0633
64.1723
64.28
64.3866
64.4918
64.5958
64.6985
64.7998
64.8998
64.9985
65.0959
65.1919
65.2866
65.38
65.4719
65.563
65.6517
65.7416
65.8248
65.9194
65.9837
66.1189
67.2037
67.2018
67.1979
67.192
67.1841
67.1742
67.1623
67.1484
67.1324
67.1143
67.0941
67.0718
67.0473
67.0206
66.9917
66.9604
66.9269
66.8909
66.8526
66.8118
66.7684
66.7225
66.6741
66.6229
66.5691
66.5125
66.4532
66.3911
66.3261
66.2582
66.1875
66.1139
66.0374
65.9579
65.8756
65.7904
65.7023
65.6115
65.5179
65.4216
65.3227
65.2213
65.1174
65.0113
64.903
64.7927
64.6804
64.5665
64.451
64.3341
64.216
64.0969
63.9769
63.8564
63.7354
63.6142
63.4929
63.3718
63.2509
63.1305
63.0108
62.8919
62.774
62.6571
62.5414
62.4271
62.3142
62.2028
62.093
61.9849
61.8785
61.7738
61.671
61.5701
61.4709
61.3737
61.2783
61.1847
61.093
61.0032
60.9151
60.8287
60.7441
60.6611
60.5797
60.4999
60.4217
60.3448
60.2694
60.1953
60.1225
60.0508
59.9804
59.911
59.8427
59.7753
59.7089
59.6433
59.5786
59.5147
59.4514
59.3889
59.3271
59.2659
59.2053
59.1453
59.0858
59.0269
58.9686
58.9107
58.8534
58.7967
58.7405
58.6848
58.6297
58.5753
58.5214
58.4682
58.4156
58.3637
58.3126
58.2623
58.2128
58.1641
58.1164
58.0696
58.0238
57.9791
57.9355
57.893
57.8518
57.8118
57.7731
57.7358
57.7
57.6656
57.6327
57.6014
57.5717
57.5437
57.5174
57.4929
57.4702
57.4493
57.4304
57.4134
57.3984
57.3853
57.3744
57.3655
57.3588
57.3542
57.3518
57.3517
57.3537
57.358
57.3647
57.3736
57.3849
57.3985
57.4145
57.4328
57.4536
57.4768
57.5025
57.5305
57.5611
57.5941
57.6295
57.6675
57.7079
57.7508
57.7962
57.8441
57.8945
57.9474
58.0028
58.0606
58.1209
58.1837
58.249
58.3167
58.3868
58.4593
58.5342
58.6115
58.6911
58.7731
58.8573
58.9438
59.0324
59.1233
59.2163
59.3113
59.4084
59.5074
59.6084
59.7112
59.8158
59.9221
60.0301
60.1396
60.2507
60.3631
60.4769
60.5919
60.7081
60.8253
60.9435
61.0625
61.1824
61.3029
61.4239
61.5455
61.6674
61.7896
61.9119
62.0344
62.1568
62.2791
62.4011
62.5229
62.6443
62.7652
62.8855
63.0052
63.1242
63.2424
63.3597
63.4761
63.5915
63.7058
63.8191
63.9312
64.0422
64.1519
64.2603
64.3675
64.4734
64.5779
64.6811
64.7829
64.8834
64.9825
65.0802
65.1766
65.2715
65.3652
65.4574
65.5487
65.6377
65.7277
65.811
65.9058
65.9702
66.1056
67.2037
67.2018
67.198
67.1921
67.1843
67.1745
67.1627
67.1489
67.133
67.1151
67.0951
67.0729
67.0486
67.0221
66.9933
66.9623
66.9288
66.8931
66.8548
66.8141
66.7709
66.7251
66.6766
66.6254
66.5716
66.5149
66.4554
66.393
66.3277
66.2595
66.1883
66.1141
66.0369
65.9567
65.8736
65.7874
65.6983
65.6063
65.5114
65.4137
65.3134
65.2103
65.1048
64.9969
64.8867
64.7744
64.6602
64.5442
64.4265
64.3075
64.1872
64.0659
63.9438
63.821
63.6979
63.5745
63.4512
63.3281
63.2053
63.0831
62.9616
62.841
62.7215
62.6032
62.4862
62.3707
62.2566
62.1443
62.0336
61.9247
61.8177
61.7125
61.6093
61.508
61.4087
61.3113
61.2158
61.1223
61.0308
60.9411
60.8532
60.7672
60.6829
60.6003
60.5194
60.4401
60.3623
60.286
60.2111
60.1376
60.0653
59.9943
59.9244
59.8556
59.7878
59.7209
59.655
59.5899
59.5256
59.4621
59.3993
59.3371
59.2756
59.2146
59.1543
59.0944
59.0351
58.9763
58.918
58.8602
58.8028
58.746
58.6897
58.6339
58.5786
58.5239
58.4697
58.4162
58.3633
58.311
58.2595
58.2087
58.1588
58.1097
58.0614
58.0141
57.9678
57.9226
57.8784
57.8354
57.7936
57.753
57.7138
57.6759
57.6395
57.6045
57.5711
57.5392
57.509
57.4804
57.4536
57.4286
57.4054
57.3841
57.3647
57.3472
57.3318
57.3184
57.307
57.2978
57.2907
57.2857
57.283
57.2825
57.2842
57.2883
57.2946
57.3033
57.3143
57.3277
57.3435
57.3617
57.3823
57.4053
57.4308
57.4588
57.4892
57.5221
57.5575
57.5953
57.6357
57.6786
57.724
57.7719
57.8223
57.8753
57.9307
57.9886
58.0491
58.112
58.1774
58.2453
58.3157
58.3884
58.4636
58.5412
58.6212
58.7035
58.7882
58.8751
58.9643
59.0557
59.1492
59.2449
59.3426
59.4424
59.5441
59.6477
59.7531
59.8603
59.9692
60.0796
60.1917
60.3051
60.42
60.5361
60.6533
60.7717
60.8911
61.0113
61.1324
61.2541
61.3764
61.4992
61.6224
61.7459
61.8695
61.9932
62.1169
62.2405
62.3638
62.4868
62.6094
62.7315
62.8531
62.9739
63.094
63.2133
63.3317
63.4491
63.5654
63.6808
63.7949
63.9079
64.0197
64.1301
64.2393
64.3472
64.4537
64.5588
64.6626
64.7649
64.8659
64.9654
65.0635
65.1602
65.2555
65.3495
65.442
65.5335
65.6227
65.7128
65.7963
65.8913
65.9558
66.0913
67.2037
67.2018
67.1981
67.1923
67.1845
67.1748
67.1632
67.1495
67.1338
67.116
67.0962
67.0742
67.0501
67.0238
66.9952
66.9644
66.9311
66.8955
66.8575
66.8169
66.7738
66.7281
66.6796
66.6285
66.5746
66.5178
66.4581
66.3955
66.3299
66.2613
66.1896
66.1149
66.037
65.956
65.872
65.7848
65.6946
65.6013
65.505
65.4059
65.3039
65.1991
65.0918
64.9819
64.8697
64.7552
64.6388
64.5205
64.4005
64.279
64.1564
64.0326
63.9081
63.783
63.6575
63.5318
63.4062
63.2809
63.156
63.0318
62.9084
62.786
62.6648
62.545
62.4265
62.3097
62.1945
62.081
61.9695
61.8598
61.7521
61.6464
61.5427
61.4411
61.3416
61.2441
61.1486
61.0552
60.9638
60.8743
60.7868
60.7011
60.6173
60.5352
60.4548
60.3761
60.2989
60.2232
60.1489
60.076
60.0044
59.934
59.8647
59.7965
59.7293
59.6631
59.5977
59.5332
59.4694
59.4063
59.3439