/*--------------------------------*- C++ -*----------------------------------*\
| =========                 |                                                 |
| \\      /  F ield         | OpenFOAM: The Open Source CFD Toolbox           |
|  \\    /   O peration     | Version:  2306                                  |
|   \\  /    A nd           | Website:  www.openfoam.com                      |
|    \\/     M anipulation  |                                                 |
\*---------------------------------------------------------------------------*/
FoamFile
{
    version     2.0;
    format      ascii;
    arch        "LSB;label=32;scalar=64";
    class       volScalarField;
    location    "11";
    object      p;
}
// * * * * * * * * * * * * * * * * * * * * * * * * * * * * * * * * * * * * * //

dimensions      [0 2 -2 0 0 0 0];

internalField   nonuniform List<scalar> 
32768
(
0.291864
0.291731
0.291441
0.290985
0.290364
0.289579
0.288631
0.287517
0.286236
0.284786
0.283165
0.281371
0.279401
0.277253
0.274925
0.272412
0.269714
0.266825
0.263744
0.260466
0.25699
0.25331
0.249424
0.245329
0.24102
0.236496
0.231752
0.226787
0.221596
0.216178
0.210529
0.20465
0.198536
0.192188
0.185604
0.178784
0.171728
0.164437
0.156912
0.149155
0.141168
0.132954
0.124518
0.115863
0.106995
0.0979199
0.0886441
0.0791751
0.0695208
0.0596898
0.0496914
0.0395353
0.029232
0.0187924
0.00822759
-0.00245065
-0.0132304
-0.0240994
-0.0350454
-0.0460559
-0.0571184
-0.0682205
-0.0793498
-0.0904943
-0.101642
-0.112782
-0.123902
-0.134991
-0.146041
-0.15704
-0.16798
-0.178851
-0.189647
-0.200359
-0.210982
-0.221508
-0.231933
-0.242253
-0.252461
-0.262557
-0.272536
-0.282397
-0.292137
-0.301757
-0.311254
-0.32063
-0.329885
-0.339019
-0.348033
-0.356929
-0.365709
-0.374375
-0.382928
-0.391371
-0.399707
-0.407937
-0.416066
-0.424094
-0.432024
-0.43986
-0.447603
-0.455255
-0.462818
-0.470295
-0.477686
-0.484994
-0.492218
-0.499361
-0.506422
-0.513402
-0.5203
-0.527117
-0.533852
-0.540503
-0.54707
-0.55355
-0.559942
-0.566243
-0.572451
-0.578564
-0.584577
-0.590487
-0.596292
-0.601986
-0.607566
-0.613028
-0.618367
-0.623578
-0.628657
-0.633599
-0.638399
-0.64305
-0.64755
-0.651891
-0.65607
-0.66008
-0.663917
-0.667575
-0.671049
-0.674334
-0.677425
-0.680317
-0.683006
-0.685486
-0.687754
-0.689804
-0.691633
-0.693237
-0.694612
-0.695754
-0.69666
-0.697326
-0.697751
-0.697931
-0.697863
-0.697546
-0.696977
-0.696155
-0.695079
-0.693746
-0.692157
-0.690309
-0.688204
-0.685841
-0.68322
-0.680341
-0.677205
-0.673814
-0.670167
-0.666268
-0.662117
-0.657716
-0.653069
-0.648178
-0.643045
-0.637674
-0.632069
-0.626233
-0.620171
-0.613886
-0.607384
-0.600669
-0.593748
-0.586625
-0.579306
-0.571798
-0.564106
-0.556238
-0.548201
-0.540001
-0.531647
-0.523145
-0.514504
-0.505732
-0.496837
-0.487827
-0.478711
-0.469498
-0.460197
-0.450817
-0.441366
-0.431853
-0.422288
-0.412681
-0.403038
-0.393371
-0.383687
-0.373996
-0.364306
-0.354626
-0.344964
-0.335327
-0.325725
-0.316165
-0.306653
-0.297198
-0.287806
-0.278483
-0.269235
-0.260069
-0.250989
-0.242002
-0.23311
-0.224319
-0.215633
-0.207054
-0.198587
-0.190234
-0.181997
-0.173878
-0.165879
-0.158001
-0.150245
-0.142612
-0.135101
-0.127714
-0.120449
-0.113305
-0.106283
-0.0993813
-0.0925978
-0.0859315
-0.0793806
-0.0729432
-0.0666174
-0.060401
-0.0542914
-0.0482875
-0.0423838
-0.0365849
-0.0308721
-0.0252802
-0.0197193
-0.0143877
-0.00879022
-0.00394388
0.292024
0.291892
0.291603
0.291147
0.290526
0.289742
0.288794
0.287682
0.286402
0.284952
0.283332
0.281539
0.27957
0.277424
0.275096
0.272585
0.269888
0.267001
0.26392
0.260644
0.257168
0.253489
0.249604
0.245508
0.2412
0.236676
0.231932
0.226965
0.221773
0.216353
0.210703
0.204821
0.198704
0.192353
0.185765
0.17894
0.171879
0.164583
0.157051
0.149287
0.141292
0.133071
0.124625
0.115961
0.107083
0.0979977
0.0887111
0.0792307
0.0695647
0.0597216
0.0497107
0.039542
0.029226
0.0187734
0.00819566
-0.00249548
-0.013288
-0.0241697
-0.0351281
-0.0461507
-0.0572249
-0.0683383
-0.0794785
-0.0906333
-0.101791
-0.112939
-0.124068
-0.135166
-0.146222
-0.157228
-0.168173
-0.17905
-0.18985
-0.200566
-0.211191
-0.22172
-0.232146
-0.242466
-0.252676
-0.262771
-0.272749
-0.282608
-0.292347
-0.301964
-0.311459
-0.320832
-0.330083
-0.339214
-0.348224
-0.357116
-0.365892
-0.374553
-0.383102
-0.391541
-0.399872
-0.408099
-0.416223
-0.424247
-0.432174
-0.440005
-0.447744
-0.455393
-0.462954
-0.470427
-0.477816
-0.485121
-0.492344
-0.499485
-0.506544
-0.513523
-0.520421
-0.527238
-0.533972
-0.540624
-0.547191
-0.553672
-0.560065
-0.566368
-0.572578
-0.578692
-0.584708
-0.590621
-0.596428
-0.602125
-0.607709
-0.613174
-0.618516
-0.623731
-0.628814
-0.63376
-0.638563
-0.643219
-0.647722
-0.652068
-0.65625
-0.660265
-0.664106
-0.667768
-0.671246
-0.674535
-0.67763
-0.680526
-0.683218
-0.685702
-0.687973
-0.690027
-0.69186
-0.693467
-0.694845
-0.69599
-0.696899
-0.697568
-0.697996
-0.698178
-0.698113
-0.697798
-0.697231
-0.696411
-0.695337
-0.694006
-0.692418
-0.690572
-0.688469
-0.686107
-0.683487
-0.680609
-0.677474
-0.674083
-0.670437
-0.666538
-0.662387
-0.657987
-0.65334
-0.648448
-0.643315
-0.637944
-0.632338
-0.626501
-0.620437
-0.614151
-0.607648
-0.600932
-0.594008
-0.586883
-0.579562
-0.572051
-0.564357
-0.556487
-0.548446
-0.540243
-0.531885
-0.52338
-0.514734
-0.505958
-0.497058
-0.488044
-0.478923
-0.469706
-0.460399
-0.451013
-0.441556
-0.432038
-0.422468
-0.412854
-0.403206
-0.393532
-0.383842
-0.374145
-0.364448
-0.354762
-0.345093
-0.33545
-0.325842
-0.316275
-0.306757
-0.297296
-0.287897
-0.278568
-0.269315
-0.260143
-0.251058
-0.242065
-0.233168
-0.224372
-0.215681
-0.207098
-0.198626
-0.190269
-0.182028
-0.173905
-0.165903
-0.158022
-0.150263
-0.142627
-0.135114
-0.127724
-0.120457
-0.113312
-0.106289
-0.0993853
-0.0926007
-0.0859334
-0.0793816
-0.0729436
-0.0666172
-0.0604004
-0.0542905
-0.0482864
-0.0423826
-0.0365838
-0.0308706
-0.0252796
-0.0197162
-0.0143888
-0.00877856
-0.00396154
0.292346
0.292214
0.291925
0.29147
0.29085
0.290068
0.289122
0.28801
0.286732
0.285285
0.283667
0.281876
0.27991
0.277766
0.275441
0.272932
0.270237
0.267352
0.264274
0.260999
0.257525
0.253848
0.249963
0.245869
0.241561
0.237036
0.232291
0.227323
0.222129
0.216706
0.211051
0.205164
0.199042
0.192683
0.186087
0.179254
0.172183
0.164874
0.15733
0.149552
0.141542
0.133304
0.124841
0.116158
0.10726
0.098154
0.0888455
0.0793423
0.0696527
0.0597852
0.0497495
0.0395555
0.0292137
0.0187352
0.00813148
-0.00258559
-0.0134039
-0.0243109
-0.0352942
-0.0463411
-0.0574389
-0.0685749
-0.0797369
-0.0909124
-0.102089
-0.113256
-0.124402
-0.135515
-0.146586
-0.157605
-0.168561
-0.179448
-0.190257
-0.20098
-0.211611
-0.222144
-0.232574
-0.242896
-0.253105
-0.2632
-0.273176
-0.283033
-0.292768
-0.302381
-0.31187
-0.321237
-0.330481
-0.339604
-0.348607
-0.357491
-0.366259
-0.374911
-0.383451
-0.391881
-0.400204
-0.408422
-0.416537
-0.424553
-0.432472
-0.440296
-0.448028
-0.45567
-0.463224
-0.470692
-0.478076
-0.485376
-0.492595
-0.499732
-0.50679
-0.513766
-0.520663
-0.527479
-0.534213
-0.540865
-0.547434
-0.553916
-0.560312
-0.566618
-0.572831
-0.57895
-0.58497
-0.590888
-0.596701
-0.602404
-0.607994
-0.613466
-0.618815
-0.624037
-0.629128
-0.634081
-0.638892
-0.643556
-0.648067
-0.652421
-0.656612
-0.660635
-0.664484
-0.668154
-0.67164
-0.674937
-0.67804
-0.680944
-0.683644
-0.686135
-0.688414
-0.690474
-0.692314
-0.693927
-0.695312
-0.696463
-0.697378
-0.698053
-0.698486
-0.698673
-0.698613
-0.698303
-0.697741
-0.696925
-0.695854
-0.694526
-0.692942
-0.691099
-0.688998
-0.686639
-0.684021
-0.681145
-0.678012
-0.674622
-0.670977
-0.667079
-0.662929
-0.658529
-0.653882
-0.64899
-0.643856
-0.638483
-0.632876
-0.627037
-0.620972
-0.614683
-0.608177
-0.601458
-0.594531
-0.587401
-0.580076
-0.57256
-0.564861
-0.556984
-0.548937
-0.540728
-0.532362
-0.523849
-0.515196
-0.506411
-0.497503
-0.488479
-0.479349
-0.470121
-0.460804
-0.451407
-0.441939
-0.43241
-0.422827
-0.413201
-0.403541
-0.393855
-0.384152
-0.374442
-0.364733
-0.355034
-0.345352
-0.335696
-0.326075
-0.316496
-0.306965
-0.297491
-0.288081
-0.27874
-0.269475
-0.260291
-0.251195
-0.242191
-0.233284
-0.224478
-0.215777
-0.207185
-0.198705
-0.190339
-0.182091
-0.173961
-0.165952
-0.158064
-0.1503
-0.142658
-0.13514
-0.127746
-0.120475
-0.113327
-0.1063
-0.0993934
-0.0926064
-0.0859371
-0.0793836
-0.0729442
-0.0666167
-0.0603992
-0.0542887
-0.0482843
-0.0423802
-0.0365814
-0.0308682
-0.0252775
-0.0197138
-0.0143877
-0.00877661
-0.00396732
0.292829
0.292697
0.292409
0.291955
0.291337
0.290556
0.289612
0.288503
0.287227
0.285783
0.284169
0.282381
0.280418
0.278278
0.275957
0.273452
0.27076
0.267879
0.264804
0.261533
0.258061
0.254386
0.250503
0.24641
0.242102
0.237577
0.232831
0.22786
0.222662
0.217235
0.211575
0.20568
0.199549
0.19318
0.186572
0.179725
0.172638
0.165313
0.15775
0.14995
0.141918
0.133655
0.125166
0.116454
0.107527
0.098389
0.0890475
0.0795099
0.0697847
0.0598807
0.0498074
0.0395751
0.0291946
0.0186771
0.0080342
-0.00272193
-0.0135789
-0.0245242
-0.035545
-0.0466284
-0.0577617
-0.068932
-0.0801266
-0.0913333
-0.10254
-0.113734
-0.124905
-0.136042
-0.147135
-0.158172
-0.169147
-0.180048
-0.19087
-0.201604
-0.212243
-0.222783
-0.233217
-0.243541
-0.253752
-0.263845
-0.273819
-0.283671
-0.293401
-0.303006
-0.312487
-0.321845
-0.331079
-0.340191
-0.349182
-0.358054
-0.366809
-0.375448
-0.383975
-0.392392
-0.400702
-0.408906
-0.417009
-0.425012
-0.432919
-0.440732
-0.448453
-0.456085
-0.46363
-0.471089
-0.478465
-0.485758
-0.492971
-0.500104
-0.507157
-0.51413
-0.521025
-0.527839
-0.534574
-0.541227
-0.547797
-0.554283
-0.560682
-0.566992
-0.573211
-0.579336
-0.585363
-0.591289
-0.59711
-0.602822
-0.608421
-0.613903
-0.619263
-0.624496
-0.629598
-0.634563
-0.639386
-0.644062
-0.648586
-0.652952
-0.657155
-0.66119
-0.665051
-0.668734
-0.672232
-0.675541
-0.678656
-0.681571
-0.684283
-0.686785
-0.689075
-0.691146
-0.692996
-0.694619
-0.696013
-0.697174
-0.698097
-0.698781
-0.699222
-0.699417
-0.699364
-0.699061
-0.698505
-0.697695
-0.69663
-0.695308
-0.693729
-0.691891
-0.689794
-0.687438
-0.684823
-0.68195
-0.67882
-0.675432
-0.671789
-0.667892
-0.663743
-0.659343
-0.654696
-0.649803
-0.644668
-0.639294
-0.633685
-0.627843
-0.621775
-0.615482
-0.608972
-0.602248
-0.595315
-0.58818
-0.580847
-0.573324
-0.565617
-0.557732
-0.549675
-0.541456
-0.53308
-0.524555
-0.51589
-0.507093
-0.498171
-0.489133
-0.479988
-0.470745
-0.461412
-0.451999
-0.442515
-0.432968
-0.423368
-0.413724
-0.404045
-0.39434
-0.384619
-0.37489
-0.365161
-0.355442
-0.345741
-0.336066
-0.326426
-0.316827
-0.307278
-0.297785
-0.288356
-0.278997
-0.269715
-0.260514
-0.251401
-0.242381
-0.233458
-0.224637
-0.215922
-0.207316
-0.198823
-0.190445
-0.182185
-0.174044
-0.166024
-0.158127
-0.150354
-0.142704
-0.135179
-0.127778
-0.120501
-0.113347
-0.106316
-0.0994053
-0.0926147
-0.0859423
-0.0793863
-0.0729449
-0.0666158
-0.060397
-0.0542857
-0.0482808
-0.0423765
-0.0365777
-0.0308646
-0.0252744
-0.0197111
-0.0143862
-0.00877547
-0.0039688
0.293472
0.29334
0.293054
0.292601
0.291984
0.291206
0.290265
0.289159
0.287888
0.286448
0.284837
0.283054
0.281097
0.278961
0.276645
0.274145
0.271459
0.268582
0.265512
0.262244
0.258776
0.255104
0.251224
0.247132
0.242825
0.2383
0.233552
0.228578
0.223376
0.217942
0.212274
0.20637
0.200227
0.193845
0.187221
0.180355
0.173248
0.1659
0.158311
0.150484
0.142421
0.134125
0.1256
0.116851
0.107883
0.0987032
0.0893175
0.0797339
0.069961
0.0600078
0.0498842
0.0396006
0.029168
0.0185981
0.00790262
-0.00290593
-0.0138149
-0.0248115
-0.0358826
-0.0470151
-0.0581959
-0.0694119
-0.0806505
-0.0918988
-0.103145
-0.114376
-0.125581
-0.13675
-0.147871
-0.158934
-0.169931
-0.180853
-0.191692
-0.20244
-0.213091
-0.223639
-0.234079
-0.244406
-0.254617
-0.264709
-0.274679
-0.284525
-0.294247
-0.303843
-0.313313
-0.322658
-0.331878
-0.340975
-0.34995
-0.358805
-0.367543
-0.376165
-0.384674
-0.393073
-0.401365
-0.409552
-0.417638
-0.425624
-0.433515
-0.441313
-0.449019
-0.456637
-0.464169
-0.471617
-0.478982
-0.486267
-0.493472
-0.500597
-0.507645
-0.514615
-0.521506
-0.528319
-0.535054
-0.541708
-0.548281
-0.55477
-0.561174
-0.567491
-0.573717
-0.57985
-0.585886
-0.591822
-0.597655
-0.603379
-0.608991
-0.614487
-0.619861
-0.625109
-0.630225
-0.635206
-0.640045
-0.644737
-0.649277
-0.65366
-0.65788
-0.661931
-0.665809
-0.669508
-0.673023
-0.676348
-0.679479
-0.68241
-0.685136
-0.687654
-0.689958
-0.692044
-0.693907
-0.695544
-0.69695
-0.698123
-0.699059
-0.699754
-0.700205
-0.700411
-0.700368
-0.700074
-0.699527
-0.698725
-0.697668
-0.696353
-0.69478
-0.692948
-0.690856
-0.688506
-0.685896
-0.683027
-0.679899
-0.676515
-0.672874
-0.668978
-0.66483
-0.660431
-0.655783
-0.65089
-0.645754
-0.640378
-0.634765
-0.628921
-0.622848
-0.616551
-0.610034
-0.603303
-0.596364
-0.58922
-0.581879
-0.574346
-0.566628
-0.558731
-0.550662
-0.542429
-0.534039
-0.525499
-0.516818
-0.508004
-0.499064
-0.490008
-0.480843
-0.47158
-0.462226
-0.452791
-0.443284
-0.433715
-0.424091
-0.414423
-0.404719
-0.39499
-0.385243
-0.375488
-0.365734
-0.355989
-0.346262
-0.336561
-0.326895
-0.31727
-0.307696
-0.298178
-0.288725
-0.279341
-0.270035
-0.260811
-0.251676
-0.242634
-0.233691
-0.22485
-0.216115
-0.207491
-0.19898
-0.190586
-0.18231
-0.174154
-0.166121
-0.158211
-0.150426
-0.142766
-0.135231
-0.127821
-0.120535
-0.113374
-0.106336
-0.0994205
-0.0926251
-0.0859487
-0.0793894
-0.0729453
-0.066614
-0.0603937
-0.0542813
-0.0482758
-0.0423712
-0.0365726
-0.0308598
-0.0252703
-0.0197075
-0.014384
-0.00877364
-0.00396946
0.294275
0.294144
0.293858
0.293407
0.292793
0.292018
0.291081
0.289979
0.288712
0.287277
0.285673
0.283896
0.281944
0.279815
0.277505
0.275012
0.272332
0.269461
0.266397
0.263135
0.259672
0.256004
0.252127
0.248037
0.243731
0.239205
0.234455
0.229478
0.224271
0.21883
0.213152
0.207236
0.201079
0.194679
0.188035
0.181147
0.174014
0.166637
0.159016
0.151154
0.143052
0.134715
0.126146
0.117349
0.108331
0.0990978
0.0896564
0.0800147
0.0701816
0.0601664
0.0499793
0.039631
0.0291329
0.0184968
0.0077351
-0.00313954
-0.0141141
-0.0251753
-0.0363097
-0.047504
-0.0587446
-0.0700184
-0.081312
-0.0926127
-0.103908
-0.115186
-0.126434
-0.137642
-0.148799
-0.159895
-0.17092
-0.181867
-0.192726
-0.203492
-0.214157
-0.224715
-0.235162
-0.245493
-0.255705
-0.265794
-0.275759
-0.285597
-0.295309
-0.304892
-0.314348
-0.323677
-0.332879
-0.341957
-0.350912
-0.359746
-0.368462
-0.377062
-0.385549
-0.393925
-0.402194
-0.410359
-0.418423
-0.426389
-0.434259
-0.442037
-0.449725
-0.457326
-0.464842
-0.472276
-0.479628
-0.486901
-0.494095
-0.501213
-0.508253
-0.515218
-0.522106
-0.528918
-0.535652
-0.542308
-0.548883
-0.555378
-0.561788
-0.568113
-0.574348
-0.580492
-0.58654
-0.592489
-0.598336
-0.604075
-0.609704
-0.615216
-0.620608
-0.625875
-0.63101
-0.636011
-0.64087
-0.645582
-0.650143
-0.654546
-0.658787
-0.66286
-0.666758
-0.670478
-0.674013
-0.677359
-0.680509
-0.68346
-0.686206
-0.688742
-0.691064
-0.693168
-0.695048
-0.696702
-0.698125
-0.699313
-0.700263
-0.700973
-0.701438
-0.701656
-0.701625
-0.701343
-0.700807
-0.700016
-0.698968
-0.697662
-0.696097
-0.694273
-0.692188
-0.689844
-0.687239
-0.684375
-0.681252
-0.677871
-0.674233
-0.67034
-0.666193
-0.661794
-0.657147
-0.652252
-0.647114
-0.641736
-0.63612
-0.630271
-0.624193
-0.61789
-0.611366
-0.604628
-0.597679
-0.590525
-0.583173
-0.575628
-0.567896
-0.559985
-0.551901
-0.543651
-0.535243
-0.526684
-0.517983
-0.509147
-0.500185
-0.491105
-0.481917
-0.472628
-0.463248
-0.453786
-0.44425
-0.434652
-0.424998
-0.4153
-0.405565
-0.395804
-0.386026
-0.376239
-0.366452
-0.356675
-0.346915
-0.337182
-0.327483
-0.317826
-0.30822
-0.298671
-0.289186
-0.279773
-0.270437
-0.261184
-0.252021
-0.242951
-0.233982
-0.225115
-0.216357
-0.207709
-0.199176
-0.190761
-0.182465
-0.174291
-0.166241
-0.158315
-0.150515
-0.142841
-0.135294
-0.127873
-0.120577
-0.113407
-0.106361
-0.0994385
-0.0926372
-0.0859558
-0.0793923
-0.0729449
-0.0666111
-0.0603889
-0.0542752
-0.0482689
-0.0423641
-0.0365656
-0.0308533
-0.0252647
-0.0197029
-0.0143809
-0.00877128
-0.00396989
0.295237
0.295106
0.294822
0.294374
0.293763
0.292991
0.292058
0.290962
0.289701
0.288272
0.286674
0.284905
0.282961
0.280839
0.278538
0.276052
0.27338
0.270517
0.26746
0.264205
0.260748
0.257085
0.253212
0.249125
0.244821
0.240295
0.235543
0.230562
0.225348
0.219899
0.21421
0.20828
0.202105
0.195685
0.189018
0.182102
0.174938
0.167526
0.159867
0.151963
0.143815
0.135428
0.126805
0.117951
0.108872
0.0995739
0.0900649
0.0803529
0.0704469
0.0603566
0.0500924
0.0396656
0.029088
0.0183717
0.00752956
-0.00342522
-0.0144792
-0.0256187
-0.03683
-0.048099
-0.0594121
-0.0707556
-0.0821159
-0.0934799
-0.104835
-0.116168
-0.127468
-0.138724
-0.149924
-0.161058
-0.172118
-0.183094
-0.193979
-0.204765
-0.215446
-0.226017
-0.236472
-0.246807
-0.257019
-0.267105
-0.277063
-0.286891
-0.29659
-0.306158
-0.315596
-0.324904
-0.334085
-0.34314
-0.35207
-0.360878
-0.369567
-0.37814
-0.386599
-0.394948
-0.40319
-0.411328
-0.419365
-0.427305
-0.435151
-0.442905
-0.450571
-0.458151
-0.465648
-0.473064
-0.4804
-0.487659
-0.494841
-0.501948
-0.508981
-0.515939
-0.522823
-0.529633
-0.536367
-0.543025
-0.549605
-0.556105
-0.562523
-0.568857
-0.575104
-0.58126
-0.587323
-0.593288
-0.599152
-0.60491
-0.610558
-0.616092
-0.621505
-0.626794
-0.631953
-0.636977
-0.641861
-0.646598
-0.651184
-0.655612
-0.659878
-0.663976
-0.6679
-0.671645
-0.675205
-0.678575
-0.68175
-0.684724
-0.687493
-0.690052
-0.692396
-0.694521
-0.696423
-0.698096
-0.699538
-0.700745
-0.701713
-0.70244
-0.702921
-0.703155
-0.703139
-0.702871
-0.702348
-0.701569
-0.700532
-0.699237
-0.697683
-0.695867
-0.693791
-0.691455
-0.688857
-0.685999
-0.682881
-0.679504
-0.675869
-0.671979
-0.667834
-0.663436
-0.658788
-0.653893
-0.648753
-0.643371
-0.637752
-0.631898
-0.625813
-0.619503
-0.612971
-0.606223
-0.599263
-0.592097
-0.584732
-0.577172
-0.569424
-0.561496
-0.553393
-0.545123
-0.536694
-0.528112
-0.519387
-0.510526
-0.501537
-0.492429
-0.483211
-0.473891
-0.46448
-0.454985
-0.445416
-0.435782
-0.426093
-0.416358
-0.406586
-0.396787
-0.38697
-0.377144
-0.367318
-0.357502
-0.347703
-0.33793
-0.328192
-0.318496
-0.308851
-0.299264
-0.289742
-0.280292
-0.27092
-0.261632
-0.252435
-0.243333
-0.234331
-0.225434
-0.216646
-0.207971
-0.199411
-0.190971
-0.182651
-0.174455
-0.166384
-0.158439
-0.150621
-0.142931
-0.135368
-0.127933
-0.120626
-0.113445
-0.10639
-0.0994587
-0.0926503
-0.0859629
-0.0793946
-0.0729432
-0.0666063
-0.0603819
-0.0542668
-0.0482597
-0.0423548
-0.0365566
-0.030845
-0.0252576
-0.019697
-0.0143768
-0.00876837
-0.00397011
0.296357
0.296227
0.295945
0.295499
0.294892
0.294125
0.293197
0.292107
0.290853
0.289432
0.287842
0.286081
0.284146
0.282034
0.279742
0.277266
0.274604
0.27175
0.268702
0.265455
0.262005
0.258349
0.254481
0.250398
0.246096
0.24157
0.236817
0.231831
0.226611
0.221152
0.21545
0.209504
0.20331
0.196866
0.190171
0.183224
0.176024
0.168572
0.160868
0.152913
0.144712
0.136265
0.127579
0.118657
0.109506
0.100133
0.0905443
0.0807492
0.070757
0.0605779
0.0502228
0.0397033
0.0290316
0.0182205
0.00728345
-0.00376601
-0.0149138
-0.0261458
-0.0374476
-0.0488049
-0.0602034
-0.071629
-0.0830678
-0.0945062
-0.105931
-0.11733
-0.128691
-0.140002
-0.151252
-0.162432
-0.173531
-0.184542
-0.195455
-0.206265
-0.216965
-0.227549
-0.238013
-0.248352
-0.258563
-0.268645
-0.278594
-0.28841
-0.298093
-0.307642
-0.317059
-0.326343
-0.335498
-0.344524
-0.353425
-0.362202
-0.37086
-0.3794
-0.387826
-0.396142
-0.404351
-0.412457
-0.420463
-0.428373
-0.436189
-0.443916
-0.451555
-0.459111
-0.466585
-0.473979
-0.481297
-0.488539
-0.495707
-0.502803
-0.509826
-0.516777
-0.523657
-0.530464
-0.537198
-0.543858
-0.550443
-0.55695
-0.563378
-0.569723
-0.575983
-0.582155
-0.588235
-0.594219
-0.600104
-0.605884
-0.611555
-0.617113
-0.622552
-0.627868
-0.633054
-0.638107
-0.643019
-0.647785
-0.652401
-0.656859
-0.661155
-0.665282
-0.669236
-0.67301
-0.6766
-0.679998
-0.683202
-0.686204
-0.689
-0.691586
-0.693956
-0.696106
-0.698032
-0.699729
-0.701194
-0.702422
-0.703411
-0.704158
-0.704658
-0.704911
-0.704912
-0.704659
-0.704152
-0.703388
-0.702365
-0.701082
-0.699539
-0.697735
-0.695669
-0.693341
-0.690751
-0.6879
-0.684788
-0.681416
-0.677786
-0.673898
-0.669755
-0.665359
-0.660711
-0.655815
-0.650672
-0.645288
-0.639663
-0.633804
-0.627712
-0.621393
-0.614852
-0.608092
-0.60112
-0.593941
-0.586559
-0.578982
-0.571216
-0.563268
-0.555143
-0.54685
-0.538395
-0.529788
-0.521034
-0.512143
-0.503123
-0.493982
-0.48473
-0.475374
-0.465925
-0.456392
-0.446783
-0.437108
-0.427377
-0.417599
-0.407784
-0.39794
-0.388078
-0.378206
-0.368335
-0.358472
-0.348626
-0.338807
-0.329023
-0.319282
-0.309592
-0.29996
-0.290394
-0.2809
-0.271486
-0.262157
-0.252919
-0.243778
-0.234739
-0.225806
-0.216984
-0.208276
-0.199685
-0.191215
-0.182867
-0.174645
-0.166549
-0.158582
-0.150743
-0.143033
-0.135453
-0.128003
-0.120681
-0.113488
-0.106421
-0.0994803
-0.0926637
-0.0859694
-0.0793954
-0.0729394
-0.0665992
-0.0603723
-0.0542556
-0.0482478
-0.0423427
-0.0365451
-0.0308345
-0.0252485
-0.0196896
-0.0143716
-0.00876479
-0.00397007
0.297634
0.297506
0.297225
0.296783
0.29618
0.295418
0.294497
0.293414
0.292168
0.290756
0.289176
0.287425
0.285501
0.2834
0.281119
0.278654
0.276003
0.27316
0.270122
0.266885
0.263445
0.259796
0.255935
0.251858
0.247558
0.243034
0.238278
0.233289
0.228061
0.222592
0.216876
0.210912
0.204695
0.198225
0.191499
0.184516
0.177275
0.169776
0.16202
0.154009
0.145745
0.137231
0.128472
0.119472
0.110238
0.100776
0.0910957
0.0812044
0.0711124
0.0608304
0.0503698
0.0397427
0.0289619
0.018041
0.00699371
-0.00416552
-0.0154221
-0.0267612
-0.0381679
-0.0496273
-0.0611245
-0.072645
-0.0841743
-0.0956986
-0.107204
-0.118678
-0.130109
-0.141483
-0.152791
-0.164022
-0.175167
-0.186216
-0.197163
-0.208
-0.21872
-0.229319
-0.239791
-0.250134
-0.260344
-0.270419
-0.280358
-0.290159
-0.299823
-0.30935
-0.31874
-0.327996
-0.33712
-0.346113
-0.354979
-0.36372
-0.37234
-0.380842
-0.38923
-0.397508
-0.405679
-0.413748
-0.421717
-0.429591
-0.437373
-0.445067
-0.452676
-0.460203
-0.467651
-0.475022
-0.482318
-0.489541
-0.496692
-0.503774
-0.510786
-0.51773
-0.524604
-0.531409
-0.538143
-0.544806
-0.551397
-0.557912
-0.564351
-0.57071
-0.576986
-0.583175
-0.589275
-0.595282
-0.60119
-0.606996
-0.612694
-0.618281
-0.62375
-0.629096
-0.634314
-0.639399
-0.644345
-0.649145
-0.653794
-0.658287
-0.662618
-0.66678
-0.670768
-0.674576
-0.678199
-0.681631
-0.684867
-0.687901
-0.690729
-0.693345
-0.695745
-0.697924
-0.699878
-0.701602
-0.703093
-0.704347
-0.70536
-0.706129
-0.706652
-0.706925
-0.706946
-0.706713
-0.706223
-0.705475
-0.704468
-0.7032
-0.70167
-0.699878
-0.697823
-0.695506
-0.692925
-0.690082
-0.686977
-0.683611
-0.679986
-0.676102
-0.671961
-0.667566
-0.662919
-0.658021
-0.652877
-0.647488
-0.641859
-0.635992
-0.629893
-0.623565
-0.617012
-0.61024
-0.603254
-0.596059
-0.58866
-0.581064
-0.573276
-0.565305
-0.557155
-0.548835
-0.540353
-0.531714
-0.522928
-0.514003
-0.504947
-0.495769
-0.486477
-0.47708
-0.467589
-0.458011
-0.448356
-0.438635
-0.428855
-0.419028
-0.409162
-0.399267
-0.389353
-0.379429
-0.369504
-0.359588
-0.349689
-0.339816
-0.329979
-0.320185
-0.310442
-0.300759
-0.291141
-0.281598
-0.272135
-0.262758
-0.253475
-0.244289
-0.235207
-0.226232
-0.21737
-0.208624
-0.199997
-0.191492
-0.183113
-0.17486
-0.166736
-0.158743
-0.15088
-0.143148
-0.135548
-0.128079
-0.120741
-0.113533
-0.106454
-0.0995024
-0.0926764
-0.0859743
-0.0793938
-0.0729329
-0.0665888
-0.0603593
-0.0542409
-0.0482324
-0.0423274
-0.0365305
-0.0308213
-0.0252372
-0.0196803
-0.0143651
-0.0087604
-0.00396972
0.299068
0.298941
0.298662
0.298223
0.297625
0.29687
0.295956
0.294881
0.293645
0.292243
0.290674
0.288935
0.287023
0.284935
0.282667
0.280216
0.277578
0.274748
0.271723
0.268498
0.265068
0.261429
0.257577
0.253505
0.24921
0.244687
0.239931
0.234938
0.229703
0.224222
0.218491
0.212507
0.206266
0.199766
0.193006
0.185982
0.178695
0.171144
0.16333
0.155254
0.146919
0.138329
0.129486
0.120397
0.111068
0.101507
0.0917207
0.0817195
0.0715135
0.0611138
0.0505324
0.0397822
0.0288767
0.01783
0.00665673
-0.00462801
-0.0160089
-0.0274704
-0.0389969
-0.0505727
-0.0621825
-0.0738111
-0.0854435
-0.0970653
-0.108663
-0.120222
-0.131731
-0.143178
-0.15455
-0.165839
-0.177034
-0.188127
-0.19911
-0.209976
-0.220719
-0.231333
-0.241815
-0.252161
-0.262368
-0.272435
-0.28236
-0.292143
-0.301784
-0.311284
-0.320644
-0.329867
-0.338954
-0.347909
-0.356734
-0.365433
-0.37401
-0.382468
-0.390812
-0.399045
-0.407173
-0.415198
-0.423126
-0.430959
-0.438702
-0.446359
-0.453933
-0.461427
-0.468845
-0.476188
-0.483459
-0.490661
-0.497794
-0.50486
-0.51186
-0.518794
-0.525663
-0.532465
-0.5392
-0.545867
-0.552464
-0.55899
-0.565441
-0.571815
-0.578109
-0.58432
-0.590443
-0.596475
-0.60241
-0.608245
-0.613975
-0.619594
-0.625097
-0.630479
-0.635734
-0.640856
-0.645839
-0.650678
-0.655367
-0.659899
-0.664268
-0.66847
-0.672497
-0.676344
-0.680005
-0.683475
-0.686748
-0.689819
-0.692682
-0.695333
-0.697767
-0.699979
-0.701965
-0.703719
-0.70524
-0.706522
-0.707563
-0.708358
-0.708906
-0.709202
-0.709245
-0.709033
-0.708564
-0.707835
-0.706845
-0.705593
-0.704079
-0.702301
-0.700259
-0.697953
-0.695382
-0.692549
-0.689452
-0.686093
-0.682473
-0.678593
-0.674456
-0.670062
-0.665415
-0.660516
-0.655369
-0.649977
-0.644342
-0.638469
-0.632361
-0.626022
-0.619457
-0.612671
-0.605669
-0.598456
-0.591038
-0.58342
-0.575609
-0.567612
-0.559434
-0.551085
-0.54257
-0.533897
-0.525075
-0.516111
-0.507015
-0.497794
-0.488457
-0.479015
-0.469474
-0.459847
-0.45014
-0.440365
-0.430531
-0.420648
-0.410724
-0.400771
-0.390798
-0.380814
-0.370829
-0.360852
-0.350893
-0.340959
-0.331061
-0.321207
-0.311405
-0.301662
-0.291987
-0.282387
-0.272868
-0.263438
-0.254101
-0.244865
-0.235733
-0.226711
-0.217804
-0.209014
-0.200347
-0.191803
-0.183387
-0.1751
-0.166945
-0.158921
-0.151031
-0.143274
-0.135651
-0.128162
-0.120806
-0.113581
-0.106488
-0.0995238
-0.0926873
-0.0859764
-0.0793889
-0.0729224
-0.0665742
-0.0603419
-0.0542219
-0.0482128
-0.0423081
-0.0365124
-0.030805
-0.0252233
-0.019669
-0.0143571
-0.00875505
-0.00396898
0.300657
0.30053
0.300255
0.29982
0.299228
0.298479
0.297573
0.296509
0.295283
0.293893
0.292337
0.290611
0.288714
0.286641
0.284388
0.281953
0.27933
0.276515
0.273505
0.270293
0.266877
0.263249
0.259406
0.255343
0.251053
0.246533
0.241777
0.23678
0.231538
0.226045
0.220298
0.214293
0.208026
0.201494
0.194695
0.187627
0.180288
0.17268
0.164801
0.156653
0.148239
0.139562
0.130626
0.121437
0.112001
0.102326
0.0924212
0.0822957
0.0719606
0.0614277
0.0507096
0.0398201
0.0287733
0.0175842
0.00626835
-0.00515844
-0.0166799
-0.0282798
-0.0399416
-0.0516489
-0.0633857
-0.0751359
-0.0868843
-0.0986157
-0.110316
-0.121971
-0.133568
-0.145094
-0.156539
-0.167892
-0.179143
-0.190284
-0.201306
-0.212204
-0.22297
-0.233601
-0.244092
-0.25444
-0.264643
-0.274699
-0.284607
-0.294368
-0.303982
-0.313451
-0.322775
-0.331959
-0.341004
-0.349914
-0.358692
-0.367343
-0.37587
-0.384278
-0.392572
-0.400755
-0.408832
-0.416809
-0.424688
-0.432475
-0.440175
-0.447789
-0.455324
-0.462781
-0.470164
-0.477476
-0.48472
-0.491897
-0.49901
-0.506058
-0.513045
-0.519969
-0.526831
-0.53363
-0.540367
-0.547038
-0.553643
-0.56018
-0.566646
-0.573038
-0.579353
-0.585587
-0.591737
-0.597797
-0.603764
-0.609633
-0.615398
-0.621054
-0.626596
-0.632018
-0.637314
-0.642478
-0.647504
-0.652387
-0.657119
-0.661695
-0.666109
-0.670355
-0.674426
-0.678317
-0.682021
-0.685534
-0.688849
-0.69196
-0.694864
-0.697554
-0.700025
-0.702274
-0.704295
-0.706084
-0.707638
-0.708952
-0.710023
-0.710847
-0.711423
-0.711746
-0.711814
-0.711625
-0.711178
-0.71047
-0.7095
-0.708267
-0.706769
-0.705007
-0.702979
-0.700686
-0.698127
-0.695304
-0.692216
-0.688865
-0.685251
-0.681376
-0.677242
-0.672851
-0.668204
-0.663305
-0.658155
-0.652758
-0.647118
-0.641237
-0.635119
-0.62877
-0.622192
-0.61539
-0.608371
-0.601138
-0.593698
-0.586057
-0.57822
-0.570194
-0.561986
-0.553603
-0.545052
-0.536342
-0.527479
-0.518473
-0.509331
-0.500063
-0.490677
-0.481182
-0.471588
-0.461904
-0.45214
-0.442305
-0.432409
-0.422463
-0.412476
-0.402457
-0.392418
-0.382366
-0.372314
-0.362269
-0.352241
-0.342239
-0.332273
-0.322351
-0.312482
-0.302673
-0.292933
-0.283269
-0.273688
-0.264196
-0.2548
-0.245506
-0.236319
-0.227244
-0.218286
-0.209448
-0.200734
-0.192147
-0.18369
-0.175365
-0.167173
-0.159116
-0.151195
-0.14341
-0.135762
-0.12825
-0.120873
-0.11363
-0.106521
-0.0995433
-0.0926952
-0.0859748
-0.0793795
-0.072907
-0.0665545
-0.0603192
-0.0541977
-0.0481882
-0.0422842
-0.0364901
-0.0307849
-0.0252062
-0.0196552
-0.0143472
-0.00874859
-0.00396779
0.302399
0.302274
0.302001
0.301571
0.300985
0.300244
0.299348
0.298295
0.297081
0.295704
0.294163
0.292453
0.290572
0.288516
0.286281
0.283863
0.281258
0.278461
0.275467
0.272272
0.268871
0.265257
0.261426
0.257373
0.253091
0.248575
0.24382
0.23882
0.233571
0.228067
0.222303
0.216275
0.20998
0.203413
0.196573
0.189456
0.182061
0.174388
0.166438
0.15821
0.149708
0.140935
0.131895
0.122594
0.113039
0.103237
0.0931992
0.0829344
0.0724544
0.0617719
0.0509004
0.0398543
0.0286488
0.0172998
0.00582371
-0.00576253
-0.0174418
-0.0291968
-0.0410102
-0.0528647
-0.0647434
-0.0766296
-0.0885072
-0.100361
-0.112175
-0.123936
-0.13563
-0.147245
-0.15877
-0.170193
-0.181505
-0.192697
-0.203762
-0.214693
-0.225485
-0.236132
-0.246631
-0.256979
-0.267175
-0.277217
-0.287106
-0.29684
-0.306423
-0.315854
-0.325138
-0.334277
-0.343273
-0.352132
-0.360857
-0.369453
-0.377923
-0.386274
-0.39451
-0.402636
-0.410657
-0.418578
-0.426404
-0.434139
-0.441788
-0.449356
-0.456846
-0.464261
-0.471607
-0.478884
-0.486097
-0.493247
-0.500336
-0.507366
-0.514337
-0.52125
-0.528106
-0.534902
-0.54164
-0.548317
-0.554931
-0.561481
-0.567964
-0.574376
-0.580715
-0.586976
-0.593155
-0.599248
-0.605251
-0.611157
-0.616962
-0.62266
-0.628245
-0.633712
-0.639054
-0.644266
-0.64934
-0.654272
-0.659053
-0.663679
-0.668143
-0.672438
-0.676558
-0.680497
-0.68425
-0.68781
-0.691171
-0.694328
-0.697276
-0.700009