/*--------------------------------*- C++ -*----------------------------------*\
| =========                 |                                                 |
| \\      /  F ield         | OpenFOAM: The Open Source CFD Toolbox           |
|  \\    /   O peration     | Version:  2306                                  |
|   \\  /    A nd           | Website:  www.openfoam.com                      |
|    \\/     M anipulation  |                                                 |
\*---------------------------------------------------------------------------*/
FoamFile
{
    version     2.0;
    format      ascii;
    arch        "LSB;label=32;scalar=64";
    class       surfaceScalarField;
    location    "11";
    object      phi;
}
// * * * * * * * * * * * * * * * * * * * * * * * * * * * * * * * * * * * * * //

dimensions      [0 3 -1 0 0 0 0];

oriented        oriented;

internalField   nonuniform List<scalar> 
65152
(
0.0062505
-5.02883e-07
0.00625201
-1.51058e-06
0.00625453
-2.51891e-06
0.00625806
-3.52899e-06
0.0062626
-4.54247e-06
0.00626816
-5.56043e-06
0.00627475
-6.58355e-06
0.00628236
-7.61255e-06
0.00629101
-8.64822e-06
0.0063007
-9.69134e-06
0.00631144
-1.07426e-05
0.00632325
-1.18025e-05
0.00633612
-1.28717e-05
0.00635007
-1.39506e-05
0.00636511
-1.50394e-05
0.00638125
-1.61384e-05
0.00639849
-1.72478e-05
0.00641686
-1.83675e-05
0.00643636
-1.94973e-05
0.00645699
-2.0637e-05
0.00647878
-2.17861e-05
0.00650172
-2.2944e-05
0.00652583
-2.411e-05
0.00655112
-2.52832e-05
0.00657758
-2.64624e-05
0.00660523
-2.76463e-05
0.00663406
-2.88335e-05
0.00666408
-3.00223e-05
0.00669529
-3.1211e-05
0.00672769
-3.23974e-05
0.00676127
-3.35793e-05
0.00679602
-3.47545e-05
0.00683195
-3.59204e-05
0.00686902
-3.70742e-05
0.00690723
-3.82133e-05
0.00694657
-3.93345e-05
0.006987
-4.0435e-05
0.00702851
-4.15115e-05
0.00707107
-4.25609e-05
0.00711465
-4.35799e-05
0.00715922
-4.45654e-05
0.00720473
-4.5514e-05
0.00725116
-4.64228e-05
0.00729845
-4.72886e-05
0.00734655
-4.81084e-05
0.00739543
-4.88795e-05
0.00744503
-4.95993e-05
0.0074953
-5.02653e-05
0.00754617
-5.08755e-05
0.0075976
-5.14278e-05
0.00764952
-5.19207e-05
0.00770187
-5.23528e-05
0.0077546
-5.27232e-05
0.00780763
-5.30312e-05
0.00786091
-5.32765e-05
0.00791436
-5.3459e-05
0.00796794
-5.35791e-05
0.00802158
-5.36376e-05
0.00807522
-5.36354e-05
0.00812879
-5.35738e-05
0.00818224
-5.34546e-05
0.00823552
-5.32795e-05
0.00828858
-5.30509e-05
0.00834135
-5.2771e-05
0.00839379
-5.24425e-05
0.00844586
-5.20681e-05
0.00849751
-5.16509e-05
0.0085487
-5.11939e-05
0.0085994
-5.07002e-05
0.00864957
-5.01731e-05
0.00869919
-4.96159e-05
0.00874822
-4.90319e-05
0.00879665
-4.84243e-05
0.00884444
-4.77964e-05
0.00889159
-4.71515e-05
0.00893809
-4.64926e-05
0.00898391
-4.58227e-05
0.00902906
-4.51448e-05
0.00907352
-4.44617e-05
0.00911729
-4.3776e-05
0.00916038
-4.30901e-05
0.00920279
-4.24065e-05
0.00924452
-4.17272e-05
0.00928557
-4.10543e-05
0.00932596
-4.03895e-05
0.00936569
-3.97344e-05
0.00940479
-3.90905e-05
0.00944324
-3.84589e-05
0.00948108
-3.78407e-05
0.00951832
-3.72367e-05
0.00955497
-3.66476e-05
0.00959104
-3.60739e-05
0.00962656
-3.55159e-05
0.00966153
-3.49737e-05
0.00969598
-3.44472e-05
0.00972992
-3.39363e-05
0.00976336
-3.34407e-05
0.00979632
-3.29598e-05
0.00982881
-3.24931e-05
0.00986085
-3.20399e-05
0.00989245
-3.15993e-05
0.00992362
-3.11703e-05
0.00995437
-3.07521e-05
0.00998471
-3.03433e-05
0.0100147
-2.99429e-05
0.0100442
-2.95496e-05
0.0100734
-2.91622e-05
0.0101021
-2.87792e-05
0.0101305
-2.83993e-05
0.0101586
-2.80212e-05
0.0101862
-2.76434e-05
0.0102135
-2.72646e-05
0.0102404
-2.68833e-05
0.0102669
-2.64982e-05
0.010293
-2.61078e-05
0.0103187
-2.5711e-05
0.010344
-2.53063e-05
0.0103689
-2.48925e-05
0.0103933
-2.44684e-05
0.0104174
-2.40329e-05
0.010441
-2.35848e-05
0.0104641
-2.31231e-05
0.0104867
-2.26469e-05
0.0105089
-2.21553e-05
0.0105305
-2.16474e-05
0.0105517
-2.11224e-05
0.0105722
-2.05797e-05
0.0105923
-2.00187e-05
0.0106117
-1.94388e-05
0.0106305
-1.88396e-05
0.0106488
-1.82207e-05
0.0106663
-1.75818e-05
0.0106833
-1.69226e-05
0.0106995
-1.6243e-05
0.010715
-1.55429e-05
0.0107299
-1.48223e-05
0.0107439
-1.40812e-05
0.0107573
-1.33196e-05
0.0107698
-1.25378e-05
0.0107815
-1.17359e-05
0.0107925
-1.09142e-05
0.0108025
-1.0073e-05
0.0108117
-9.21259e-06
0.0108201
-8.33345e-06
0.0108275
-7.43598e-06
0.010834
-6.52063e-06
0.0108396
-5.58789e-06
0.0108443
-4.6383e-06
0.0108479
-3.67239e-06
0.0108506
-2.69073e-06
0.0108523
-1.69393e-06
0.010853
-6.82607e-07
0.0108527
3.42659e-07
0.0108513
1.38119e-06
0.0108488
2.43234e-06
0.0108453
3.49545e-06
0.0108408
4.56985e-06
0.0108351
5.65484e-06
0.0108284
6.74974e-06
0.0108205
7.85385e-06
0.0108116
8.96645e-06
0.0108015
1.00868e-05
0.0107902
1.12143e-05
0.0107779
1.2348e-05
0.0107644
1.34873e-05
0.0107498
1.46315e-05
0.010734
1.57796e-05
0.0107171
1.69311e-05
0.010699
1.8085e-05
0.0106797
1.92405e-05
0.0106594
2.03968e-05
0.0106378
2.1553e-05
0.0106151
2.27084e-05
0.0105912
2.38618e-05
0.0105662
2.50126e-05
0.0105401
2.61596e-05
0.0105128
2.73019e-05
0.0104843
2.84386e-05
0.0104547
2.95685e-05
0.0104241
3.06906e-05
0.0103923
3.18038e-05
0.0103593
3.29071e-05
0.0103253
3.39992e-05
0.0102903
3.5079e-05
0.0102541
3.61453e-05
0.0102169
3.71968e-05
0.0101787
3.82324e-05
0.0101394
3.92507e-05
0.0100992
4.02505e-05
0.010058
4.12305e-05
0.0100158
4.21894e-05
0.00997264
4.31259e-05
0.00992861
4.40387e-05
0.00988368
4.49265e-05
0.00983789
4.57881e-05
0.00979127
4.6622e-05
0.00974384
4.74273e-05
0.00969564
4.82025e-05
0.00964669
4.89466e-05
0.00959703
4.96585e-05
0.0095467
5.0337e-05
0.00949572
5.09811e-05
0.00944413
5.159e-05
0.00939196
5.21626e-05
0.00933927
5.26982e-05
0.00928607
5.31961e-05
0.00923241
5.36557e-05
0.00917834
5.40763e-05
0.00912388
5.44575e-05
0.00906908
5.4799e-05
0.00901398
5.51006e-05
0.00895862
5.5362e-05
0.00890303
5.55833e-05
0.00884727
5.57645e-05
0.00879136
5.59058e-05
0.00873536
5.60075e-05
0.00867929
5.607e-05
0.00862319
5.60939e-05
0.00856711
5.60797e-05
0.00851109
5.60282e-05
0.00845515
5.59402e-05
0.00839933
5.58166e-05
0.00834367
5.56585e-05
0.0082882
5.54668e-05
0.00823296
5.52429e-05
0.00817797
5.49879e-05
0.00812327
5.47032e-05
0.00806888
5.43902e-05
0.00801483
5.40502e-05
0.00796114
5.36847e-05
0.00790785
5.32953e-05
0.00785497
5.28835e-05
0.00780251
5.24508e-05
0.00775052
5.19988e-05
0.00769899
5.15292e-05
0.00764794
5.10433e-05
0.0075974
5.0543e-05
0.00754737
5.00295e-05
0.00749787
4.95046e-05
0.0074489
4.89697e-05
0.00740047
4.84262e-05
0.00735259
4.78756e-05
0.00730528
4.73191e-05
0.00725852
4.67582e-05
0.00721232
4.6194e-05
0.00716669
4.56279e-05
0.00712163
4.50605e-05
0.00707714
4.44937e-05
0.00703321
4.3927e-05
0.00698985
4.33641e-05
0.00694705
4.27995e-05
0.0069048
4.22459e-05
0.00686312
4.16804e-05
0.00682199
4.11347e-05
0.00678141
4.05831e-05
3.99429e-05
0.0062505
-1.00627e-06
0.00625201
-3.01934e-06
0.00625453
-5.03497e-06
0.00625805
-7.05507e-06
0.00626259
-9.08169e-06
0.00626815
-1.11169e-05
0.00627473
-1.31623e-05
0.00628234
-1.52196e-05
0.00629098
-1.72904e-05
0.00630066
-1.93762e-05
0.0063114
-2.14782e-05
0.00632319
-2.35978e-05
0.00633606
-2.57359e-05
0.00635
-2.78934e-05
0.00636503
-3.0071e-05
0.00638116
-3.22692e-05
0.0063984
-3.44881e-05
0.00641676
-3.67278e-05
0.00643625
-3.89879e-05
0.00645689
-4.12679e-05
0.00647867
-4.35669e-05
0.00650161
-4.58837e-05
0.00652571
-4.82169e-05
0.00655099
-5.05645e-05
0.00657746
-5.29243e-05
0.0066051
-5.52938e-05
0.00663394
-5.76701e-05
0.00666397
-6.00497e-05
0.00669519
-6.24292e-05
0.00672759
-6.48044e-05
0.00676118
-6.71708e-05
0.00679595
-6.95239e-05
0.00683189
-7.18585e-05
0.00686899
-7.41692e-05
0.00690722
-7.64504e-05
0.00694659
-7.86961e-05
0.00698705
-8.09003e-05
0.0070286
-8.30567e-05
0.00707119
-8.51588e-05
0.00711481
-8.72002e-05
0.00715942
-8.91745e-05
0.00720498
-9.10751e-05
0.00725146
-9.28958e-05
0.0072988
-9.46304e-05
0.00734696
-9.6273e-05
0.0073959
-9.7818e-05
0.00744556
-9.926e-05
0.00749589
-0.000100594
0.00754683
-0.000101817
0.00759833
-0.000102923
0.00765032
-0.00010391
0.00770274
-0.000104776
0.00775553
-0.000105517
0.00780864
-0.000106133
0.00786198
-0.000106624
0.00791551
-0.000106989
0.00796916
-0.000107228
0.00802287
-0.000107344
0.00807657
-0.000107338
0.00813021
-0.000107214
0.00818373
-0.000106973
0.00823707
-0.000106621
0.00829018
-0.000106161
0.00834301
-0.000105599
0.00839551
-0.000104939
0.00844763
-0.000104187
0.00849932
-0.00010335
0.00855056
-0.000102432
0.00860131
-0.000101442
0.00865152
-0.000100384
0.00870117
-9.92665e-05
0.00875023
-9.80951e-05
0.00879868
-9.68766e-05
0.0088465
-9.56176e-05
0.00889368
-9.43245e-05
0.00894019
-9.30035e-05
0.00898603
-9.16608e-05
0.00903118
-9.03021e-05
0.00907565
-8.89331e-05
0.00911944
-8.75591e-05
0.00916253
-8.61849e-05
0.00920494
-8.48154e-05
0.00924667
-8.34548e-05
0.00928772
-8.2107e-05
0.00932811
-8.07757e-05
0.00936784
-7.9464e-05
0.00940692
-7.81748e-05
0.00944537
-7.69105e-05
0.00948321
-7.56732e-05
0.00952043
-7.44645e-05
0.00955707
-7.32857e-05
0.00959314
-7.21379e-05
0.00962864
-7.10216e-05
0.0096636
-6.99371e-05
0.00969804
-6.88842e-05
0.00973197
-6.78627e-05
0.0097654
-6.68718e-05
0.00979835
-6.59106e-05
0.00983083
-6.49779e-05
0.00986287
-6.40722e-05
0.00989446
-6.31918e-05
0.00992562
-6.23349e-05
0.00995637
-6.14993e-05
0.00998671
-6.06829e-05
0.0100167
-5.98833e-05
0.0100462
-5.9098e-05
0.0100754
-5.83243e-05
0.0101041
-5.75596e-05
0.0101325
-5.68013e-05
0.0101606
-5.60464e-05
0.0101882
-5.52922e-05
0.0102155
-5.45358e-05
0.0102424
-5.37745e-05
0.0102689
-5.30056e-05
0.010295
-5.22262e-05
0.0103207
-5.14336e-05
0.010346
-5.06254e-05
0.010371
-4.9799e-05
0.0103954
-4.89519e-05
0.0104195
-4.80818e-05
0.0104431
-4.71866e-05
0.0104662
-4.62642e-05
0.0104889
-4.53126e-05
0.0105111
-4.43301e-05
0.0105327
-4.33149e-05
0.0105539
-4.22655e-05
0.0105745
-4.11806e-05
0.0105945
-4.0059e-05
0.010614
-3.88996e-05
0.0106328
-3.77015e-05
0.0106511
-3.64639e-05
0.0106687
-3.51862e-05
0.0106856
-3.38679e-05
0.0107019
-3.25087e-05
0.0107175
-3.11084e-05
0.0107323
-2.9667e-05
0.0107464
-2.81845e-05
0.0107598
-2.66611e-05
0.0107723
-2.50971e-05
0.0107841
-2.34929e-05
0.010795
-2.1849e-05
0.0108051
-2.01661e-05
0.0108143
-1.84448e-05
0.0108227
-1.66859e-05
0.0108301
-1.48904e-05
0.0108367
-1.3059e-05
0.0108423
-1.11928e-05
0.0108469
-9.29293e-06
0.0108506
-7.36036e-06
0.0108533
-5.39629e-06
0.010855
-3.40189e-06
0.0108557
-1.37839e-06
0.0108554
6.72939e-07
0.010854
2.75084e-06
0.0108516
4.85401e-06
0.0108481
6.9811e-06
0.0108436
9.13077e-06
0.0108379
1.13016e-05
0.0108312
1.34923e-05
0.0108233
1.57015e-05
0.0108144
1.79276e-05
0.0108043
2.01693e-05
0.0107931
2.24251e-05
0.0107807
2.46936e-05
0.0107672
2.69732e-05
0.0107526
2.92625e-05
0.0107368
3.15598e-05
0.0107199
3.38637e-05
0.0107018
3.61725e-05
0.0106826
3.84845e-05
0.0106622
4.07982e-05
0.0106406
4.31118e-05
0.0106179
4.54236e-05
0.010594
4.77317e-05
0.010569
5.00343e-05
0.0105428
5.23296e-05
0.0105155
5.46154e-05
0.0104871
5.689e-05
0.0104575
5.91511e-05
0.0104268
6.13966e-05
0.010395
6.36244e-05
0.010362
6.58323e-05
0.010328
6.80179e-05
0.0102929
7.01789e-05
0.0102567
7.23129e-05
0.0102195
7.44174e-05
0.0101813
7.649e-05
0.010142
7.85281e-05
0.0101017
8.05292e-05
0.0100605
8.24907e-05
0.0100182
8.441e-05
0.00997507
8.62844e-05
0.009931
8.81115e-05
0.00988604
8.98885e-05
0.00984022
9.1613e-05
0.00979355
9.32824e-05
0.00974609
9.48942e-05
0.00969784
9.6446e-05
0.00964886
9.79355e-05
0.00959915
9.93604e-05
0.00954877
0.000100719
0.00949775
0.000102008
0.00944611
0.000103227
0.0093939
0.000104373
0.00934115
0.000105445
0.00928791
0.000106441
0.0092342
0.000107361
0.00918008
0.000108203
0.00912557
0.000108966
0.00907072
0.000109649
0.00901557
0.000110252
0.00896015
0.000110775
0.00890452
0.000111218
0.0088487
0.00011158
0.00879275
0.000111862
0.00873669
0.000112065
0.00868057
0.00011219
0.00862442
0.000112237
0.0085683
0.000112208
0.00851222
0.000112104
0.00845623
0.000111927
0.00840037
0.000111679
0.00834467
0.000111361
0.00828916
0.000110977
0.00823387
0.000110528
0.00817884
0.000110017
0.0081241
0.000109446
0.00806967
0.000108818
0.00801559
0.000108137
0.00796187
0.000107404
0.00790854
0.000106624
0.00785563
0.000105798
0.00780314
0.000104931
0.00775112
0.000104026
0.00769956
0.000103085
0.00764849
0.000102111
0.00759793
0.000101109
0.00754788
0.00010008
0.00749835
9.9029e-05
0.00744936
9.79576e-05
0.00740092
9.68691e-05
0.00735303
9.57663e-05
0.0073057
9.4652e-05
0.00725893
9.35288e-05
0.00721272
9.23992e-05
0.00716708
9.12655e-05
0.00712202
9.013e-05
0.00707751
8.89948e-05
0.00703358
8.78615e-05
0.00699021
8.67321e-05
0.0069474
8.56089e-05
0.00690516
8.44875e-05
0.00686345
8.33922e-05
0.00682234
8.22429e-05
0.00678161
8.13114e-05
7.97665e-05
0.0062505
-1.50834e-06
0.00625201
-4.52582e-06
0.00625452
-7.54721e-06
0.00625804
-1.05756e-05
0.00626257
-1.36138e-05
0.00626812
-1.66648e-05
0.00627469
-1.97313e-05
0.00628229
-2.28157e-05
0.00629092
-2.59205e-05
0.00630059
-2.90478e-05
0.00631131
-3.21998e-05
0.00632309
-3.53783e-05
0.00633594
-3.85848e-05
0.00634987
-4.18207e-05
0.00636488
-4.5087e-05
0.006381
-4.83844e-05
0.00639822
-5.17133e-05
0.00641657
-5.50736e-05
0.00643605
-5.8465e-05
0.00645666
-6.18865e-05
0.00647843
-6.5337e-05
0.00650137
-6.88146e-05
0.00652547
-7.23171e-05
0.00655074
-7.58417e-05
0.0065772
-7.93851e-05
0.00660485
-8.29435e-05
0.0066337
-8.65125e-05
0.00666373
-9.00871e-05
0.00669497
-9.36618e-05
0.00672739
-9.72305e-05
0.00676101
-0.000100787
0.00679581
-0.000104323
0.00683178
-0.000107832
0.00686892
-0.000111306
0.0069072
-0.000114735
0.00694662
-0.000118112
0.00698714
-0.000121426
0.00702876
-0.000124669
0.00707143
-0.000127831
0.00711513
-0.000130902
0.00715983
-0.000133871
0.00720548
-0.000136731
0.00725206
-0.00013947
0.0072995
-0.000142079
0.00734778
-0.00014455
0.00739684
-0.000146875
0.00744662
-0.000149044
0.00749708
-0.000151051
0.00754815
-0.00015289
0.00759978
-0.000154553
0.00765191
-0.000156038
0.00770447
-0.000157338
0.00775741
-0.000158452
0.00781065
-0.000159378
0.00786414
-0.000160114
0.00791781
-0.00016066
0.0079716
-0.000161018
0.00802545
-0.000161189
0.00807929
-0.000161177
0.00813306
-0.000160986
0.00818671
-0.00016062
0.00824017
-0.000160087
0.0082934
-0.000159391
0.00834634
-0.000158541
0.00839895
-0.000157544
0.00845117
-0.000156409
0.00850296
-0.000155144
0.00855429
-0.00015376
0.00860511
-0.000152266
0.0086554
-0.000150671
0.00870512
-0.000148986
0.00875425
-0.000147221
0.00880276
-0.000145385
0.00885063
-0.000143488
0.00889784
-0.00014154
0.00894439
-0.000139551
0.00899026
-0.000137529
0.00903544
-0.000135484
0.00907993
-0.000133424
0.00912373
-0.000131356
0.00916683
-0.000129289
0.00920924
-0.000127229
0.00925097
-0.000125183
0.00929202
-0.000123156
0.0093324
-0.000121155
0.00937212
-0.000119184
0.00941119
-0.000117247
0.00944963
-0.000115347
0.00948744
-0.000113489
0.00952465
-0.000111674
0.00956127
-0.000109904
0.00959732
-0.000108182
0.0096328
-0.000106507
0.00966774
-0.00010488
0.00970216
-0.000103301
0.00973607
-0.000101769
0.00976948
-0.000100284
0.00980241
-9.88433e-05
0.00983488
-9.74458e-05
0.0098669
-9.60892e-05
0.00989848
-9.47708e-05
0.00992963
-9.34878e-05
0.00996037
-9.2237e-05
0.0099907
-9.10152e-05
0.0100206
-8.98187e-05
0.0100502
-8.86437e-05
0.0100793
-8.74864e-05
0.0101081
-8.63427e-05
0.0101365
-8.52084e-05
0.0101646
-8.40794e-05
0.0101922
-8.29514e-05
0.0102195
-8.18202e-05
0.0102464
-8.06816e-05
0.0102729
-7.95314e-05
0.0102991
-7.83654e-05
0.0103248
-7.71797e-05
0.0103502
-7.59703e-05
0.0103751
-7.47335e-05
0.0103996
-7.34655e-05
0.0104237
-7.2163e-05
0.0104473
-7.08226e-05
0.0104705
-6.94412e-05
0.0104932
-6.80158e-05
0.0105154
-6.65438e-05
0.0105371
-6.50227e-05
0.0105583
-6.34501e-05
0.010579
-6.18241e-05
0.0105991
-6.01427e-05
0.0106186
-5.84045e-05
0.0106375
-5.6608e-05
0.0106558
-5.47521e-05
0.0106734
-5.28358e-05
0.0106904
-5.08585e-05
0.0107067
-4.88197e-05
0.0107223
-4.6719e-05
0.0107372
-4.45565e-05
0.0107513
-4.23321e-05
0.0107647
-4.00463e-05
0.0107773
-3.76994e-05
0.0107891
-3.52921e-05
0.0108001
-3.28252e-05
0.0108102
-3.02995e-05
0.0108195
-2.77162e-05
0.0108279
-2.50765e-05
0.0108354
-2.23815e-05
0.010842
-1.96328e-05
0.0108476
-1.68318e-05
0.0108523
-1.39802e-05
0.010856
-1.10794e-05
0.0108588
-8.13139e-06
0.0108605
-5.13783e-06
0.0108612
-2.1005e-06
0.0108609
9.78539e-07
0.0108596
4.09751e-06
0.0108572
7.25441e-06
0.0108537
1.04472e-05
0.0108491
1.36739e-05
0.0108435
1.69325e-05
0.0108368
2.02208e-05
0.010829
2.35368e-05
0.01082
2.68783e-05
0.0108099
3.02432e-05
0.0107987
3.36293e-05
0.0107864
3.70344e-05
0.0107729
4.04562e-05
0.0107583
4.38925e-05
0.0107425
4.7341e-05
0.0107256
5.07994e-05
0.0107075
5.42651e-05
0.0106882
5.77359e-05
0.0106678
6.12091e-05
0.0106462
6.46822e-05
0.0106235
6.81527e-05
0.0105996
7.16177e-05
0.0105746
7.50745e-05
0.0105484
7.85204e-05
0.010521
8.19522e-05
0.0104926
8.53671e-05
0.010463
8.87619e-05
0.0104322
9.21335e-05
0.0104004
9.54786e-05
0.0103674
9.87937e-05
0.0103333
0.000102076
0.0102982
0.000105321
0.010262
0.000108525
0.0102247
0.000111685
0.0101864
0.000114798
0.0101471
0.000117859
0.0101068
0.000120864
0.0100654
0.00012381
0.0100232
0.000126693
0.00997993
0.000129508
0.00993579
0.000132252
0.00989075
0.000134921
0.00984486
0.000137512
0.00979812
0.000140019
0.00975057
0.00014244
0.00970225
0.000144771
0.00965317
0.000147009
0.00960338
0.000149149
0.00955291
0.000151189
0.0095018
0.000153126
0.00945007
0.000154956
0.00939776
0.000156678
0.00934492
0.000158288
0.00929157
0.000159785
0.00923777
0.000161166
0.00918354
0.00016243
0.00912893
0.000163575
0.00907398
0.000164601
0.00901873
0.000165506
0.00896321
0.000166291
0.00890748
0.000166955
0.00885156
0.000167497
0.0087955
0.00016792
0.00873934
0.000168224
0.00868312
0.000168409
0.00862688
0.000168479
0.00857065
0.000168433
0.00851448
0.000168275
0.0084584
0.000168007
0.00840245
0.000167633
0.00834666
0.000167154
0.00829106
0.000166574
0.00823569
0.000165897
0.00818058
0.000165126
0.00812576
0.000164267
0.00807126
0.000163321
0.0080171
0.000162295
0.00796331
0.000161193
0.00790992
0.000160018
0.00785694
0.000158776
0.0078044
0.000157471
0.00775232
0.000156108
0.00770071
0.000154693
0.00764959
0.000153229
0.00759898
0.000151721
0.00754889
0.000150174
0.00749932
0.000148593
0.0074503
0.000146982
0.00740182
0.000145345
0.0073539
0.000143687
0.00730654
0.000142012
0.00725974
0.000140324
0.00721352
0.000138626
0.00716786
0.000136923
0.00712277
0.000135217
0.00707826
0.000133511
0.00703431
0.000131809
0.00699093
0.000130112
0.00694811
0.000128427
0.00690586
0.00012674
0.00686415
0.000125106
0.00682302
0.000123368
0.00678234
0.000121992
0.00011964
0.0062505
-2.00918e-06
0.006252
-6.02872e-06
0.00625451
-1.00535e-05
0.00625802
-1.40877e-05
0.00626254
-1.81352e-05
0.00626808
-2.21999e-05
0.00627463
-2.62854e-05
0.00628221
-3.0395e-05
0.00629082
-3.45321e-05
0.00630048
-3.86995e-05
0.00631118
-4.29001e-05
0.00632293
-4.71364e-05
0.00633576
-5.14106e-05
0.00634966
-5.57243e-05
0.00636466
-6.00791e-05
0.00638075
-6.4476e-05
0.00639795
-6.89153e-05
0.00641627
-7.33973e-05
0.00643573
-7.79213e-05
0.00645633
-8.24862e-05
0.00647808
-8.70904e-05
0.006501
-9.17317e-05
0.00652509
-9.64068e-05
0.00655036
-0.000101112
0.00657682
-0.000105844
0.00660447
-0.000110596
0.00663332
-0.000115363
0.00666337
-0.000120139
0.00669463
-0.000124915
0.00672708
-0.000129685
0.00676073
-0.000134438
0.00679558
-0.000139166
0.0068316
-0.000143858
0.0068688
-0.000148504
0.00690716
-0.000153091
0.00694665
-0.000157609
0.00698727
-0.000162043
0.00702898
-0.000166383
0.00707177
-0.000170615
0.00711559
-0.000174725
0.00716042
-0.0001787
0.00720622
-0.000182528
0.00725294
-0.000186195
0.00730055
-0.000189689
0.007349
-0.000192997
0.00739823
-0.000196109
0.0074482
-0.000199013
0.00749885
-0.0002017
0.00755012
-0.000204161
0.00760196
-0.000206387
0.00765429
-0.000208373
0.00770706
-0.000210112
0.00776021
-0.000211601
0.00781367
-0.000212836
0.00786738
-0.000213818
0.00792126
-0.000214544
0.00797526
-0.000215018
0.00802931
-0.000215242
0.00808336
-0.00021522
0.00813733
-0.000214957
0.00819117
-0.000214461
0.00824482
-0.000213739
0.00829823
-0.0002128
0.00835134
-0.000211653
0.00840411
-0.000210311
0.00845648
-0.000208783
0.00850842
-0.000207083
0.00855988
-0.000205222
0.00861083
-0.000203215
0.00866123
-0.000201073
0.00871106
-0.00019881
0.00876028
-0.00019644
0.00880887
-0.000193976
0.00885681
-0.000191432
0.00890409
-0.000188819
0.00895069
-0.000186152
0.00899661
-0.000183443
0.00904182
-0.000180702
0.00908634
-0.000177942
0.00913016
-0.000175173
0.00917328
-0.000172406
0.0092157
-0.000169648
0.00925742
-0.00016691
0.00929847
-0.0001642
0.00933884
-0.000161523
0.00937854
-0.000158888
0.00941759
-0.000156299
0.00945601
-0.000153761
0.0094938
-0.000151279
0.00953098
-0.000148856
0.00956757
-0.000146494
0.00960358
-0.000144195
0.00963903
-0.00014196
0.00967395
-0.000139791
0.00970833
-0.000137686
0.00974221
-0.000135645
0.00977559
-0.000133666
0.00980849
-0.000131748
0.00984094
-0.000129888
0.00987293
-0.000128083
0.00990449
-0.000126329
0.00993562
-0.000124623
0.00996635
-0.00012296
0.00999667
-0.000121336
0.0100266
-0.000119746
0.0100561
-0.000118185
0.0100853
-0.000116648
0.0101141
-0.000115129
0.0101425
-0.000113623
0.0101705
-0.000112124
0.0101982
-0.000110626
0.0102255
-0.000109124
0.0102525
-0.000107612
0.010279
-0.000106085
0.0103052
-0.000104536
0.010331
-0.000102961
0.0103563
-0.000101354
0.0103813
-9.97101e-05
0.0104059
-9.80245e-05
0.01043
-9.62926e-05
0.0104537
-9.45099e-05
0.0104769
-9.26721e-05
0.0104997
-9.07754e-05
0.010522
-8.88162e-05
0.0105437
-8.67911e-05
0.010565
-8.46971e-05
0.0105857
-8.25314e-05
0.0106058
-8.02917e-05
0.0106254
-7.79756e-05
0.0106444
-7.55816e-05
0.0106627
-7.31079e-05
0.0106804
-7.05534e-05
0.0106975
-6.79172e-05
0.0107139
-6.51987e-05
0.0107296
-6.23973e-05
0.0107445
-5.95132e-05
0.0107587
-5.65463e-05
0.0107722
-5.34971e-05
0.0107849
-5.03663e-05
0.0107967
-4.71547e-05
0.0108078
-4.38633e-05
0.0108179
-4.04934e-05
0.0108273
-3.70465e-05
0.0108357
-3.3524e-05
0.0108433
-2.99278e-05
0.0108499
-2.62598e-05
0.0108556
-2.25219e-05
0.0108603
-1.87163e-05
0.0108641
-1.48452e-05
0.0108669
-1.09108e-05
0.0108686
-6.91567e-06
0.0108694
-2.86215e-06
0.0108691
1.24715e-06
0.0108678
5.40971e-06
0.0108655
9.6229e-06
0.010862
1.3884e-05
0.0108575
1.81904e-05
0.0108519
2.25393e-05
0.0108452
2.6928e-05
0.0108374
3.13535e-05
0.0108284
3.58132e-05
0.0108184
4.03041e-05
0.0108072
4.48233e-05
0.0107949
4.93679e-05
0.0107814
5.39348e-05
0.0107667
5.85212e-05
0.010751
6.31239e-05
0.010734
6.77397e-05
0.0107159
7.23655e-05
0.0106967
7.69981e-05
0.0106762
8.1634e-05
0.0106546
8.627e-05
0.0106319
9.09024e-05
0.010608
9.55277e-05
0.0105829
0.000100142
0.0105567
0.000104742
0.0105293
0.000109324
0.0105008
0.000113883
0.0104712
0.000118415
0.0104404
0.000122917
0.0104085
0.000127383
0.0103755
0.000131809
0.0103413
0.000136192
0.0103061
0.000140525
0.0102699
0.000144804
0.0102325
0.000149025
0.0101941
0.000153181
0.0101547
0.000157269
0.0101143
0.000161283
0.0100729
0.000165218
0.0100305
0.000169069
0.0099872
0.000172829
0.00994295
0.000176495
0.00989782
0.000180061
0.00985181
0.000183521
0.00980495
0.000186871
0.00975729
0.000190105
0.00970884
0.000193219
0.00965964
0.000196209
0.00960972
0.000199068
0.00955912
0.000201793
0.00950786
0.000204381
0.00945599
0.000206826
0.00940355
0.000209126
0.00935056
0.000211276
0.00929707
0.000213275
0.00924311
0.00021512
0.00918874
0.000216808
0.00913397
0.000218337
0.00907887
0.000219706
0.00902346
0.000220914
0.00896779
0.00022196
0.0089119
0.000222845
0.00885583
0.000223568
0.00879962
0.000224131
0.00874331
0.000224534
0.00868694
0.000224779
0.00863055
0.000224868
0.00857418
0.000224804
0.00851787
0.000224589
0.00846165
0.000224228
0.00840556
0.000223723
0.00834963
0.000223079
0.0082939
0.000222301
0.00823841
0.000221392
0.00818318
0.000220358
0.00812824
0.000219205
0.00807362
0.000217938
0.00801935
0.000216562
0.00796546
0.000215085
0.00791197
0.000213511
0.0078589
0.000211847
0.00780627
0.0002101
0.0077541
0.000208275
0.00770242
0.000206379
0.00765123
0.000204419
0.00760055
0.000202401
0.00755039
0.000200331
0.00750077
0.000198215
0.00745169
0.00019606
0.00740316
0.000193871
0.0073552
0.000191653
0.00730779
0.000189413
0.00726096
0.000187156
0.0072147
0.000184886
0.00716902
0.000182609
0.0071239
0.000180329
0.00707937
0.000178049
0.0070354
0.000175776
0.006992
0.000173508
0.00694917
0.000171259
0.00690691
0.000169005
0.00686518
0.000166827
0.00682405
0.000164501
0.00678337
0.000162674
0.000159525
0.0062505
-2.50842e-06
0.006252
-7.52674e-06
0.0062545
-1.25516e-05
0.006258
-1.75885e-05
0.0062625
-2.26423e-05
0.00626802
-2.77178e-05
0.00627456
-3.28195e-05
0.00628211
-3.79517e-05
0.0062907
-4.31186e-05
0.00630032
-4.83241e-05
0.00631099
-5.35716e-05
0.00632272
-5.88642e-05
0.00633552
-6.42049e-05
0.00634939
-6.95958e-05
0.00636435
-7.50389e-05
0.00638041
-8.05353e-05
0.00639758
-8.60859e-05
0.00641587
-9.16907e-05
0.0064353
-9.73491e-05
0.00645587
-0.00010306
0.0064776
-0.000108821
0.0065005
-0.00011463
0.00652458
-0.000120482
0.00654984
-0.000126373
0.00657629
-0.000132299
0.00660395
-0.000138251
0.00663281
-0.000144224
0.00666288
-0.000150209
0.00669416
-0.000156196
0.00672665
-0.000162176
0.00676035
-0.000168137
0.00679525
-0.000174068
0.00683135
-0.000179954
0.00686863
-0.000185784
0.00690708
-0.000191542
0.00694668
-0.000197213
0.00698742
-0.000202781
0.00702927
-0.000208231
0.0070722
-0.000213546
0.00711618
-0.00021871
0.00716119
-0.000223704
0.00720718
-0.000228514
0.0072541
-0.000233122
0.00730193
-0.000237513
0.0073506
-0.000241671
0.00740007
-0.000245581
0.00745029
-0.000249231
0.0075012
-0.000252607
0.00755273
-0.000255698
0.00760484
-0.000258494
0.00765745
-0.000260986
0.00771051
-0.000263168
0.00776395
-0.000265035
0.00781769
-0.000266582
0.00787168
-0.000267809
0.00792585
-0.000268715
0.00798014
-0.000269302
0.00803447
-0.000269574
0.00808878
-0.000269536
0.00814302
-0.000269195
0.00819712
-0.00026856
0.00825102
-0.00026764
0.00830467
-0.000266448
0.00835801
-0.000264995
0.008411
-0.000263295
0.00846358
-0.000261363
0.00851571
-0.000259214
0.00856735
-0.000256863
0.00861846
-0.000254328
0.00866902
-0.000251625
0.00871898
-0.000248771
0.00876832
-0.000245783
0.00881702
-0.000242678
0.00886506
-0.000239473
0.00891243
-0.000236183
0.0089591
-0.000232826
0.00900507
-0.000229416
0.00905034
-0.000225968
0.00909489
-0.000222497
0.00913874
-0.000219017
0.00918187
-0.000215539
0.0092243
-0.000212075
0.00926602
-0.000208637
0.00930706
-0.000205234
0.00934741
-0.000201876
0.00938709
-0.00019857
0.00942612
-0.000195324
0.0094645
-0.000192144
0.00950226
-0.000189034
0.0095394
-0.000185999
0.00957595
-0.000183042
0.00961192
-0.000180166
0.00964733
-0.000177371
0.0096822
-0.000174659
0.00971654
-0.000172029
0.00975037
-0.000169479
0.00978372
-0.000167009
0.00981658
-0.000164616
0.00984899
-0.000162295
0.00988095
-0.000160044
0.00991248
-0.000157859
0.00994359
-0.000155733
0.0099743
-0.000153663
0.0100046
-0.000151641
0.0100345
-0.000149663
0.0100641
-0.000147721
0.0100932
-0.000145809
0.010122
-0.000143921
0.0101504
-0.000142048
0.0101785
-0.000140184
0.0102062
-0.000138322
0.0102335
-0.000136455
0.0102605
-0.000134575
0.0102871
-0.000132675
0.0103133
-0.000130749
0.0103391
-0.000128789
0.0103645
-0.000126789
0.0103896
-0.000124743
0.0104142
-0.000122644
0.0104384
-0.000120487
0.0104621
-0.000118266
0.0104854
-0.000115975
0.0105083
-0.00011361
0.0105306
-0.000111167
0.0105525
-0.000108641
0.0105738
-0.000106027
0.0105946
-0.000103324
0.0106148
-0.000100528
0.0106345
-9.76353e-05
0.0106536
-9.46447e-05
0.010672
-9.15541e-05
0.0106898
-8.83619e-05
0.010707
-8.5067e-05
0.0107234
-8.16685e-05
0.0107392
-7.81661e-05
0.0107543
-7.45597e-05
0.0107686
-7.08493e-05
0.0107821
-6.70357e-05
0.0107949
-6.31195e-05
0.0108068
-5.91019e-05
0.0108179
-5.49843e-05
0.0108282
-5.07681e-05
0.0108376
-4.64553e-05
0.0108461
-4.20478e-05
0.0108537
-3.75478e-05
0.0108604
-3.29578e-05
0.0108662
-2.82802e-05
0.010871
-2.35177e-05
0.0108748
-1.86731e-05
0.0108777
-1.37494e-05
0.0108795
-8.7495e-06
0.0108803
-3.6765e-06
0.0108801
1.46636e-06
0.0108788
6.67589e-06
0.0108765
1.19488e-05
0.0108731
1.72818e-05
0.0108686
2.26714e-05
0.0108631
2.81142e-05
0.0108564
3.36068e-05
0.0108486
3.91456e-05
0.0108397
4.4727e-05
0.0108296
5.03476e-05
0.0108184
5.60037e-05
0.0108061
6.16916e-05
0.0107926
6.74075e-05
0.010778
7.31478e-05
0.0107622
7.89086e-05
0.0107453
8.4686e-05
0.0107272
9.0476e-05
0.0107079
9.62745e-05
0.0106875
0.000102077
0.0106659
0.000107881
0.0106431
0.000113679
0.0106191
0.00011947
0.010594
0.000125246
0.0105678
0.000131005
0.0105403
0.000136741
0.0105118
0.000142449
0.0104821
0.000148124
0.0104512
0.000153761
0.0104193
0.000159354
0.0103862
0.000164897
0.010352
0.000170385
0.0103167
0.000175812
0.0102803
0.000181172
0.0102429
0.000186458
0.0102044
0.000191665
0.0101649
0.000196786
0.0101244
0.000201815
0.0100828
0.000206744
0.0100403
0.000211568
0.00999688
0.00021628
0.0099525
0.000220874
0.00990722
0.000225341
0.00986106
0.000229678
0.00981406
0.000233875
0.00976623
0.000237929
0.00971762
0.000241831
0.00966825
0.000245577
0.00961816
0.00024916
0.00956738
0.000252576
0.00951594
0.000255818
0.00946388
0.000258882
0.00941125
0.000261764
0.00935806
0.000264459
0.00930438
0.000266963
0.00925022
0.000269273
0.00919564
0.000271387
0.00914068
0.000273301
0.00908537
0.000275015
0.00902976
0.000276527
0.00897388
0.000277835
0.00891779
0.000278941
0.00886151
0.000279844
0.0088051
0.000280545
0.00874859
0.000281045
0.00869202
0.000281348
0.00863543
0.000281455
0.00857887
0.000281369
0.00852236
0.000281095
0.00846595
0.000280636
0.00840968
0.000279997
0.00835357
0.000279183
0.00829767
0.000278201
0.00824201
0.000277055
0.00818662
0.000275753
0.00813152
0.0002743
0.00807675
0.000272705
0.00802234
0.000270974
0.00796831
0.000269115
0.00791469
0.000267135
0.00786149
0.000265043
0.00780875
0.000262846
0.00775647
0.000260553
0.00770468
0.000258171
0.00765339
0.000255708
0.00760262
0.000253173
0.00755237
0.000250573
0.00750267
0.000247916
0.00745352
0.00024521