/*--------------------------------*- C++ -*----------------------------------*\
| =========                 |                                                 |
| \\      /  F ield         | OpenFOAM: The Open Source CFD Toolbox           |
|  \\    /   O peration     | Version:  2306                                  |
|   \\  /    A nd           | Website:  www.openfoam.com                      |
|    \\/     M anipulation  |                                                 |
\*---------------------------------------------------------------------------*/
FoamFile
{
    version     2.0;
    format      ascii;
    arch        "LSB;label=32;scalar=64";
    class       volScalarField;
    location    "11";
    object      T;
}
// * * * * * * * * * * * * * * * * * * * * * * * * * * * * * * * * * * * * * //

dimensions      [0 0 0 1 0 0 0];

internalField   nonuniform List<scalar> 
32768
(
300
300
300
300
300
300
300
300
300
300
300
300
300
300
300
300
300
300
300
300
300
300
300
300
300
300
300
300
300
300
300
300
300
300
300
300
300
300
300
300
300
300
300
300
300
300
300
300
300
300
300
300
300
300
300
300
300
300
300
300
300
300
300
300
300
300
300
300
300
300
300
300
300
300
300
300
300
300
300
300
300
300
300
300
300
299.999
299.999
299.999
299.999
299.999
299.999
299.999
299.999
299.998
299.998
299.998
299.998
299.997
299.997
299.997
299.996
299.996
299.996
299.995
299.995
299.994
299.993
299.993
299.992
299.991
299.99
299.989
299.988
299.987
299.986
299.984
299.983
299.981
299.98
299.978
299.976
299.974
299.971
299.969
299.966
299.964
299.961
299.957
299.954
299.95
299.947
299.943
299.938
299.934
299.929
299.924
299.918
299.913
299.907
299.9
299.893
299.886
299.879
299.871
299.863
299.854
299.845
299.836
299.826
299.815
299.804
299.793
299.781
299.769
299.756
299.743
299.729
299.715
299.7
299.684
299.668
299.652
299.634
299.617
299.598
299.58
299.56
299.54
299.519
299.498
299.476
299.454
299.431
299.407
299.383
299.358
299.332
299.306
299.279
299.252
299.224
299.196
299.167
299.137
299.107
299.077
299.045
299.014
298.981
298.949
298.915
298.882
298.847
298.813
298.778
298.742
298.706
298.669
298.633
298.595
298.558
298.52
298.481
298.442
298.403
298.364
298.324
298.284
298.244
298.204
298.163
298.122
298.081
298.04
297.998
297.956
297.914
297.872
297.83
297.788
297.745
297.703
297.66
297.618
297.575
297.532
297.489
297.446
297.403
297.36
297.316
297.273
297.228
297.182
297.133
297.076
297.003
296.895
296.711
296.365
295.674
294.252
291.29
285.1
272.175
245.271
189.489
74.329
-162.354
-646.613
-1633.01
-3633.34
-7672.36
-15792.5
-32051.1
-64457.3
300
300
300
300
300
300
300
300
300
300
300
300
300
300
300
300
300
300
300
300
300
300
300
300
300
300
300
300
300
300
300
300
300
300
300
300
300
300
300
300
300
300
300
300
300
300
300
300
300
300
300
300
300
300
300
300
300
300
300
300
300
300
300
300
300
300
300
300
300
300
300
300
300
300
300
300
300
300
300
300
300
300
300
300
299.999
299.999
299.999
299.999
299.999
299.999
299.999
299.999
299.998
299.998
299.998
299.998
299.998
299.997
299.997
299.997
299.996
299.996
299.995
299.995
299.994
299.993
299.993
299.992
299.991
299.99
299.989
299.988
299.987
299.986
299.984
299.983
299.981
299.98
299.978
299.976
299.974
299.971
299.969
299.966
299.964
299.961
299.957
299.954
299.95
299.947
299.943
299.938
299.934
299.929
299.924
299.918
299.912
299.906
299.9
299.893
299.886
299.879
299.871
299.862
299.854
299.845
299.835
299.825
299.815
299.804
299.792
299.781
299.768
299.755
299.742
299.728
299.714
299.699
299.683
299.667
299.651
299.634
299.616
299.597
299.579
299.559
299.539
299.518
299.497
299.475
299.453
299.43
299.406
299.382
299.357
299.332
299.306
299.279
299.252
299.224
299.196
299.167
299.138
299.108
299.077
299.046
299.014
298.982
298.95
298.917
298.883
298.849
298.815
298.78
298.744
298.709
298.672
298.636
298.599
298.561
298.524
298.486
298.447
298.408
298.369
298.33
298.29
298.251
298.21
298.17
298.129
298.089
298.048
298.006
297.965
297.923
297.882
297.84
297.798
297.756
297.714
297.671
297.629
297.586
297.544
297.501
297.459
297.416
297.373
297.33
297.287
297.244
297.2
297.154
297.105
297.048
296.975
296.867
296.684
296.338
295.648
294.226
291.266
285.077
272.156
245.258
189.483
74.3348
-162.335
-646.587
-1633.01
-3633.49
-7673
-15794.4
-32056.6
-64471.3
300
300
300
300
300
300
300
300
300
300
300
300
300
300
300
300
300
300
300
300
300
300
300
300
300
300
300
300
300
300
300
300
300
300
300
300
300
300
300
300
300
300
300
300
300
300
300
300
300
300
300
300
300
300
300
300
300
300
300
300
300
300
300
300
300
300
300
300
300
300
300
300
300
300
300
300
300
300
300
300
300
300
300
299.999
299.999
299.999
299.999
299.999
299.999
299.999
299.999
299.998
299.998
299.998
299.998
299.997
299.997
299.997
299.996
299.996
299.995
299.995
299.994
299.994
299.993
299.992
299.991
299.99
299.989
299.988
299.987
299.986
299.985
299.983
299.982
299.98
299.978
299.976
299.974
299.972
299.969
299.967
299.964
299.961
299.958
299.955
299.951
299.947
299.943
299.939
299.934
299.929
299.924
299.919
299.913
299.907
299.9
299.893
299.886
299.879
299.871
299.863
299.854
299.845
299.835
299.825
299.815
299.804
299.792
299.78
299.768
299.755
299.742
299.728
299.713
299.698
299.683
299.667
299.65
299.633
299.615
299.597
299.578
299.558
299.538
299.517
299.496
299.474
299.452
299.429
299.405
299.381
299.356
299.331
299.305
299.279
299.252
299.224
299.196
299.167
299.138
299.108
299.078
299.047
299.016
298.984
298.952
298.919
298.886
298.852
298.818
298.784
298.749
298.713
298.678
298.642
298.605
298.568
298.531
298.493
298.456
298.417
298.379
298.34
298.301
298.262
298.222
298.182
298.143
298.102
298.062
298.021
297.981
297.94
297.899
297.857
297.816
297.775
297.733
297.691
297.65
297.608
297.566
297.524
297.482
297.44
297.398
297.355
297.313
297.271
297.228
297.185
297.142
297.097
297.048
296.992
296.92
296.813
296.63
296.285
295.595
294.176
291.218
285.034
272.12
245.233
189.478
74.3587
-162.274
-646.496
-1632.95
-3633.69
-7674.09
-15798.1
-32067.2
-64498.7
300
300
300
300
300
300
300
300
300
300
300
300
300
300
300
300
300
300
300
300
300
300
300
300
300
300
300
300
300
300
300
300
300
300
300
300
300
300
300
300
300
300
300
300
300
300
300
300
300
300
300
300
300
300
300
300
300
300
300
300
300
300
300
300
300
300
300
300
300
300
300
300
300
300
300
300
300
300
300
300
300
299.999
299.999
299.999
299.999
299.999
299.999
299.999
299.999
299.998
299.998
299.998
299.998
299.997
299.997
299.997
299.996
299.996
299.995
299.995
299.994
299.993
299.993
299.992
299.991
299.99
299.989
299.988
299.987
299.986
299.984
299.983
299.981
299.979
299.977
299.975
299.973
299.971
299.968
299.966
299.963
299.96
299.956
299.953
299.949
299.945
299.941
299.936
299.931
299.926
299.921
299.915
299.909
299.902
299.896
299.889
299.881
299.873
299.865
299.856
299.847
299.837
299.827
299.817
299.806
299.795
299.783
299.77
299.757
299.744
299.73
299.715
299.7
299.685
299.669
299.652
299.635
299.617
299.598
299.579
299.56
299.54
299.519
299.498
299.476
299.453
299.43
299.407
299.382
299.358
299.332
299.306
299.28
299.253
299.226
299.198
299.169
299.14
299.11
299.08
299.05
299.019
298.987
298.955
298.923
298.89
298.857
298.823
298.789
298.754
298.719
298.684
298.648
298.612
298.576
298.54
298.503
298.465
298.428
298.39
298.352
298.314
298.275
298.236
298.197
298.158
298.119
298.079
298.04
298
297.96
297.92
297.879
297.839
297.798
297.758
297.717
297.676
297.635
297.594
297.553
297.512
297.471
297.43
297.388
297.347
297.306
297.264
297.223
297.181
297.14
297.098
297.055
297.011
296.963
296.908
296.837
296.73
296.548
296.205
295.517
294.1
291.146
284.969
272.066
245.198
189.474
74.3998
-162.173
-646.343
-1632.84
-3633.94
-7675.67
-15803.6
-32082.8
-64539.7
300
300
300
300
300
300
300
300
300
300
300
300
300
300
300
300
300
300
300
300
300
300
300
300
300
300
300
300
300
300
300
300
300
300
300
300
300
300
300
300
300
300
300
300
300
300
300
300
300
300
300
300
300
300
300
300
300
300
300
300
300
300
300
300
300
300
300
300
300
300
300
300
300
300
300
300
300
300
300
299.999
299.999
299.999
299.999
299.999
299.999
299.999
299.999
299.998
299.998
299.998
299.998
299.997
299.997
299.996
299.996
299.996
299.995
299.994
299.994
299.993
299.992
299.992
299.991
299.99
299.989
299.987
299.986
299.985
299.983
299.982
299.98
299.978
299.976
299.974
299.971
299.969
299.966
299.963
299.96
299.956
299.953
299.949
299.945
299.941
299.936
299.931
299.926
299.92
299.914
299.908
299.902
299.895
299.887
299.88
299.871
299.863
299.854
299.844
299.835
299.824
299.813
299.802
299.79
299.778
299.765
299.752
299.738
299.723
299.708
299.692
299.676
299.66
299.642
299.624
299.606
299.587
299.567
299.547
299.526
299.505
299.483
299.46
299.437
299.413
299.389
299.364
299.339
299.313
299.286
299.259
299.232
299.203
299.175
299.146
299.116
299.086
299.055
299.024
298.993
298.961
298.929
298.896
298.863
298.829
298.795
298.761
298.726
298.691
298.656
298.62
298.585
298.548
298.512
298.475
298.438
298.401
298.364
298.326
298.288
298.25
298.212
298.173
298.135
298.096
298.057
298.018
297.979
297.94
297.901
297.861
297.822
297.782
297.743
297.703
297.663
297.623
297.584
297.544
297.504
297.464
297.424
297.383
297.343
297.303
297.263
297.223
297.183
297.142
297.102
297.062
297.021
296.98
296.939
296.896
296.849
296.795
296.725
296.62
296.44
296.098
295.412
293.999
291.05
284.882
271.994
245.152
189.468
74.4557
-162.037
-646.137
-1632.68
-3634.26
-7677.78
-15810.9
-32103.8
-64594.4
300
300
300
300
300
300
300
300
300
300
300
300
300
300
300
300
300
300
300
300
300
300
300
300
300
300
300
300
300
300
300
300
300
300
300
300
300
300
300
300
300
300
300
300
300
300
300
300
300
300
300
300
300
300
300
300
300
300
300
300
300
300
300
300
300
300
300
300
300
300
300
300
300
300
300
300
300
299.999
299.999
299.999
299.999
299.999
299.999
299.999
299.998
299.998
299.998
299.998
299.997
299.997
299.997
299.996
299.996
299.995
299.995
299.994
299.993
299.993
299.992
299.991
299.99
299.989
299.988
299.986
299.985
299.983
299.982
299.98
299.978
299.976
299.974
299.971
299.969
299.966
299.963
299.959
299.956
299.952
299.948
299.944
299.94
299.935
299.93
299.924
299.918
299.912
299.906
299.899
299.891
299.884
299.876
299.867
299.858
299.848
299.839
299.828
299.817
299.806
299.794
299.781
299.768
299.754
299.74
299.725
299.71
299.694
299.677
299.66
299.642
299.624
299.605
299.585
299.565
299.544
299.523
299.501
299.478
299.455
299.431
299.406
299.381
299.356
299.329
299.302
299.275
299.247
299.219
299.19
299.16
299.13
299.1
299.069
299.038
299.006
298.974
298.941
298.908
298.874
298.841
298.806
298.772
298.737
298.702
298.666
298.631
298.595
298.559
298.522
298.485
298.449
298.412
298.374
298.337
298.299
298.262
298.224
298.186
298.148
298.11
298.071
298.033
297.995
297.956
297.918
297.879
297.841
297.802
297.763
297.725
297.686
297.647
297.608
297.57
297.531
297.492
297.453
297.415
297.376
297.337
297.298
297.26
297.221
297.182
297.143
297.105
297.066
297.027
296.988
296.95
296.911
296.872
296.832
296.792
296.751
296.706
296.653
296.585
296.481
296.303
295.963
295.281
293.871
290.929
284.772
271.903
245.093
189.46
74.5234
-161.87
-645.885
-1632.49
-3634.69
-7680.45
-15820.1
-32130.1
-64663
300
300
300
300
300
300
300
300
300
300
300
300
300
300
300
300
300
300
300
300
300
300
300
300
300
300
300
300
300
300
300
300
300
300
300
300
300
300
300
300
300
300
300
300
300
300
300
300
300
300
300
300
300
300
300
300
300
300
300
300
300
300
300
300
300
300
300
300
300
300
300
300
300
300
300
299.999
299.999
299.999
299.999
299.999
299.999
299.999
299.998
299.998
299.998
299.998
299.997
299.997
299.996
299.996
299.996
299.995
299.994
299.994
299.993
299.992
299.991
299.99
299.989
299.988
299.986
299.985
299.983
299.982
299.98
299.978
299.976
299.973
299.971
299.968
299.965
299.962
299.959
299.955
299.951
299.947
299.943
299.938
299.933
299.927
299.922
299.915
299.909
299.902
299.895
299.887
299.879
299.87
299.861
299.851
299.841
299.83
299.819
299.807
299.795
299.782
299.769
299.755
299.74
299.724
299.708
299.692
299.675
299.657
299.638
299.619
299.599
299.578
299.557
299.535
299.513
299.489
299.465
299.441
299.416
299.39
299.363
299.336
299.309
299.28
299.251
299.222
299.192
299.161
299.13
299.099
299.067
299.034
299.001
298.968
298.934
298.899
298.865
298.83
298.794
298.759
298.723
298.686
298.65
298.613
298.576
298.539
298.501
298.464
298.426
298.388
298.35
298.312
298.274
298.236
298.197
298.159
298.12
298.082
298.044
298.005
297.967
297.928
297.89
297.852
297.813
297.775
297.737
297.699
297.661
297.623
297.585
297.547
297.509
297.471
297.434
297.396
297.359
297.321
297.284
297.246
297.209
297.172
297.135
297.098
297.061
297.024
296.987
296.95
296.913
296.876
296.839
296.802
296.765
296.728
296.691
296.653
296.615
296.575
296.532
296.482
296.415
296.314
296.138
295.801
295.122
293.718
290.784
284.64
271.793
245.02
189.447
74.5997
-161.679
-645.597
-1632.29
-3635.26
-7683.73
-15831.2
-32161.9
-64745.8
300
300
300
300
300
300
300
300
300
300
300
300
300
300
300
300
300
300
300
300
300
300
300
300
300
300
300
300
300
300
300
300
300
300
300
300
300
300
300
300
300
300
300
300
300
300
300
300
300
300
300
300
300
300
300
300
300
300
300
300
300
300
300
300
300
300
300
300
300
300
300
300
300
299.999
299.999
299.999
299.999
299.999
299.999
299.999
299.998
299.998
299.998
299.997
299.997
299.997
299.996
299.996
299.995
299.995
299.994
299.993
299.992
299.991
299.99
299.989
299.988
299.987
299.985
299.984
299.982
299.98
299.978
299.976
299.973
299.971
299.968
299.965
299.962
299.958
299.954
299.95
299.946
299.941
299.936
299.931
299.925
299.919
299.912
299.905
299.898
299.89
299.882
299.873
299.864
299.854
299.844
299.833
299.821
299.809
299.796
299.783
299.769
299.754
299.739
299.723
299.706
299.689
299.67
299.652
299.632
299.612
299.591
299.569
299.546
299.523
299.499
299.474
299.448
299.422
299.395
299.368
299.339
299.31
299.28
299.25
299.219
299.187
299.155
299.122
299.089
299.055
299.02
298.985
298.95
298.914
298.877
298.841
298.803
298.766
298.728
298.69
298.651
298.613
298.574
298.535
298.495
298.456
298.416
298.376
298.337
298.297
298.257
298.217
298.177
298.137
298.097
298.057
298.017
297.978
297.938
297.899
297.859
297.82
297.781
297.742
297.703
297.665
297.626
297.588
297.55
297.512
297.474
297.437
297.4
297.363
297.326
297.289
297.252
297.216
297.18
297.144
297.108
297.072
297.036
297.001
296.965
296.93
296.895
296.86
296.825
296.79
296.755
296.72
296.686
296.651
296.616
296.582
296.547
296.512
296.477
296.442
296.406
296.369
296.328
296.28
296.216
296.117
295.943
295.61
294.935
293.536
290.612
284.483
271.662
244.931
189.427
74.6807
-161.469
-645.286
-1632.1
-3635.99
-7687.7
-15844.5
-32199.4
-64842.9
300
300
300
300
300
300
300
300
300
300
300
300
300
300
300
300
300
300
300
300
300
300
300
300
300
300
300
300
300
300
300
300
300
300
300
300
300
300
300
300
300
300
300
300
300
300
300
300
300
300
300
300
300
300
300
300
300
300
300
300
300
300
300
300
300
300
300
300
300
300
300
299.999
299.999
299.999
299.999
299.999
299.999
299.999
299.998
299.998
299.998
299.997
299.997
299.997
299.996
299.996
299.995
299.994
299.993
299.993
299.992
299.991
299.99
299.988
299.987
299.985
299.984
299.982
299.98
299.978
299.976
299.973
299.971
299.968
299.964
299.961
299.957
299.953
299.949
299.944
299.94
299.934
299.929
299.922
299.916
299.909
299.902
299.894
299.885
299.877
299.867
299.857
299.847
299.835
299.824
299.811
299.798
299.784
299.77
299.754
299.738
299.722
299.704
299.686
299.667
299.647
299.626
299.604
299.582
299.559
299.535
299.51
299.484
299.457
299.43
299.401
299.372
299.343
299.312
299.28
299.248
299.215
299.181
299.147
299.112
299.076
299.039
299.002
298.965
298.926
298.888
298.848
298.809
298.769
298.728
298.687
298.646
298.604
298.562
298.52
298.477
298.435
298.392
298.349
298.306
298.263
298.22
298.177
298.134
298.091
298.048
298.006
297.963
297.921
297.878
297.836
297.794
297.753
297.712
297.67
297.63
297.589
297.549
297.509
297.47
297.43
297.392
297.353
297.315
297.277
297.24
297.202
297.166
297.129
297.093
297.057
297.022
296.987
296.952
296.917
296.883
296.849
296.815
296.781
296.748
296.715
296.682
296.649
296.616
296.584
296.551
296.519
296.487
296.455
296.423
296.391
296.359
296.327
296.295
296.263
296.231
296.198
296.165
296.13
296.092
296.047
295.985
295.889
295.719
295.389
294.719
293.328
290.414
284.302
271.51
244.826
189.397
74.7622
-161.249
-644.964
-1631.95
-3636.93
-7692.41
-15859.9
-32242.7
-64954.9
300
300
300
300
300
300
300
300
300
300
300
300
300
300
300
300
300
300
300
300
300
300
300
300
300
300
300
300
300
300
300
300
300
300
300
300
300
300
300
300
300
300
300
300
300
300
300
300
300
300
300
300
300
300
300
300
300
300
300
300
300
300
300
300
300
300
300
300
300
299.999
299.999
299.999
299.999
299.999
299.999
299.998
299.998
299.998
299.998
299.997
299.997
299.996
299.996
299.995
299.995
299.994
299.993
299.992
299.991
299.99
299.989
299.987
299.986
299.984
299.982
299.98
299.978
299.976
299.973
299.971
299.968
299.964
299.961
299.957
299.953
299.948
299.943
299.938
299.933
299.927
299.92
299.913
299.906
299.898
299.89
299.881
299.871
299.861
299.85
299.839
299.827
299.814
299.801
299.787
299.772
299.756
299.739
299.722
299.703
299.684
299.664
299.643
299.621
299.598
299.575
299.55
299.524
299.497
299.47
299.441
299.412
299.381
299.35
299.317
299.284
299.25
299.214
299.178
299.141
299.104
299.065
299.026
298.986
298.945
298.903
298.861
298.818
298.775
298.731
298.687
298.642
298.596
298.551
298.504
298.458
298.411
298.364
298.317
298.27
298.223
298.175
298.128
298.08
298.033
297.986
297.939
297.892
297.845
297.798
297.752
297.706
297.66
297.615
297.57
297.525
297.481
297.437
297.394
297.351
297.309
297.267
297.226
297.185
297.145
297.105
297.066
297.028
296.99
296.952
296.915
296.879
296.843
296.807
296.772
296.738
296.704
296.67
296.637
296.604
296.572
296.54
296.509
296.477
296.446
296.416
296.386
296.356
296.326
296.296
296.267
296.238
296.209
296.18
296.151
296.122
296.093
296.065
296.036
296.007
295.979
295.95
295.921
295.891
295.859
295.824
295.782
295.724
295.631
295.464
295.139
294.474
293.09
290.188
284.095
271.335
244.703
189.355
74.8393
-161.026
-644.646
-1631.85
-3638.12
-7697.94
-15877.7
-32292.2
-65082
300
300
300
300
300
300
300
300
300
300
300
300
300
300
300
300
300
300
300
300
300
300
300
300
300
300
300
300
300
300
300
300
300
300
300
300
300
300
300
300
300
300
300
300
300
300
300
300
300
300
300
300
300
300
300
300
300
300
300
300
300
300
300
300
300
300
300
299.999
299.999
299.999
299.999
299.999
299.999
299.998
299.998
299.998
299.998
299.997
299.997
299.996
299.996
299.995
299.994
299.993
299.993
299.992
299.99
299.989
299.988
299.986
299.985
299.983
299.981
299.979
299.976
299.974
299.971
299.968
299.964
299.961
299.957
299.952
299.948
299.943
299.937
299.931
299.925
299.918
299.911
299.903
299.895
299.886
299.877
299.866
299.856
299.844
299.832
299.819
299.805
299.791
299.775
299.759
299.742
299.724
299.705
299.685
299.664
299.642
299.619
299.595
299.57
299.543
299.516
299.488
299.458
299.427
299.396
299.363
299.329
299.294
299.257
299.22
299.182
299.142
299.102
299.061
299.018
298.975
298.931
298.885
298.84
298.793
298.745
298.697
298.648
298.599
298.548
298.498
298.447
298.395
298.343
298.291
298.238
298.185
298.133
298.079
298.026
297.973
297.92
297.867
297.814
297.761
297.709
297.657
297.605
297.553
297.502
297.451
297.401
297.351
297.302
297.253
297.205
297.158
297.111
297.065
297.02
296.975
296.931
296.888
296.845
296.804
296.763
296.723
296.683
296.645
296.607
296.57
296.533
296.498
296.463
296.429
296.395
296.362
296.33
296.298
296.267
296.237
296.207
296.178
296.149
296.121
296.093
296.066
296.038
296.012
295.985
295.959
295.933
295.908
295.882
295.857
295.832
295.807
295.782
295.757
295.733
295.708
295.683
295.658
295.633
295.608
295.582
295.554
295.523
295.484
295.43
295.341
295.178
294.858
294.199
292.824
289.934
283.862
271.135
244.558
189.297
74.9064
-160.811
-644.349
-1631.84
-3639.62
-7704.39
-15898
-32348.1
-65224.7
300
300
300
300
300
300
300
300
300
300
300
300
300
300
300
300
300
300
300
300
300
300
300
300
300
300
300
300
300
300
300
300
300
300
300
300
300
300
300
300
300
300
300
300
300
300
300
300
300
300
300
300
300
300
300
300
300
300
300
300
300
300
300
300
300
299.999
299.999
299.999
299.999
299.999
299.999
299.998
299.998
299.998
299.998
299.997
299.997
299.996
299.995
299.995
299.994
299.993
299.992
299.991
299.99
299.989
299.987
299.985
299.984
299.982
299.979
299.977
299.974
299.971
299.968
299.965
299.961
299.957
299.952
299.948
299.942
299.937
299.931
299.924
299.917
299.909
299.901
299.892
299.883
299.873
299.862
299.851
299.838
299.825
299.812
299.797
299.781
299.765
299.747
299.729
299.709
299.688
299.667
299.644
299.62
299.595
299.568
299.541
299.512
299.482
299.45
299.418
299.384
299.348
299.312
299.274
299.235
299.194
299.152
299.11
299.065
299.02
298.973
298.926
298.877
298.827
298.776
298.724
298.671
298.617
298.563
298.507
298.451
298.394
298.337
298.279
298.22
298.162
298.102
298.043
297.983
297.923
297.863
297.803
297.742
297.682
297.622
297.563
297.503
297.444
297.385
297.327
297.269
297.212
297.155
297.099
297.043
296.989
296.935
296.882
296.829
296.778
296.727
296.678
296.629
296.581
296.535
296.489
296.444
296.401
296.358
296.317
296.276
296.236
296.198
296.16
296.124
296.089
296.054
296.02
295.988
295.956
295.925
295.895
295.866
295.838
295.81
295.783
295.757
295.732
295.707
295.683
295.659
295.635
295.613
295.59
295.568
295.547
295.525
295.504
295.483
295.463
295.442
295.422
295.402
295.382
295.361
295.341
295.321
295.3
295.28
295.259
295.237
295.214
295.187
295.152
295.102
295.018
294.86
294.545
293.893
292.527
289.651
283.601
270.909
244.391
189.22
74.9573
-160.614
-644.093
-1631.95
-3641.49
-7711.87
-15921
-32410.6
-65383.6
300
300
300
300
300
300
300
300
300
300
300
300
300
300
300
300
300
300
300
300
300
300
300
300
300
300
300
300
300
300
300
300
300
300
300
300
300
300
300
300
300
300
300
300
300
300
300
300
300
300
300
300
300
300
300
300
300
300
300
300
300
300
300
300
299.999
299.999
299.999
299.999
299.999
299.999
299.998
299.998
299.998
299.997
299.997
299.996
299.995
299.995
299.994
299.993
299.992
299.991
299.989
299.988
299.986
299.984
299.982
299.98
299.978
299.975
299.972
299.969
299.965
299.962
299.957
299.953
299.948
299.942
299.937
299.93
299.923
299.916
299.908
299.9
299.89
299.881
299.87
299.859
299.846
299.833
299.82
299.805
299.789
299.772
299.755
299.736
299.716
299.695
299.673
299.649
299.624
299.598
299.571
299.542
299.512
299.48
299.447
299.412
299.376
299.339
299.3
299.259
299.217
299.173
299.128
299.082
299.034
298.984
298.933
298.881
298.827
298.772
298.716
298.658
298.599
298.539
298.479
298.417
298.354
298.29
298.225
298.16
298.094
298.027
297.96
297.893
297.825
297.756
297.688
297.62
297.551
297.482
297.414
297.346
297.278
297.21
297.143
297.076
297.01
296.944
296.879
296.815
296.752
296.689
296.628
296.567
296.507
296.449
296.391
296.335
296.28
296.226
296.173
296.122
296.072
296.023
295.975
295.929
295.885
295.841
295.799
295.758
295.719
295.68
295.644
295.608
295.574
295.541
295.509
295.478
295.449
295.421
295.393
295.367
295.342
295.318
295.295
295.272
295.251
295.23
295.21
295.19
295.172
295.153
295.136
295.119
295.102
295.086
295.07
295.054
295.039
295.024
295.008
294.994
294.979
294.964
294.949
294.934
294.919
294.904
294.888
294.872
294.856
294.837
294.815
294.786
294.741
294.661
294.509
294.199
293.555
292.199
289.337
283.31
270.656
244.198
189.119
74.9853
-160.448
-643.898
-1632.22
-3643.79
-7720.48
-15946.8
-32480.2
-65559.3
300
300
300
300
300
300
300
300
300
300
300
300
300
300
300
300
300
300
300
300
300
300
300
300
300
300
300
300
300
300
300
300
300
300
300
300
300
300
300
300
300
300
300
300
300
300
300
300
300
300
300
300
300
300
300
300
300
300
300
300
300
300
299.999
299.999
299.999
299.999
299.999
299.999
299.998
299.998
299.998
299.997
299.997
299.996
299.995
299.995
299.994
299.993
299.992
299.99
299.989
299.987
299.985
299.984
299.981
299.979
299.976
299.973
299.97
299.967
299.963
299.958
299.954
299.949
299.943
299.937
299.931
299.924
299.916
299.908
299.899
299.889
299.879
299.868
299.856
299.843
299.829
299.815
299.799
299.782
299.765
299.746
299.726
299.704
299.682
299.658
299.632
299.606
299.577
299.547
299.516
299.483
299.449
299.412
299.375
299.335
299.294
299.25
299.206
299.159
299.111
299.06
299.008
298.955
298.899
298.842
298.784
298.723
298.661
298.598
298.533
298.466
298.399
298.329
298.259
298.188
298.115
298.042
297.967
297.892
297.816
297.739
297.662
297.584
297.506
297.428
297.35
297.271
297.192
297.114
297.036
296.958
296.881
296.804
296.727
296.651
296.577
296.502
296.429
296.357
296.286
296.216
296.147
296.079
296.013
295.948
295.884
295.822
295.761
295.702
295.645
295.589
295.535
295.482
295.431
295.382
295.334
295.288
295.244
295.202
295.161
295.122
295.084
295.048
295.014
294.982
294.951
294.921
294.893
294.866
294.841
294.817
294.795
294.773
294.753
294.734
294.716
294.7
294.684
294.669
294.655
294.641
294.629
294.617
294.605
294.594
294.584
294.574
294.564
294.555
294.546
294.537
294.528
294.52
294.511
294.503
294.494
294.485
294.476
294.467
294.457
294.447
294.436
294.423
294.407
294.383
294.344
294.27
294.124
293.821
293.184
291.838
288.993
282.99
270.374
243.977
188.991
74.9826
-160.325
-643.789
-1632.7
-3646.61
-7730.38
-15975.8
-32557.3
-65752.5
300
300
300
300
300
300
300
300
300
300
300
300
300
300
300
300
300
300
300
300
300
300
300
300
300
300
300
300
300
300
300
300
300
300
300
300
300
300
300
300
300
300
300
300
300
300
300
300
300
300
300
300
300
300
300
300
300
300
300
300
300
299.999
299.999
299.999
299.999
299.999
299.998
299.998
299.998
299.997
299.997
299.996
299.995
299.994
299.994
299.992
299.991
299.99
299.988
299.987
299.985
299.983
299.98
299.978
299.975
299.972
299.968
299.964
299.96
299.955
299.95
299.944
299.938
299.932
299.924
299.917
299.908
299.899
299.889
299.878
299.867
299.854
299.841
299.826
299.811
299.795
299.777
299.758
299.738
299.717
299.694
299.67
299.644
299.617
299.588
299.558
299.526
299.492
299.456
299.418
299.379
299.338
299.294
299.249
299.202
299.152
299.101
299.047
298.992
298.934
298.874
298.812
298.749
298.683
298.615
298.546
298.474
298.401
298.326
298.249
298.171
298.091
298.01
297.928
297.844
297.759
297.673
297.587
297.499
297.411
297.322
297.232
297.142
297.052
296.962
296.872
296.782
296.692
296.603
296.514
296.425
296.337
296.25
296.164
296.079
295.994
295.911
295.83
295.749
295.67
295.593
295.517
295.443
295.37
295.299
295.23
295.163
295.098
295.035
294.974
294.914
294.857
294.802
294.749
294.698
294.649
294.603
294.558
294.515
294.475
294.437
294.4
294.366
294.334
294.303
294.275
294.248
294.223
294.2
294.179
294.159
294.141
294.124
294.109
294.095
294.083
294.072
294.061
294.052
294.045
294.038
294.031
294.026
294.021
294.017
294.014
294.011
294.009
294.007
294.005
294.003
294.002
294
293.999
293.997
293.996
293.994
293.993
293.991
293.988
293.985
293.982
293.977
293.971
293.961
293.943
293.91
293.843
293.703
293.408
292.78
291.445
288.616
282.637
270.061
243.725
188.83
74.9408
-160.261
-643.793
-1633.43
-3650.02
-7741.69
-16008.1
-32642.4
-65964.1
300
300
300
300
300
300
300
300
300
300
300
300
300
300
300
300
300
300
300
300
300
300
300
300
300
300
300
300
300
300
300
300
300
300
300
300
300
300
300
300
300
300
300
300
300
300
300
300
300
300
300
300
300
300
300
300
300
300
300
299.999
299.999
299.999
299.999
299.999
299.998
299.998
299.998
299.997
299.997
299.996
299.995
299.994
299.993
299.992
299.991
299.99
299.988
299.986
299.984
299.982
299.979
299.977
299.973
299.97
299.966
299.962
299.957
299.952
299.946
299.94
299.933
299.926
299.918
299.909
299.9
299.889
299.878
299.866
299.853
299.84
299.825
299.809
299.791
299.773
299.753
299.732
299.709
299.685
299.66
299.632
299.603
299.572
299.54
299.505
299.469
299.43
299.39
299.347
299.302
299.255
299.205
299.154
299.1
299.043
298.984
298.923
298.859
298.793
298.724
298.653
298.58
298.505
298.427
298.346
298.264
298.18
298.093
298.005
297.915
297.823
297.729
297.634
297.537
297.439
297.34
297.24
297.139
297.037
296.935
296.831
296.728
296.624
296.521
296.417
296.313
296.21
296.108
296.006
295.904
295.804
295.704
295.606
295.509
295.413
295.319
295.226
295.135
295.045
294.958
294.872
294.789
294.707
294.628
294.551
294.476
294.404
294.334
294.266
294.201
294.139
294.079
294.021
293.966
293.914
293.864
293.817
293.772
293.73
293.69
293.653
293.619
293.586
293.557
293.529
293.504
293.481
293.46
293.441
293.425
293.41
293.397
293.386
293.377
293.369
293.363
293.359
293.356
293.354
293.353
293.354
293.355
293.358
293.361
293.365
293.37
293.375
293.381
293.387
293.394
293.401
293.407
293.415
293.422
293.429
293.436
293.442
293.449
293.455
293.461
293.466
293.471
293.475
293.478
293.479
293.476
293.466
293.439
293.379
293.246
292.959
292.34
291.018
288.205
282.252
269.714
243.438
188.631
74.8504
-160.273
-643.94
-1634.46
-3654.12
-7754.61
-16044.2
-32735.9
-66194.9
300
300
300
300
300
300
300
300
300
300
300
300
300
300
300
300
300
300
300
300
300
300
300
300
300
300
300
300
300
300
300
300
300
300
300
300
300
300
300
300
300
300
300
300
300
300
300
300
300
300
300
300
300
300
300
300
300
300
299.999
299.999
299.999
299.999
299.999
299.998
299.998
299.997
299.997
299.996
299.995
299.994
299.993
299.992
299.991
299.99
299.988
299.986
299.984
299.981
299.979
299.975
299.972
299.968
299.964
299.959
299.954
299.949
299.942
299.936
299.928
299.92
299.911
299.902
299.891
299.88
299.867
299.854
299.84
299.824
299.807
299.79
299.77
299.75
299.727
299.704
299.678
299.651
299.622
299.591
299.559
299.524
299.487
299.448
299.407
299.363
299.317
299.269
299.218
299.164
299.108
299.049
298.987
298.922
298.855
298.785
298.712
298.636
298.558
298.476
298.392
298.305
298.216
298.124
298.029
297.932
297.832
297.73
297.626
297.52
297.412
297.302
297.191
297.078
296.964
296.848
296.731
296.614
296.496
296.377
296.258
296.138
296.019
295.9
295.781
295.662
295.544
295.427
295.311
295.196
295.082
294.969
294.858
294.749
294.642
294.536
294.432
294.331
294.232
294.135
294.041
293.949
293.86