/*--------------------------------*- C++ -*----------------------------------*\
| =========                 |                                                 |
| \\      /  F ield         | OpenFOAM: The Open Source CFD Toolbox           |
|  \\    /   O peration     | Version:  2306                                  |
|   \\  /    A nd           | Website:  www.openfoam.com                      |
|    \\/     M anipulation  |                                                 |
\*---------------------------------------------------------------------------*/
FoamFile
{
    version     2.0;
    format      ascii;
    arch        "LSB;label=32;scalar=64";
    class       volVectorField;
    location    "11";
    object      U;
}
// * * * * * * * * * * * * * * * * * * * * * * * * * * * * * * * * * * * * * //

dimensions      [0 1 -1 0 0 0 0];

internalField   nonuniform List<vector> 
32768
(
(1.00001 -4.01518e-05 0)
(1.00017 -0.000120664 0)
(1.00048 -0.00020133 0)
(1.00097 -0.000282153 0)
(1.00161 -0.000363236 0)
(1.00242 -0.000444674 0)
(1.00339 -0.000526532 0)
(1.00453 -0.000608863 0)
(1.00583 -0.000691728 0)
(1.0073 -0.000775187 0)
(1.00893 -0.000859293 0)
(1.01073 -0.000944096 0)
(1.01271 -0.00102964 0)
(1.01485 -0.00111595 0)
(1.01717 -0.00120305 0)
(1.01966 -0.00129098 0)
(1.02234 -0.00137972 0)
(1.02518 -0.00146929 0)
(1.02821 -0.00155967 0)
(1.03142 -0.00165084 0)
(1.03482 -0.00174276 0)
(1.03839 -0.00183538 0)
(1.04216 -0.00192864 0)
(1.04611 -0.00202247 0)
(1.05025 -0.00211678 0)
(1.05458 -0.00221147 0)
(1.0591 -0.00230642 0)
(1.0638 -0.00240149 0)
(1.0687 -0.00249655 0)
(1.07379 -0.00259142 0)
(1.07907 -0.00268594 0)
(1.08454 -0.00277991 0)
(1.09019 -0.00287313 0)
(1.09603 -0.0029654 0)
(1.10205 -0.00305647 0)
(1.10826 -0.00314612 0)
(1.11464 -0.0032341 0)
(1.1212 -0.00332017 0)
(1.12793 -0.00340407 0)
(1.13482 -0.00348554 0)
(1.14187 -0.00356432 0)
(1.14908 -0.00364016 0)
(1.15643 -0.00371281 0)
(1.16393 -0.00378203 0)
(1.17157 -0.00384757 0)
(1.17933 -0.00390922 0)
(1.18721 -0.00396676 0)
(1.1952 -0.00402002 0)
(1.20329 -0.0040688 0)
(1.21148 -0.00411296 0)
(1.21975 -0.00415238 0)
(1.22809 -0.00418694 0)
(1.2365 -0.00421656 0)
(1.24496 -0.0042412 0)
(1.25347 -0.00426083 0)
(1.26201 -0.00427545 0)
(1.27058 -0.00428508 0)
(1.27916 -0.00428978 0)
(1.28774 -0.00428964 0)
(1.29632 -0.00428475 0)
(1.30489 -0.00427526 0)
(1.31343 -0.0042613 0)
(1.32193 -0.00424306 0)
(1.3304 -0.00422072 0)
(1.33882 -0.0041945 0)
(1.34718 -0.00416462 0)
(1.35548 -0.00413131 0)
(1.36371 -0.00409481 0)
(1.37187 -0.00405539 0)
(1.37994 -0.00401329 0)
(1.38792 -0.00396878 0)
(1.39581 -0.00392213 0)
(1.40361 -0.00387359 0)
(1.41131 -0.00382343 0)
(1.41891 -0.0037719 0)
(1.4264 -0.00371925 0)
(1.43379 -0.00366572 0)
(1.44106 -0.00361154 0)
(1.44823 -0.00355695 0)
(1.45529 -0.00350214 0)
(1.46224 -0.00344732 0)
(1.46908 -0.00339268 0)
(1.47581 -0.00333838 0)
(1.48243 -0.00328458 0)
(1.48895 -0.00323143 0)
(1.49536 -0.00317905 0)
(1.50166 -0.00312756 0)
(1.50787 -0.00307705 0)
(1.51397 -0.00302761 0)
(1.51998 -0.00297931 0)
(1.52589 -0.00293219 0)
(1.5317 -0.0028863 0)
(1.53743 -0.00284166 0)
(1.54307 -0.00279829 0)
(1.54862 -0.00275616 0)
(1.55409 -0.00271529 0)
(1.55948 -0.00267563 0)
(1.56479 -0.00263715 0)
(1.57003 -0.0025998 0)
(1.57519 -0.00256353 0)
(1.58028 -0.00252826 0)
(1.5853 -0.00249393 0)
(1.59026 -0.00246044 0)
(1.59514 -0.00242772 0)
(1.59997 -0.00239566 0)
(1.60473 -0.00236418 0)
(1.60942 -0.00233315 0)
(1.61406 -0.00230249 0)
(1.61863 -0.00227208 0)
(1.62314 -0.0022418 0)
(1.6276 -0.00221156 0)
(1.63199 -0.00218122 0)
(1.63632 -0.0021507 0)
(1.64059 -0.00211986 0)
(1.6448 -0.00208861 0)
(1.64895 -0.00205684 0)
(1.65303 -0.00202444 0)
(1.65704 -0.00199132 0)
(1.66099 -0.00195737 0)
(1.66487 -0.00192251 0)
(1.66868 -0.00188665 0)
(1.67242 -0.0018497 0)
(1.67608 -0.00181159 0)
(1.67967 -0.00177224 0)
(1.68317 -0.0017316 0)
(1.6866 -0.00168959 0)
(1.68993 -0.00164617 0)
(1.69318 -0.00160128 0)
(1.69634 -0.00155489 0)
(1.6994 -0.00150695 0)
(1.70237 -0.00145743 0)
(1.70523 -0.00140632 0)
(1.70799 -0.00135359 0)
(1.71065 -0.00129923 0)
(1.71319 -0.00124322 0)
(1.71562 -0.00118558 0)
(1.71793 -0.00112629 0)
(1.72013 -0.00106538 0)
(1.7222 -0.00100284 0)
(1.72414 -0.000938697 0)
(1.72595 -0.000872972 0)
(1.72763 -0.000805687 0)
(1.72918 -0.00073687 0)
(1.73058 -0.000666552 0)
(1.73184 -0.000594769 0)
(1.73296 -0.000521555 0)
(1.73393 -0.000446952 0)
(1.73475 -0.000371 0)
(1.73541 -0.000293743 0)
(1.73592 -0.000215227 0)
(1.73627 -0.0001355 0)
(1.73647 -5.46083e-05 0)
(1.73649 2.73958e-05 0)
(1.73636 0.00011046 0)
(1.73605 0.000194533 0)
(1.73558 0.000279563 0)
(1.73493 0.000365496 0)
(1.73412 0.000452278 0)
(1.73312 0.000539851 0)
(1.73196 0.000628161 0)
(1.73061 0.000717151 0)
(1.72909 0.000806763 0)
(1.72738 0.00089694 0)
(1.7255 0.000987621 0)
(1.72343 0.00107875 0)
(1.72118 0.00117026 0)
(1.71875 0.00126209 0)
(1.71613 0.00135419 0)
(1.71333 0.00144648 0)
(1.71035 0.0015389 0)
(1.70717 0.00163139 0)
(1.70382 0.00172387 0)
(1.70028 0.00181628 0)
(1.69655 0.00190853 0)
(1.69264 0.00200057 0)
(1.68855 0.00209231 0)
(1.68427 0.00218368 0)
(1.67981 0.00227459 0)
(1.67517 0.00236496 0)
(1.67035 0.00245471 0)
(1.66535 0.00254375 0)
(1.66017 0.00263199 0)
(1.65482 0.00271933 0)
(1.64929 0.00280569 0)
(1.64359 0.00289097 0)
(1.63773 0.00297507 0)
(1.63169 0.0030579 0)
(1.62549 0.00313934 0)
(1.61913 0.0032193 0)
(1.61261 0.00329768 0)
(1.60594 0.00337437 0)
(1.59911 0.00344927 0)
(1.59214 0.00352227 0)
(1.58502 0.00359327 0)
(1.57776 0.00366217 0)
(1.57037 0.00372887 0)
(1.56284 0.00379327 0)
(1.55519 0.00385527 0)
(1.54742 0.00391478 0)
(1.53953 0.00397172 0)
(1.53153 0.00402598 0)
(1.52342 0.0040775 0)
(1.51521 0.00412619 0)
(1.50691 0.00417199 0)
(1.49852 0.00421484 0)
(1.49005 0.00425466 0)
(1.4815 0.00429142 0)
(1.47288 0.00432506 0)
(1.46419 0.00435556 0)
(1.45545 0.00438288 0)
(1.44666 0.00440701 0)
(1.43782 0.00442792 0)
(1.42894 0.00444563 0)
(1.42003 0.00446013 0)
(1.4111 0.00447145 0)
(1.40214 0.0044796 0)
(1.39317 0.00448462 0)
(1.3842 0.00448654 0)
(1.37522 0.00448543 0)
(1.36625 0.00448133 0)
(1.3573 0.00447431 0)
(1.34835 0.00446444 0)
(1.33943 0.00445182 0)
(1.33054 0.00443651 0)
(1.32168 0.00441863 0)
(1.31286 0.00439826 0)
(1.30409 0.00437551 0)
(1.29536 0.0043505 0)
(1.28668 0.00432333 0)
(1.27806 0.00429412 0)
(1.2695 0.004263 0)
(1.26101 0.00423009 0)
(1.25258 0.00419551 0)
(1.24422 0.00415938 0)
(1.23594 0.00412184 0)
(1.22773 0.00408301 0)
(1.21961 0.00404301 0)
(1.21156 0.00400196 0)
(1.2036 0.00396 0)
(1.19572 0.00391724 0)
(1.18793 0.00387379 0)
(1.18022 0.00382976 0)
(1.17261 0.00378528 0)
(1.16508 0.00374043 0)
(1.15764 0.00369532 0)
(1.1503 0.00365005 0)
(1.14304 0.00360468 0)
(1.13588 0.00355937 0)
(1.12881 0.00351403 0)
(1.12181 0.00346904 0)
(1.11497 0.00342386 0)
(1.10804 0.00337966 0)
(1.10161 0.00333437 0)
(1.0943 0.00329091 0)
(1.08932 0.00324721 0)
(1.07884 0.00319348 0)
(1.00001 -0.000120631 0)
(1.00017 -0.000362212 0)
(1.00048 -0.000604172 0)
(1.00097 -0.000846638 0)
(1.00161 -0.00108988 0)
(1.00242 -0.00133417 0)
(1.00339 -0.00157969 0)
(1.00452 -0.00182664 0)
(1.00582 -0.0020752 0)
(1.00729 -0.00232554 0)
(1.00892 -0.00257783 0)
(1.01073 -0.00283222 0)
(1.0127 -0.00308882 0)
(1.01484 -0.00334775 0)
(1.01716 -0.00360907 0)
(1.01965 -0.00387285 0)
(1.02232 -0.00413911 0)
(1.02517 -0.00440784 0)
(1.0282 -0.00467902 0)
(1.03141 -0.00495257 0)
(1.0348 -0.00522838 0)
(1.03838 -0.00550631 0)
(1.04214 -0.00578619 0)
(1.04609 -0.00606778 0)
(1.05023 -0.00635082 0)
(1.05456 -0.00663501 0)
(1.05908 -0.00691998 0)
(1.06379 -0.00720535 0)
(1.06869 -0.00749068 0)
(1.07378 -0.00777547 0)
(1.07906 -0.0080592 0)
(1.08452 -0.00834131 0)
(1.09018 -0.00862118 0)
(1.09602 -0.00889817 0)
(1.10205 -0.00917161 0)
(1.10826 -0.00944078 0)
(1.11465 -0.00970496 0)
(1.12121 -0.00996339 0)
(1.12794 -0.0102153 0)
(1.13484 -0.0104599 0)
(1.1419 -0.0106965 0)
(1.14911 -0.0109243 0)
(1.15648 -0.0111424 0)
(1.16399 -0.0113503 0)
(1.17163 -0.0115471 0)
(1.1794 -0.0117322 0)
(1.18729 -0.011905 0)
(1.19529 -0.0120649 0)
(1.20339 -0.0122113 0)
(1.21159 -0.0123439 0)
(1.21987 -0.0124622 0)
(1.22823 -0.0125659 0)
(1.23665 -0.0126548 0)
(1.24512 -0.0127287 0)
(1.25364 -0.0127876 0)
(1.26219 -0.0128314 0)
(1.27077 -0.0128602 0)
(1.27936 -0.0128742 0)
(1.28795 -0.0128736 0)
(1.29654 -0.0128588 0)
(1.30512 -0.0128302 0)
(1.31367 -0.0127881 0)
(1.32219 -0.0127332 0)
(1.33066 -0.0126659 0)
(1.33909 -0.012587 0)
(1.34746 -0.0124971 0)
(1.35577 -0.012397 0)
(1.36401 -0.0122872 0)
(1.37217 -0.0121687 0)
(1.38025 -0.0120421 0)
(1.38824 -0.0119083 0)
(1.39613 -0.0117681 0)
(1.40394 -0.0116223 0)
(1.41164 -0.0114715 0)
(1.41924 -0.0113167 0)
(1.42673 -0.0111585 0)
(1.43412 -0.0109977 0)
(1.4414 -0.010835 0)
(1.44857 -0.010671 0)
(1.45563 -0.0105064 0)
(1.46258 -0.0103417 0)
(1.46942 -0.0101776 0)
(1.47616 -0.0100146 0)
(1.48278 -0.00985306 0)
(1.48929 -0.00969349 0)
(1.4957 -0.00953626 0)
(1.50201 -0.0093817 0)
(1.50821 -0.00923011 0)
(1.51431 -0.00908174 0)
(1.52032 -0.00893679 0)
(1.52622 -0.00879541 0)
(1.53204 -0.00865772 0)
(1.53776 -0.0085238 0)
(1.5434 -0.00839367 0)
(1.54895 -0.00826733 0)
(1.55442 -0.00814473 0)
(1.55981 -0.00802579 0)
(1.56512 -0.0079104 0)
(1.57035 -0.00779842 0)
(1.57551 -0.00768966 0)
(1.5806 -0.00758393 0)
(1.58562 -0.00748101 0)
(1.59058 -0.00738064 0)
(1.59546 -0.00728256 0)
(1.60029 -0.00718649 0)
(1.60504 -0.00709212 0)
(1.60974 -0.00699916 0)
(1.61438 -0.00690727 0)
(1.61895 -0.00681613 0)
(1.62346 -0.0067254 0)
(1.62792 -0.00663476 0)
(1.63231 -0.00654386 0)
(1.63664 -0.00645237 0)
(1.64092 -0.00635996 0)
(1.64513 -0.0062663 0)
(1.64927 -0.00617107 0)
(1.65336 -0.00607396 0)
(1.65738 -0.00597467 0)
(1.66133 -0.00587291 0)
(1.66521 -0.00576839 0)
(1.66902 -0.00566087 0)
(1.67276 -0.00555008 0)
(1.67643 -0.00543581 0)
(1.68002 -0.00531782 0)
(1.68352 -0.00519592 0)
(1.68695 -0.00506994 0)
(1.69029 -0.00493969 0)
(1.69354 -0.00480505 0)
(1.6967 -0.00466588 0)
(1.69977 -0.00452208 0)
(1.70274 -0.00437354 0)
(1.70561 -0.0042202 0)
(1.70837 -0.004062 0)
(1.71103 -0.0038989 0)
(1.71358 -0.00373087 0)
(1.71601 -0.00355791 0)
(1.71833 -0.00338003 0)
(1.72052 -0.00319725 0)
(1.7226 -0.0030096 0)
(1.72454 -0.00281714 0)
(1.72636 -0.00261992 0)
(1.72804 -0.00241802 0)
(1.72959 -0.00221152 0)
(1.731 -0.00200052 0)
(1.73226 -0.00178511 0)
(1.73338 -0.00156541 0)
(1.73435 -0.00134154 0)
(1.73518 -0.00111363 0)
(1.73584 -0.000881796 0)
(1.73636 -0.000646186 0)
(1.73671 -0.000406939 0)
(1.7369 -0.000164201 0)
(1.73693 8.18761e-05 0)
(1.7368 0.000331138 0)
(1.73649 0.000583429 0)
(1.73602 0.000838589 0)
(1.73538 0.00109646 0)
(1.73456 0.00135687 0)
(1.73357 0.00161966 0)
(1.73241 0.00188467 0)
(1.73106 0.00215171 0)
(1.72954 0.00242062 0)
(1.72783 0.00269122 0)
(1.72595 0.00296334 0)
(1.72388 0.00323679 0)
(1.72163 0.0035114 0)
(1.7192 0.00378698 0)
(1.71659 0.00406335 0)
(1.71378 0.0043403 0)
(1.7108 0.00461764 0)
(1.70763 0.00489518 0)
(1.70427 0.0051727 0)
(1.70073 0.00545 0)
(1.697 0.00572686 0)
(1.69309 0.00600306 0)
(1.68899 0.00627837 0)
(1.68471 0.00655256 0)
(1.68025 0.00682538 0)
(1.67561 0.00709658 0)
(1.67079 0.00736592 0)
(1.66578 0.00763313 0)
(1.6606 0.00789794 0)
(1.65525 0.00816008 0)
(1.64972 0.00841926 0)
(1.64402 0.0086752 0)
(1.63815 0.0089276 0)
(1.63211 0.00917617 0)
(1.6259 0.0094206 0)
(1.61954 0.00966059 0)
(1.61301 0.00989582 0)
(1.60633 0.010126 0)
(1.5995 0.0103508 0)
(1.59252 0.0105699 0)
(1.5854 0.010783 0)
(1.57814 0.0109898 0)
(1.57074 0.01119 0)
(1.56321 0.0113833 0)
(1.55555 0.0115693 0)
(1.54777 0.011748 0)
(1.53987 0.0119188 0)
(1.53186 0.0120817 0)
(1.52375 0.0122363 0)
(1.51553 0.0123824 0)
(1.50723 0.0125199 0)
(1.49883 0.0126485 0)
(1.49035 0.012768 0)
(1.48179 0.0128783 0)
(1.47316 0.0129792 0)
(1.46447 0.0130707 0)
(1.45572 0.0131527 0)
(1.44692 0.0132251 0)
(1.43807 0.0132878 0)
(1.42918 0.0133409 0)
(1.42027 0.0133844 0)
(1.41132 0.0134183 0)
(1.40236 0.0134427 0)
(1.39338 0.0134577 0)
(1.3844 0.0134634 0)
(1.37542 0.01346 0)
(1.36644 0.0134476 0)
(1.35747 0.0134265 0)
(1.34852 0.0133968 0)
(1.3396 0.0133588 0)
(1.3307 0.0133128 0)
(1.32183 0.013259 0)
(1.31301 0.0131978 0)
(1.30422 0.0131295 0)
(1.29549 0.0130543 0)
(1.28681 0.0129727 0)
(1.27818 0.0128849 0)
(1.26962 0.0127914 0)
(1.26112 0.0126926 0)
(1.25268 0.0125887 0)
(1.24432 0.0124802 0)
(1.23604 0.0123674 0)
(1.22782 0.0122508 0)
(1.21969 0.0121307 0)
(1.21164 0.0120074 0)
(1.20368 0.0118814 0)
(1.1958 0.011753 0)
(1.188 0.0116226 0)
(1.18029 0.0114904 0)
(1.17268 0.0113568 0)
(1.16515 0.0112222 0)
(1.15771 0.0110867 0)
(1.15036 0.0109508 0)
(1.14311 0.0108147 0)
(1.13594 0.0106786 0)
(1.12887 0.0105426 0)
(1.12186 0.0104074 0)
(1.11502 0.0102723 0)
(1.10809 0.0101385 0)
(1.10167 0.0100055 0)
(1.09435 0.00987027 0)
(1.08938 0.00975126 0)
(1.0789 0.00957532 0)
(1.00001 -0.000201139 0)
(1.00017 -0.000603647 0)
(1.00048 -0.0010067 0)
(1.00096 -0.00141066 0)
(1.00161 -0.00181593 0)
(1.00242 -0.00222291 0)
(1.00338 -0.00263193 0)
(1.00452 -0.00304334 0)
(1.00582 -0.00345745 0)
(1.00728 -0.00387456 0)
(1.00891 -0.00429494 0)
(1.01071 -0.00471882 0)
(1.01268 -0.00514643 0)
(1.01482 -0.00557793 0)
(1.01714 -0.00601346 0)
(1.01963 -0.00645311 0)
(1.02229 -0.00689693 0)
(1.02514 -0.00734491 0)
(1.02816 -0.007797 0)
(1.03137 -0.00825308 0)
(1.03476 -0.00871298 0)
(1.03834 -0.00917646 0)
(1.0421 -0.00964321 0)
(1.04605 -0.0101129 0)
(1.05019 -0.010585 0)
(1.05452 -0.0110591 0)
(1.05904 -0.0115346 0)
(1.06375 -0.0120107 0)
(1.06865 -0.0124868 0)
(1.07374 -0.0129621 0)
(1.07902 -0.0134357 0)
(1.0845 -0.0139066 0)
(1.09016 -0.0143738 0)
(1.09601 -0.0148362 0)
(1.10204 -0.0152928 0)
(1.10826 -0.0157423 0)
(1.11466 -0.0161834 0)
(1.12123 -0.016615 0)
(1.12797 -0.0170358 0)
(1.13488 -0.0174444 0)
(1.14196 -0.0178396 0)
(1.14919 -0.01822 0)
(1.15657 -0.0185844 0)
(1.16409 -0.0189316 0)
(1.17175 -0.0192604 0)
(1.17954 -0.0195697 0)
(1.18745 -0.0198583 0)
(1.19547 -0.0201253 0)
(1.20359 -0.0203699 0)
(1.21181 -0.0205913 0)
(1.22011 -0.0207889 0)
(1.22849 -0.020962 0)
(1.23693 -0.0211103 0)
(1.24543 -0.0212336 0)
(1.25397 -0.0213316 0)
(1.26255 -0.0214045 0)
(1.27115 -0.0214523 0)
(1.27976 -0.0214753 0)
(1.28838 -0.021474 0)
(1.29699 -0.0214489 0)
(1.30558 -0.0214006 0)
(1.31416 -0.0213299 0)
(1.32269 -0.0212376 0)
(1.33119 -0.0211249 0)
(1.33963 -0.0209926 0)
(1.34802 -0.0208419 0)
(1.35635 -0.0206741 0)
(1.3646 -0.0204903 0)
(1.37277 -0.0202918 0)
(1.38086 -0.02008 0)
(1.38886 -0.0198561 0)
(1.39677 -0.0196215 0)
(1.40458 -0.0193775 0)
(1.41229 -0.0191254 0)
(1.4199 -0.0188664 0)
(1.4274 -0.018602 0)
(1.4348 -0.0183331 0)
(1.44208 -0.0180611 0)
(1.44926 -0.0177871 0)
(1.45632 -0.017512 0)
(1.46327 -0.017237 0)
(1.47011 -0.0169629 0)
(1.47684 -0.0166906 0)
(1.48347 -0.0164209 0)
(1.48998 -0.0161545 0)
(1.49639 -0.015892 0)
(1.50269 -0.0156341 0)
(1.50889 -0.0153811 0)
(1.51499 -0.0151336 0)
(1.52099 -0.0148918 0)
(1.5269 -0.014656 0)
(1.53271 -0.0144265 0)
(1.53843 -0.0142032 0)
(1.54407 -0.0139863 0)
(1.54961 -0.0137758 0)
(1.55508 -0.0135715 0)
(1.56046 -0.0133734 0)
(1.56577 -0.0131812 0)
(1.571 -0.0129948 0)
(1.57616 -0.0128137 0)
(1.58125 -0.0126378 0)
(1.58627 -0.0124665 0)
(1.59122 -0.0122995 0)
(1.5961 -0.0121363 0)
(1.60092 -0.0119765 0)
(1.60568 -0.0118196 0)
(1.61038 -0.011665 0)
(1.61501 -0.0115122 0)
(1.61959 -0.0113606 0)
(1.6241 -0.0112098 0)
(1.62856 -0.0110591 0)
(1.63295 -0.0109079 0)
(1.63729 -0.0107558 0)
(1.64156 -0.0106021 0)
(1.64578 -0.0104464 0)
(1.64993 -0.010288 0)
(1.65402 -0.0101265 0)
(1.65804 -0.00996127 0)
(1.66199 -0.00979195 0)
(1.66588 -0.00961803 0)
(1.6697 -0.00943907 0)
(1.67345 -0.00925466 0)
(1.67712 -0.00906441 0)
(1.68071 -0.00886796 0)
(1.68423 -0.00866497 0)
(1.68766 -0.00845514 0)
(1.691 -0.00823821 0)
(1.69426 -0.00801391 0)
(1.69743 -0.00778205 0)
(1.7005 -0.00754244 0)
(1.70348 -0.00729492 0)
(1.70636 -0.00703938 0)
(1.70913 -0.00677572 0)
(1.71179 -0.00650387 0)
(1.71435 -0.00622379 0)
(1.71679 -0.00593548 0)
(1.71911 -0.00563894 0)
(1.72132 -0.00533422 0)
(1.7234 -0.00502137 0)
(1.72535 -0.00470048 0)
(1.72717 -0.00437165 0)
(1.72886 -0.00403501 0)
(1.73041 -0.00369069 0)
(1.73183 -0.00333885 0)
(1.7331 -0.00297967 0)
(1.73423 -0.00261332 0)
(1.7352 -0.00224001 0)
(1.73603 -0.00185995 0)
(1.7367 -0.00147336 0)
(1.73722 -0.00108046 0)
(1.73758 -0.000681501 0)
(1.73778 -0.000276718 0)
(1.73781 0.000133635 0)
(1.73768 0.000549304 0)
(1.73738 0.000970027 0)
(1.73691 0.00139553 0)
(1.73627 0.00182556 0)
(1.73546 0.00225983 0)
(1.73447 0.00269806 0)
(1.7333 0.00313998 0)
(1.73196 0.0035853 0)
(1.73044 0.00403374 0)
(1.72874 0.004485 0)
(1.72685 0.00493879 0)
(1.72479 0.00539481 0)
(1.72254 0.00585276 0)
(1.72011 0.00631233 0)
(1.71749 0.00677321 0)
(1.71469 0.00723507 0)
(1.7117 0.0076976 0)
(1.70853 0.00816045 0)
(1.70517 0.00862328 0)
(1.70163 0.00908575 0)
(1.6979 0.00954749 0)
(1.69398 0.0100081 0)
(1.68988 0.0104673 0)
(1.6856 0.0109246 0)
(1.68114 0.0113796 0)
(1.67649 0.011832 0)
(1.67166 0.0122812 0)
(1.66665 0.0127269 0)
(1.66147 0.0131686 0)
(1.65611 0.0136059 0)
(1.65057 0.0140382 0)
(1.64486 0.0144652 0)
(1.63898 0.0148862 0)
(1.63293 0.0153009 0)
(1.62672 0.0157087 0)
(1.62035 0.016109 0)
(1.61382 0.0165015 0)
(1.60713 0.0168855 0)
(1.60029 0.0172605 0)
(1.5933 0.0176261 0)
(1.58616 0.0179816 0)
(1.57888 0.0183267 0)
(1.57147 0.0186607 0)
(1.56393 0.0189832 0)
(1.55626 0.0192937 0)
(1.54847 0.0195917 0)
(1.54055 0.0198768 0)
(1.53253 0.0201485 0)
(1.5244 0.0204065 0)
(1.51618 0.0206503 0)
(1.50785 0.0208796 0)
(1.49944 0.0210941 0)
(1.49094 0.0212935 0)
(1.48237 0.0214775 0)
(1.47372 0.0216458 0)
(1.46501 0.0217984 0)
(1.45625 0.0219351 0)
(1.44743 0.0220558 0)
(1.43857 0.0221604 0)
(1.42966 0.0222488 0)
(1.42073 0.0223213 0)
(1.41177 0.0223777 0)
(1.40279 0.0224182 0)
(1.3938 0.0224431 0)
(1.3848 0.0224524 0)
(1.3758 0.0224465 0)
(1.36681 0.0224256 0)
(1.35783 0.0223902 0)
(1.34886 0.0223404 0)
(1.33992 0.0222768 0)
(1.33101 0.0221998 0)
(1.32213 0.0221098 0)
(1.31329 0.0220074 0)
(1.3045 0.021893 0)
(1.29575 0.0217674 0)
(1.28705 0.0216309 0)
(1.27842 0.0214842 0)
(1.26984 0.021328 0)
(1.26133 0.0211627 0)
(1.25289 0.0209892 0)
(1.24452 0.0208079 0)
(1.23622 0.0206195 0)
(1.228 0.0204247 0)
(1.21986 0.020224 0)
(1.21181 0.0200181 0)
(1.20383 0.0198077 0)
(1.19595 0.0195933 0)
(1.18815 0.0193754 0)
(1.18043 0.0191547 0)
(1.17281 0.0189317 0)
(1.16528 0.0187069 0)
(1.15784 0.0184809 0)
(1.15049 0.018254 0)
(1.14323 0.0180268 0)
(1.13606 0.0177996 0)
(1.12899 0.0175729 0)
(1.12198 0.0173469 0)
(1.11514 0.0171224 0)
(1.10821 0.0168978 0)
(1.10178 0.0166795 0)
(1.09446 0.0164485 0)
(1.08949 0.0162636 0)
(1.07901 0.0159532 0)
(1.00001 -0.000281381 0)
(1.00017 -0.000844418 0)
(1.00048 -0.00140822 0)
(1.00096 -0.00197334 0)
(1.0016 -0.00254032 0)
(1.00241 -0.00310968 0)
(1.00338 -0.00368194 0)
(1.00451 -0.00425756 0)
(1.0058 -0.004837 0)
(1.00726 -0.00542066 0)
(1.00889 -0.00600895 0)
(1.01069 -0.00660219 0)
(1.01265 -0.0072007 0)
(1.01479 -0.00780471 0)
(1.0171 -0.00841442 0)
(1.01959 -0.00902997 0)
(1.02225 -0.00965143 0)
(1.02509 -0.0102788 0)
(1.02812 -0.010912 0)
(1.03132 -0.0115508 0)
(1.03471 -0.0121951 0)
(1.03828 -0.0128445 0)
(1.04204 -0.0134986 0)
(1.04599 -0.0141569 0)
(1.05013 -0.0148187 0)
(1.05446 -0.0154833 0)
(1.05898 -0.01615 0)
(1.06369 -0.0168177 0)
(1.06859 -0.0174856 0)
(1.07369 -0.0181523 0)
(1.07898 -0.0188167 0)
(1.08446 -0.0194775 0)
(1.09013 -0.0201332 0)
(1.09599 -0.0207823 0)
(1.10203 -0.0214232 0)
(1.10826 -0.0220543 0)
(1.11467 -0.0226738 0)
(1.12126 -0.0232799 0)
(1.12802 -0.0238709 0)
(1.13495 -0.0244448 0)
(1.14204 -0.025 0)
(1.14929 -0.0255344 0)
(1.1567 -0.0260464 0)
(1.16424 -0.0265342 0)
(1.17193 -0.0269961 0)
(1.17975 -0.0274306 0)
(1.18768 -0.0278361 0)
(1.19574 -0.0282112 0)
(1.20389 -0.0285548 0)
(1.21214 -0.0288657 0)
(1.22048 -0.029143 0)
(1.22889 -0.029386 0)
(1.23737 -0.0295941 0)
(1.2459 -0.0297668 0)
(1.25447 -0.0299041 0)
(1.26308 -0.0300059 0)
(1.27172 -0.0300725 0)
(1.28036 -0.0301042 0)
(1.28901 -0.0301016 0)
(1.29766 -0.0300655 0)
(1.30628 -0.0299967 0)
(1.31488 -0.0298965 0)
(1.32345 -0.0297661 0)
(1.33198 -0.0296067 0)
(1.34045 -0.0294199 0)
(1.34886 -0.0292073 0)
(1.35721 -0.0289706 0)
(1.36548 -0.0287115 0)
(1.37368 -0.0284318 0)
(1.38179 -0.0281333 0)
(1.3898 -0.027818 0)
(1.39773 -0.0274876 0)
(1.40556 -0.0271441 0)
(1.41328 -0.0267893 0)
(1.4209 -0.026425 0)
(1.42841 -0.026053 0)
(1.43581 -0.0256749 0)
(1.4431 -0.0252925 0)
(1.45028 -0.0249073 0)
(1.45735 -0.0245208 0)
(1.4643 -0.0241344 0)
(1.47115 -0.0237494 0)
(1.47788 -0.023367 0)
(1.4845 -0.0229883 0)
(1.49101 -0.0226144 0)
(1.49742 -0.0222461 0)
(1.50372 -0.0218842 0)
(1.50991 -0.0215295 0)
(1.51601 -0.0211824 0)
(1.52201 -0.0208435 0)
(1.52791 -0.0205131 0)
(1.53372 -0.0201915 0)
(1.53943 -0.0198788 0)
(1.54506 -0.0195751 0)
(1.5506 -0.0192804 0)
(1.55606 -0.0189946 0)
(1.56144 -0.0187174 0)
(1.56675 -0.0184487 0)
(1.57197 -0.018188 0)
(1.57713 -0.017935 0)
(1.58221 -0.0176891 0)
(1.58723 -0.0174498 0)
(1.59217 -0.0172166 0)
(1.59706 -0.0169888 0)
(1.60188 -0.0167658 0)
(1.60663 -0.0165467 0)
(1.61133 -0.016331 0)
(1.61597 -0.0161178 0)
(1.62054 -0.0159064 0)
(1.62506 -0.0156959 0)
(1.62952 -0.0154857 0)
(1.63391 -0.0152748 0)
(1.63825 -0.0150626 0)
(1.64253 -0.0148482 0)
(1.64675 -0.0146308 0)
(1.65091 -0.0144098 0)
(1.655 -0.0141843 0)
(1.65903 -0.0139537 0)
(1.66299 -0.0137172 0)
(1.66689 -0.0134743 0)
(1.67071 -0.0132243 0)
(1.67447 -0.0129666 0)
(1.67815 -0.0127007 0)
(1.68175 -0.0124261 0)
(1.68527 -0.0121423 0)
(1.68872 -0.0118489 0)
(1.69207 -0.0115454 0)
(1.69534 -0.0112317 0)
(1.69852 -0.0109073 0)
(1.70161 -0.0105719 0)
(1.70459 -0.0102255 0)
(1.70748 -0.00986784 0)
(1.71026 -0.00949874 0)
(1.71294 -0.00911813 0)
(1.7155 -0.00872597 0)
(1.71795 -0.00832224 0)
(1.72029 -0.00790697 0)
(1.7225 -0.00748019 0)
(1.72459 -0.00704201 0)
(1.72656 -0.00659254 0)
(1.72839 -0.00613193 0)
(1.73009 -0.00566035 0)
(1.73165 -0.00517799 0)
(1.73307 -0.00468509 0)
(1.73436 -0.00418188 0)
(1.73549 -0.00366862 0)
(1.73648 -0.0031456 0)
(1.73731 -0.00261311 0)
(1.73799 -0.00207146 0)
(1.73852 -0.00152098 0)
(1.73888 -0.000961985 0)
(1.73908 -0.000394834 0)
(1.73912 0.000180125 0)
(1.739 0.000762534 0)
(1.73871 0.00135203 0)
(1.73824 0.00194822 0)
(1.73761 0.00255075 0)
(1.7368 0.00315923 0)
(1.73581 0.00377326 0)
(1.73465 0.00439246 0)
(1.73331 0.00501642 0)
(1.73179 0.00564476 0)
(1.73009 0.00627705 0)
(1.72821 0.00691289 0)
(1.72614 0.00755187 0)
(1.7239 0.00819355 0)
(1.72146 0.00883751 0)
(1.71885 0.0094833 0)
(1.71604 0.0101305 0)
(1.71305 0.0107786 0)
(1.70988 0.0114272 0)
(1.70652 0.0120758 0)
(1.70297 0.0127239 0)
(1.69924 0.0133709 0)
(1.69532 0.0140165 0)
(1.69122 0.01466 0)
(1.68693 0.0153009 0)
(1.68246 0.0159386 0)
(1.6778 0.0165726 0)
(1.67297 0.0172023 0)
(1.66795 0.017827 0)
(1.66276 0.0184462 0)
(1.65739 0.0190591 0)
(1.65184 0.0196652 0)
(1.64612 0.0202637 0)
(1.64023 0.020854 0)
(1.63417 0.0214353 0)
(1.62795 0.022007 0)
(1.62156 0.0225684 0)
(1.61502 0.0231186 0)
(1.60831 0.023657 0)
(1.60146 0.0241829 0)
(1.59445 0.0246955 0)
(1.5873 0.0251941 0)
(1.58001 0.0256779 0)
(1.57258 0.0261463 0)
(1.56501 0.0265986 0)
(1.55732 0.027034 0)
(1.54951 0.0274519 0)
(1.54158 0.0278517 0)
(1.53354 0.0282328 0)
(1.52539 0.0285946 0)
(1.51713 0.0289365 0)
(1.50879 0.029258 0)
(1.50035 0.0295588 0)
(1.49183 0.0298383 0)
(1.48323 0.0300962 0)
(1.47457 0.0303323 0)
(1.46583 0.0305462 0)
(1.45704 0.0307377 0)
(1.4482 0.0309067 0)
(1.43931 0.0310532 0)
(1.43039 0.031177 0)
(1.42143 0.0312783 0)
(1.41244 0.0313572 0)
(1.40344 0.0314137 0)
(1.39442 0.0314482 0)
(1.3854 0.0314609 0)
(1.37638 0.0314523 0)
(1.36736 0.0314226 0)
(1.35836 0.0313724 0)
(1.34937 0.0313021 0)
(1.34041 0.0312124 0)
(1.33147 0.0311039 0)
(1.32258 0.0309772 0)
(1.31372 0.0308331 0)
(1.3049 0.0306722 0)
(1.29614 0.0304954 0)
(1.28742 0.0303035 0)
(1.27877 0.0300973 0)
(1.27018 0.0298776 0)
(1.26165 0.0296454 0)
(1.2532 0.0294014 0)
(1.24481 0.0291467 0)
(1.2365 0.028882 0)
(1.22827 0.0286083 0)
(1.22012 0.0283264 0)
(1.21205 0.0280373 0)
(1.20407 0.0277418 0)
(1.19617 0.0274407 0)
(1.18837 0.0271348 0)
(1.18065 0.026825 0)
(1.17302 0.026512 0)
(1.16548 0.0261966 0)
(1.15803 0.0258794 0)
(1.15067 0.0255611 0)
(1.14341 0.0252424 0)
(1.13623 0.0249237 0)
(1.12916 0.0246058 0)
(1.12215 0.0242888 0)
(1.11531 0.0239743 0)
(1.10837 0.023659 0)
(1.10195 0.0233542 0)
(1.09463 0.0230291 0)
(1.08965 0.0227732 0)
(1.07917 0.0223332 0)
(1.00001 -0.00036138 0)
(1.00017 -0.0010845 0)
(1.00048 -0.00180861 0)
(1.00096 -0.00253444 0)
(1.0016 -0.0032627 0)
(1.0024 -0.00399406 0)
(1.00337 -0.00472916 0)
(1.00449 -0.00546864 0)
(1.00578 -0.00621308 0)
(1.00724 -0.00696302 0)
(1.00886 -0.00771896 0)
(1.01066 -0.00848137 0)
(1.01262 -0.00925062 0)
(1.01475 -0.010027 0)
(1.01706 -0.0108109 0)
(1.01954 -0.0116024 0)
(1.0222 -0.0124016 0)
(1.02503 -0.0132085 0)
(1.02805 -0.014023 0)
(1.03125 -0.014845 0)
(1.03463 -0.0156741 0)
(1.0382 -0.01651 0)
(1.04196 -0.017352 0)
(1.04591 -0.0181996 0)
(1.05004 -0.0190519 0)
(1.05437 -0.019908 0)
(1.05889 -0.0207669 0)
(1.06361 -0.0216274 0)
(1.06852 -0.0224882 0)
(1.07362 -0.0233477 0)
(1.07891 -0.0242044 0)
(1.0844 -0.0250566 0)
(1.09008 -0.0259024 0)
(1.09595 -0.0267399 0)
(1.10201 -0.027567 0)
(1.10825 -0.0283815 0)
(1.11468 -0.0291811 0)
(1.12129 -0.0299637 0)
(1.12807 -0.0307268 0)
(1.13503 -0.031468 0)
(1.14215 -0.0321849 0)
(1.14943 -0.0328753 0)
(1.15686 -0.0335367 0)
(1.16445 -0.0341668 0)
(1.17217 -0.0347636 0)
(1.18002 -0.0353248 0)
(1.188 -0.0358486 0)
(1.19609 -0.0363331 0)
(1.20429 -0.0367768 0)
(1.21258 -0.0371781 0)
(1.22096 -0.037536 0)
(1.22942 -0.0378495 0)
(1.23794 -0.0381177 0)
(1.24652 -0.0383402 0)
(1.25514 -0.0385167 0)
(1.26379 -0.0386473 0)
(1.27247 -0.0387322 0)
(1.28116 -0.0387719 0)
(1.28986 -0.0387673 0)
(1.29855 -0.0387193 0)
(1.30721 -0.0386291 0)
(1.31586 -0.0384981 0)
(1.32446 -0.038328 0)
(1.33302 -0.0381205 0)
(1.34153 -0.0378776 0)
(1.34998 -0.0376013 0)
(1.35836 -0.0372939 0)
(1.36666 -0.0369577 0)
(1.37488 -0.0365948 0)
(1.38302 -0.0362078 0)
(1.39106 -0.0357991 0)
(1.39901 -0.0353711 0)
(1.40685 -0.0349263 0)
(1.41459 -0.0344669 0)
(1.42223 -0.0339954 0)
(1.42975 -0.033514 0)
(1.43716 -0.0330251 0)
(1.44446 -0.0325306 0)
(1.45165 -0.0320327 0)
(1.45872 -0.0315332 0)
(1.46568 -0.0310341 0)
(1.47252 -0.0305369 0)
(1.47925 -0.0300433 0)
(1.48587 -0.0295546 0)
(1.49238 -0.0290722 0)
(1.49879 -0.0285972 0)
(1.50508 -0.0281307 0)
(1.51128 -0.0276735 0)
(1.51737 -0.0272264 0)
(1.52336 -0.0267899 0)
(1.52925 -0.0263645 0)
(1.53505 -0.0259506 0)
(1.54076 -0.0255484 0)
(1.54638 -0.0251579 0)
(1.55192 -0.0247791 0)
(1.55737 -0.0244119 0)
(1.56275 -0.0240559 0)
(1.56804 -0.0237109 0)
(1.57326 -0.0233764 0)
(1.57841 -0.0230518 0)
(1.58349 -0.0227365 0)
(1.5885 -0.0224298 0)
(1.59345 -0.022131 0)
(1.59833 -0.0218392 0)
(1.60315 -0.0215535 0)
(1.6079 -0.0212731 0)
(1.6126 -0.0209969 0)
(1.61723 -0.0207241 0)
(1.62181 -0.0204535 0)
(1.62633 -0.0201842 0)
(1.63079 -0.0199152 0)
(1.63519 -0.0196454 0)
(1.63953 -0.0193738 0)
(1.64382 -0.0190994 0)
(1.64804 -0.0188211 0)
(1.65221 -0.0185381 0)
(1.65631 -0.0182493 0)
(1.66035 -0.0179539 0)
(1.66432 -0.0176509 0)
(1.66822 -0.0173396 0)
(1.67206 -0.0170191 0)
(1.67583 -0.0166886 0)
(1.67952 -0.0163475 0)
(1.68313 -0.0159952 0)
(1.68667 -0.0156309 0)
(1.69012 -0.0152542 0)
(1.69349 -0.0148646 0)
(1.69678 -0.0144616 0)
(1.69997 -0.0140448 0)
(1.70307 -0.013614 0)
(1.70607 -0.0131688 0)
(1.70897 -0.012709 0)
(1.71177 -0.0122345 0)
(1.71446 -0.0117451 0)
(1.71704 -0.0112408 0)
(1.71951 -0.0107215 0)
(1.72185 -0.0101874 0)
(1.72408 -0.00963841 0)
(1.72619 -0.00907469 0)
(1.72816 -0.00849641 0)
(1.73001 -0.00790376 0)
(1.73172 -0.00729695 0)
(1.7333 -0.00667625 0)
(1.73473 -0.00604195 0)
(1.73603 -0.00539436 0)
(1.73717 -0.00473383 0)
(1.73817 -0.0040607 0)
(1.73901 -0.00337538 0)
(1.73971 -0.00267825 0)
(1.74024 -0.00196974 0)
(1.74061 -0.00125027 0)
(1.74083 -0.000520295 0)
(1.74087 0.000219737 0)
(1.74076 0.00096936 0)
(1.74047 0.0017281 0)
(1.74001 0.00249547 0)
(1.73938 0.003271 0)
(1.73858 0.00405418 0)
(1.7376 0.00484452 0)
(1.73644 0.0056415 0)
(1.73511 0.00644463 0)
(1.73359 0.00725339 0)
(1.73189 0.00806724 0)
(1.73001 0.00888567 0)
(1.72795 0.00970814 0)
(1.7257 0.0105341 0)
(1.72327 0.011363 0)
(1.72065 0.0121943 0)
(1.71784 0.0130274 0)
(1.71485 0.0138617 0)
(1.71168 0.0146966 0)
(1.70831 0.0155315 0)
(1.70476 0.0163658 0)
(1.70102 0.0171989 0)
(1.6971 0.01803 0)
(1.69299 0.0188585 0)
(1.6887 0.0196837 0)
(1.68422 0.0205048 0)
(1.67955 0.0213212 0)
(1.67471 0.022132 0)
(1.66968 0.0229365 0)
(1.66448 0.0237339 0)
(1.6591 0.0245232 0)
(1.65354 0.0253038 0)
(1.64781 0.0260747 0)
(1.6419 0.026835 0)
(1.63583 0.0275838 0)
(1.62959 0.0283203 0)
(1.62318 0.0290434 0)
(1.61662 0.0297523 0)
(1.60989 0.030446 0)
(1.60302 0.0311236 0)
(1.59599 0.031784 0)
(1.58881 0.0324264 0)
(1.5815 0.0330499 0)
(1.57404 0.0336534 0)
(1.56646 0.0342362 0)
(1.55874 0.0347973 0)
(1.5509 0.0353358 0)
(1.54294 0.035851 0)
(1.53487 0.0363421 0)
(1.52669 0.0368082 0)
(1.51841 0.0372488 0)
(1.51004 0.0376631 0)
(1.50157 0.0380506 0)
(1.49302 0.0384107 0)
(1.48439 0.0387429 0)
(1.47569 0.0390469 0)
(1.46692 0.0393223 0)
(1.4581 0.0395688 0)
(1.44922 0.0397863 0)
(1.4403 0.0399747 0)
(1.43134 0.0401339 0)
(1.42235 0.040264 0)
(1.41334 0.0403651 0)
(1.4043 0.0404374 0)
(1.39525 0.0404813 0)
(1.3862 0.0404971 0)
(1.37714 0.0404852 0)
(1.3681 0.0404462 0)
(1.35906 0.0403807 0)
(1.35005 0.0402894 0)
(1.34105 0.040173 0)
(1.33209 0.0400323 0)
(1.32317 0.0398682 0)
(1.31428 0.0396815 0)
(1.30544 0.0394733 0)
(1.29665 0.0392446 0)
(1.28791 0.0389963 0)
(1.27924 0.0387296 0)
(1.27062 0.0384457 0)
(1.26208 0.0381455 0)
(1.2536 0.0378302 0)
(1.2452 0.0375011 0)
(1.23687 0.0371592 0)
(1.22862 0.0368056 0)
(1.22046 0.0364417 0)
(1.21238 0.0360684 0)
(1.20438 0.0356869 0)
(1.19647 0.0352982 0)
(1.18865 0.0349035 0)
(1.18092 0.0345038 0)
(1.17329 0.0341 0)
(1.16574 0.0336931 0)
(1.15828 0.033284 0)
(1.15092 0.0328736 0)
(1.14365 0.0324626 0)
(1.13647 0.0320519 0)
(1.1294 0.0316422 0)