/*--------------------------------*- C++ -*----------------------------------*\
| =========                 |                                                 |
| \\      /  F ield         | OpenFOAM: The Open Source CFD Toolbox           |
|  \\    /   O peration     | Version:  2112                                  |
|   \\  /    A nd           | Website:  www.openfoam.com                      |
|    \\/     M anipulation  |                                                 |
\*---------------------------------------------------------------------------*/
FoamFile
{
    version     2.0;
    format      ascii;
    arch        "LSB;label=32;scalar=64";
    class       volScalarField;
    location    "0.045";
    object      G;
}
// * * * * * * * * * * * * * * * * * * * * * * * * * * * * * * * * * * * * * //

dimensions      [1 0 -3 0 0 0 0];

internalField   nonuniform List<scalar> 
900
(
84940.7
101673
106533
108386
109374
110016
110468
110799
111045
111230
111369
111471
111544
111590
111612
111612
111590
111544
111471
111369
111230
111045
110799
110468
110016
109374
108386
106533
101673
84940.7
66658.6
83292.1
92331.3
97154.3
99964.3
101771
103020
103923
104592
105093
105467
105742
105935
106058
106118
106118
106058
105935
105742
105467
105093
104592
103923
103020
101771
99964.3
97154.3
92331.3
83292.1
66658.6
60156.8
72548.2
81577.8
87595.2
91592.9
94337.7
96300
97748
98837.9
99665.1
100290
100754
101082
101292
101395
101395
101292
101082
100754
100290
99665.1
98837.9
97748
96300
94337.7
91592.9
87595.2
81577.8
72548.2
60156.8
57224.5
66533
74317.6
80288.9
84701.5
87946.1
90362
92187.8
93582.4
94651.1
95464.3
96069.7
96499.6
96775.4
96910.2
96910.2
96775.4
96499.6
96069.7
95464.3
94651.1
93582.4
92187.8
90362
87946.1
84701.5
80288.9
74317.6
66533
57224.5
55196.9
62515.2
69035.8
74470.1
78813.6
82205.7
84842
86893
88490.8
89732
90685.7
91400.6
91910.9
92239.3
92400.2
92400.2
92239.3
91910.9
91400.6
90685.7
89732
88490.8
86892.9
84842
82205.7
78813.6
74470.1
69035.8
62515.2
55196.8
53294.7
59310.7
64833.1
69663.8
73744.4
77089.4
79794.2
81963.1
83691.2
85056.3
86118.3
86921.7
87498.9
87872.2
88055.5
88055.4
87872.2
87498.9
86921.7
86118.3
85056.3
83691.2
81963
79794.2
77089.4
73744.4
69663.8
64833.1
59310.7
53294.7
51573
56686.5
61441.1
65719.7
69470.1
72655
75313
77500.7
79280.1
80707.9
81831.8
82689.5
83309.6
83712.3
83910.5
83910.5
83712.3
83309.7
82689.6
81831.8
80707.9
79280.1
77500.8
75313.1
72655
69470.2
65719.8
61441.1
56686.5
51573
50071.5
54490.4
58628.9
62415.2
65820
68784.8
71320.8
73454
75221
76659.8
77805.6
78687.8
79329.6
79748.3
79954.8
79954.8
79748.3
79329.7
78687.8
77805.7
76659.9
75221
73454.1
71320.9
68784.9
65820
62415.3
58629
54490.5
50071.6
48679.3
52536.4
56173.2
59531.7
62611.3
65342.4
67723.3
69762.4
71478.1
72893.9
74033.5
74918.5
75566.4
75990.8
76200.8
76200.8
75990.8
75566.4
74918.4
74033.5
72893.8
71478
69762.3
67723.3
65342.3
62611.2
59531.6
56173.1
52536.3
48679.3
47329.6
50738
53966.7
56961
59749.7
62255.1
64470.6
66394.7
68034.6
69402.9
70514.7
71384.5
72025
72446.2
72655.1
72655.1
72446.2
72024.9
71384.4
70514.6
69402.8
68034.4
66394.6
64470.4
62255
59749.5
56960.8
53966.5
50737.8
47329.4
46032.7
49079.9
51969.9
54650.1
57178.6
59470.9
61519
63317.3
64865.7
66169.7
67237.6
68078.6
68701
69111.8
69315.9
69315.9
69111.8
68700.9
68078.5
67237.6
66169.7
64865.6
63317.2
61518.9
59470.8
57178.5
54650
51969.8
49079.8
46032.6
44798
47542.2
50144.4
52548.5
54843.1
56937.5
58822.9
60492.8
61942.6
63172.7
64186.9
64990
65586.9
65982.2
66179
66179
65982.3
65587.1
64990.2
64187.2
63173
61942.8
60493.1
58823.1
56937.7
54843.4
52548.7
50144.6
47542.4
44798.3
43610.9
46095.2
48452.1
50613
52699.6
54613.7
56346
57890.8
59240.6
60392.8
61347.8
62107.5
62674.2
63050.4
63238
63238
63050.5
62674.3
62107.7
61348.1
60393.2
59241.1
57891.3
56346.4
54614.1
52700
50613.4
48452.5
46095.5
43611.3
42457.5
44720.4
46869.4
48816.7
50718.9
52470.7
54061.1
55486.6
56738.5
57811.9
58705.3
59418.5
59952.2
60307.2
60484.4
60484.4
60307.1
59952.1
59418.5
58705.3
57811.9
56738.6
55486.8
54061.2
52470.8
50719
48816.8
46869.5
44720.5
42457.6
41334.8
43410.1
45382.2
47140.7
48878.9
50484.7
51944.4
53257.9
54415.9
55412.1
56243.9
56909.9
57409.3
57742
57908.3
57908.2
57741.9
57409
56909.5
56243.4
55411.5
54415.3
53257.4
51944
50484.3
48878.4
47140.3
45381.8
43409.7
41334.4
40242.4
42156.6
43977.6
45568
47159.5
48634.7
49975.1
51184.6
52254.2
53176.7
53948.7
54568.1
55033.4
55343.9
55499.1
55499.1
55343.8
55033.2
54567.6
53948
53175.8
52253.4
51183.7
49974.3
48633.8
47158.6
45567.2
43976.7
42155.8
40241.5
39176.1
40950.8
42642.7
44083.4
45543.7
46902.9
48135.4
49249.4
50237.2
51090.5
51805.7
52380.5
52812.9
53101.7
53246.3
53246.4
53101.9
52813.1
52380.5
51805.5
51090.1
50236.8
49249
48134.9
46902.3
45543
44082.7
42642
40950.1
39175.5
38131.2
39784.7
41367.6
42675.2
44018.4
45275.2
46410.9
47438
48350.9
49140.2
49802.5
50335.4
50736.7
51005
51139.4
51139.5
51005.4
50737.3
50336
49803
49140.7
48351.4
47438.6
46411.4
45275.5
44018.6
42675.4
41367.8
39784.8
38131.4
37104.4
38653.2
40145.2
41334.6
42572.8
43739.9
44789.4
45737.9
46582.8
47314
47927.7
48421.8
48794.2
49043.1
49167.9
49168
49043.6
48794.9
48422.7
47928.6
47315.2
46584.2
45739.5
44790.9
43741.3
42574.2
41335.9
40146.5
38654.5
37105.6
36094
37552.4
38969.3
40054
41197.9
42286.7
43260.1
44138.2
44922.1
45600.8
46170.4
46629.1
46974.8
47205.9
47321.6
47321.8
47206.3
46975.4
46629.8
46171.2
45602
44923.6
44140
43262
42288.6
41199.9
40056
38971.2
37554.3
36095.8
35098.2
36478.3
37834.1
38826.6
39885.4
40906.3
41813.4
42628.6
43358.2
43990.3
44520.3
44947
45268.5
45483.3
45590.8
45590.9
45483.5
45268.7
44946.9
44520.1
43990.5
43358.9
42629.6
41814.5
40907.6
39886.8
38828
37835.6
36479.8
35099.6
34114.6
35426.7
36734
37645.6
38627.6
39590.2
40440
41199.6
41881.2
42472.3
42967.1
43365.3
43665.3
43865.6
43965.8
43965.9
43865.9
43665.2
43364.4
42965.7
42471
41880.2
41198.9
40439.4
39589.6
38627.2
37645.4
36733.8
35426.6
34114.5
33140.5
34393.3
35663.5
36505
37417
38329.8
39131.1
39841.8
40481.4
41037.1
41501.2
41874.4
42155.8
42343.5
42437.4
42437.7
42344
42155.6
41873
41498.8
41034.3
40478.7
39839.2
39128.4
38327
37414.2
36502.3
35661
34390.8
33138.1
32172.9
33373.9
34617.2
35398.3
36246.4
37117.1
37878.2
38546.5
39149.7
39675.5
40113.6
40465.2
40730.6
40907.9
40996.6
40997.2
40908.8
40730.6
40463.5
40110.4
39671.6
39145.8
38542.5
37874
37112.6
36241.7
35393.5
34612.3
33369.1
32168.2
31210.2
32365.6
33590.9
34321.2
35110.6
35945.9
36675
37306.9
37878.9
38380.2
38796.9
39130.3
39382.4
39551.2
39635.9
39636.6
39552.6
39382.7
39128.6
38793.4
38375.9
37874.5
37302.5
36670.3
35940.8
35105.1
34315.4
33584.9
32359.4
31204
30246.8
31361.7
32577
33265.4
34000.5
34806.2
35511.2
36112.7
36657.9
37139.4
37539.2
37857.5
38098.4
38260.6
38342.3
38343.2
38262.3
38099.1
37856
37535.7
37135.1
36653.6
36108.6
35507.1
34802
33995.9
33260.3
32571.5
31355.9
30240.8
29295.7
30374.8
31587.3
32242.4
32927.6
33709
34397.5
34974.5
35496.8
35963
36350.2
36656.6
36888.4
37045.5
37125.3
37126.2
37047.4
36889.3
36655.3
36346.9
35958.9
35493
34971.4
34395
33706.7
32925.2
32239.6
31584
30371.2
29291.8
28297.4
29342.5
30558.6
31189.2
31826
32585.1
33264
33821.8
34323.4
34776.5
35154.6
35451.6
35675.6
35828.8
35907.3
35908.2
35830.7
35676.8
35450.6
35151.6
34772.8
34320.1
33819.7
33263.2
32585.3
31826.6
31189.7
30558.8
29342.3
28296.9
27494
28513.9
29736.6
30349.9
30948.1
31692.4
32367.5
32911.4
33397.1
33841.9
34215.1
34505.9
34724.3
34874.9
34953.1
34954
34876.7
34725.4
34505.2
34212.5
33838.5
33394.2
32910.3
32368.4
31695.1
30952
30354.2
29741.1
28518.3
27498.5
25903.6
26877.1
28122.7
28728.1
29260.3
29973.1
30653.4
31188.7
31649.9
32078.9
32447.9
32735.1
32947.4
33093.7
33170.7
33171.4
33095.2
32948.5
32734.8
32445.9
32075.7
31647.1
31187.9
30655.4
29978
29267.2
28736.1
28131.1
26885.5
25912.3
)
;

boundaryField
{
    fixedWall_Bottom
    {
        type            calculated;
        value           uniform 113408;
    }
    fixedWall_Right
    {
        type            calculated;
        value           nonuniform List<scalar> 
30
(
56588.6
55082.5
53468.1
52421.9
51418.7
50197.6
48970.7
47845.7
46749.5
45639.1
44540.6
43473.5
42430.1
41401.2
40387.7
39392.2
38413.4
37447.9
36493.4
35548.6
34611.7
33681
32754.5
31830.6
30908.9
29984.9
29071.8
28110.9
27339.8
25797
)
;
    }
    fixedWall_Left
    {
        type            calculated;
        value           nonuniform List<scalar> 
30
(
56588.6
55082.5
53468.1
52421.9
51418.7
50197.6
48970.6
47845.6
46749.5
45639.3
44540.7
43473.3
42429.7
41401
40388.1
39393.1
38414.1
37447.8
36492.2
35546.7
34610.3
33681
32756.9
31835.4
30915.1
29990.9
29075.7
28111.4
27335.3
25788.3
)
;
    }
    fixedWall_Top
    {
        type            calculated;
        value           nonuniform List<scalar> 
30
(
25903.6
26877.1
28122.7
28728.1
29260.3
29973.1
30653.4
31188.7
31649.9
32078.9
32447.9
32735.1
32947.4
33093.7
33170.7
33171.4
33095.2
32948.5
32734.8
32445.9
32075.7
31647.1
31187.9
30655.4
29978
29267.2
28736.1
28131.1
26885.5
25912.3
)
;
    }
    frontAndBack
    {
        type            empty;
    }
}


// ************************************************************************* //
