/*--------------------------------*- C++ -*----------------------------------*\
| =========                 |                                                 |
| \\      /  F ield         | OpenFOAM: The Open Source CFD Toolbox           |
|  \\    /   O peration     | Version:  2112                                  |
|   \\  /    A nd           | Website:  www.openfoam.com                      |
|    \\/     M anipulation  |                                                 |
\*---------------------------------------------------------------------------*/
FoamFile
{
    version     2.0;
    format      ascii;
    arch        "LSB;label=32;scalar=64";
    class       volScalarField;
    location    "0.045";
    object      qin;
}
// * * * * * * * * * * * * * * * * * * * * * * * * * * * * * * * * * * * * * //

dimensions      [1 0 -3 0 0 0 0];

internalField   uniform 0;

boundaryField
{
    fixedWall_Bottom
    {
        type            calculated;
        value           uniform 0;
    }
    fixedWall_Right
    {
        type            calculated;
        value           nonuniform List<scalar> 
30
(
28261.5
27080.2
25814.6
24997.5
24218.9
23273.5
22327.1
21465.8
20633.7
19796.7
18974.2
18181.8
17414.3
16664.3
15932.2
15220.2
14527.5
13852.4
13193.5
12550.7
11923.6
11311.8
10715.1
10133.5
9567.14
9015.5
8483.56
7950
7513.91
6740.04
)
;
    }
    fixedWall_Left
    {
        type            calculated;
        value           nonuniform List<scalar> 
30
(
28261.5
27080.2
25814.6
24997.5
24218.9
23273.5
22327
21465.8
20633.8
19796.8
18974.1
18181.6
17414.1
16664.5
15932.7
15220.6
14527.5
13851.7
13192.5
12549.8
11923.5
11313
10717.6
10136.7
9570.32
9017.61
8483.71
7947.96
7509.12
6734.51
)
;
    }
    fixedWall_Top
    {
        type            calculated;
        value           nonuniform List<scalar> 
30
(
18018.6
18944.3
20023.7
20614.4
21142.9
21811.5
22452.7
22974.9
23429.9
23849.9
24212.7
24499
24711.7
24857
24932.5
24933
24858
24712.2
24498.2
24210.8
23847.8
23428.9
22976
22456.1
21816.9
21149.5
20621.5
20031
18951.6
18026
)
;
    }
    frontAndBack
    {
        type            empty;
    }
}


// ************************************************************************* //
