/*--------------------------------*- C++ -*----------------------------------*\
| =========                 |                                                 |
| \\      /  F ield         | OpenFOAM: The Open Source CFD Toolbox           |
|  \\    /   O peration     | Version:  2112                                  |
|   \\  /    A nd           | Website:  www.openfoam.com                      |
|    \\/     M anipulation  |                                                 |
\*---------------------------------------------------------------------------*/
FoamFile
{
    version     2.0;
    format      ascii;
    arch        "LSB;label=32;scalar=64";
    class       volScalarField;
    location    "0.125";
    object      G;
}
// * * * * * * * * * * * * * * * * * * * * * * * * * * * * * * * * * * * * * //

dimensions      [1 0 -3 0 0 0 0];

internalField   nonuniform List<scalar> 
900
(
142687
164638
173156
177993
181553
184444
186846
188860
190550
191954
193096
193993
194656
195095
195313
195313
195095
194656
193993
193096
191954
190550
188860
186846
184444
181553
177993
173156
164638
142686
126831
149459
162762
171079
176865
181243
184707
187514
189809
191678
193174
194336
195189
195749
196027
196027
195749
195189
194336
193174
191678
189809
187514
184707
181243
176865
171079
162762
149459
126831
122957
141685
155338
165204
172489
178069
182469
186008
188880
191203
193054
194486
195533
196219
196559
196559
196219
195533
194486
193054
191203
188880
186008
182469
178069
172489
165204
155337
141685
122957
121698
137525
150139
160203
168141
174439
179487
183573
186895
189581
191719
193370
194577
195367
195758
195758
195367
194577
193370
191719
189581
186895
183573
179486
174439
168141
160203
150139
137525
121698
121115
135056
146522
156200
164230
170832
176247
180692
184333
187290
189650
191475
192810
193685
194118
194118
193685
192810
191475
189650
187290
184333
180692
176247
170832
164230
156200
146522
135056
121115
120395
133078
143606
152767
160633
167292
172880
177541
181402
184561
187095
189061
190503
191449
191918
191918
191449
190503
189061
187095
184561
181402
177541
172880
167292
160633
152767
143606
133078
120395
119600
131393
141182
149839
157434
164000
169613
174365
178344
181625
184273
186336
187853
188849
189344
189344
188849
187853
186336
184273
181625
178344
174365
169613
164000
157434
149839
141182
131393
119600
118796
129886
139067
147254
154535
160919
166454
171198
175211
178546
181252
183371
184933
185962
186473
186473
185962
184933
183371
181252
178546
175211
171198
166454
160919
154535
147254
139067
129885
118796
117907
128407
137079
144838
151802
157967
163369
168044
172032
175370
178095
180237
181822
182868
183388
183388
182868
181822
180237
178095
175370
172032
168044
163369
157967
151802
144838
137079
128407
117906
116884
126891
135130
142508
149171
155107
160345
164914
168837
172141
174851
176989
178576
179625
180147
180147
179625
178576
176989
174851
172141
168837
164914
160345
155106
149171
142508
135130
126891
116884
115751
125333
133197
140230
146608
152312
157373
161810
165640
168880
171549
173662
175233
176275
176794
176794
176275
175233
173662
171549
168880
165640
161810
157373
152312
146608
140230
133197
125333
115750
114524
123726
131255
137970
144078
149554
154429
158720
162438
165596
168205
170276
171821
172845
173356
173356
172845
171821
170276
168205
165596
162438
158720
154429
149554
144078
137969
131255
123726
114524
113200
122054
129281
135699
141553
146809
151496
155634
159230
162293
164829
166848
168355
169357
169857
169857
169357
168355
166848
164829
162293
159230
155634
151496
146809
141553
135699
129281
122054
113200
111776
120307
127261
133401
139015
144059
148561
152544
156012
158971
161426
163384
164848
165821
166307
166307
165821
164848
163384
161426
158971
156012
152544
148561
144059
139015
133401
127261
120307
111776
110258
118487
125190
131068
136453
141293
145614
149440
152777
155628
157997
159888
161303
162246
162716
162716
162246
161303
159888
157997
155628
152777
149440
145614
141293
136453
131068
125190
118487
110258
108651
116594
123062
128689
133855
138499
142642
146314
149519
152260
154539
156360
157724
158633
159087
159087
158633
157724
156360
154539
152260
149519
146314
142642
138499
133855
128689
123062
116594
108651
106957
114624
120873
126258
131212
135667
139638
143157
146230
148860
151048
152797
154108
154982
155418
155418
154982
154108
152797
151048
148860
146230
143157
139638
135667
131212
126258
120873
114624
106957
105178
112576
118617
123769
128518
132790
136592
139960
142903
145422
147518
149194
150451
151289
151708
151708
151289
150451
149194
147518
145422
142903
139960
136592
132790
128518
123769
118617
112576
105178
103316
110450
116293
121217
125764
129859
133495
136714
139529
141937
143942
145545
146747
147548
147949
147949
147548
146747
145545
143942
141937
139529
136714
133495
129859
125764
121217
116293
110451
103316
101372
108245
113895
118596
122943
126865
130339
133411
136098
138396
140309
141839
142987
143752
144134
144134
143752
142987
141839
140309
138396
136098
133411
130339
126865
122943
118596
113895
108245
101372
99344
105956
111419
115899
120048
123799
127113
130040
132599
134789
136611
138068
139161
139889
140253
140253
139889
139161
138068
136611
134789
132599
130040
127113
123799
120048
115899
111420
105956
99344.1
97231.9
103580
108859
113120
117068
120650
123807
126587
129020
131102
132833
134217
135255
135947
136293
136293
135947
135255
134217
132833
131102
129021
126587
123807
120650
117069
113120
108860
103580
97232
95034.6
101114
106209
110249
113994
117406
120405
123040
125346
127321
128961
130272
131256
131912
132239
132239
131912
131256
130272
128961
127321
125346
123040
120405
117406
113994
110249
106209
101114
95034.7
92747.1
98548.5
103457
107274
110810
114050
116892
119380
121559
123426
124975
126213
127142
127762
128071
128071
127762
127142
126213
124975
123426
121559
119380
116892
114050
110810
107274
103457
98548.7
92747.3
90355.8
95869.2
100585
104175
107496
110560
113245
115585
117634
119393
120852
122017
122891
123475
123766
123766
123475
122891
122017
120852
119393
117635
115585
113245
110560
107496
104175
100585
95869.4
90356
87845.7
93052.6
97565
100921
104016
106900
109426
111616
113535
115185
116554
117645
118465
119012
119285
119285
119012
118465
117645
116554
115185
113535
111616
109426
106900
104016
100921
97565.1
93052.8
87845.9
85230.4
90098.9
94387.9
97496
100352
103045
105408
107445
109230
110769
112047
113064
113828
114339
114594
114594
114339
113828
113064
112047
110769
109230
107445
105408
103045
100352
97496.2
94388
90099.1
85230.6
82441.6
86922.2
90956.8
93796.8
96392.6
98881.2
101074
102951
104594
106017
107200
108140
108846
109318
109554
109554
109318
108846
108140
107200
106017
104594
102951
101074
98881.3
96392.7
93797
90957
86922.4
82441.9
79449.2
83499
87248.5
89818
92162.4
94454.4
96486.1
98212.9
99723.3
101039
102135
103003
103655
104092
104311
104311
104092
103655
103003
102135
101039
99723.4
98213
96486.3
94454.6
92162.5
89818.2
87248.7
83499.2
79449.5
75282.9
78643
82007.2
84222.5
86211.3
88227.2
90049.3
91577.5
92901.4
94065.9
95043
95814.7
96390.6
96778.1
96974.1
96974.1
96778.1
96390.6
95814.8
95043
94066
92901.5
91577.6
90049.4
88227.3
86211.4
84222.7
82007.4
78643.3
75283.3
)
;

boundaryField
{
    fixedWall_Bottom
    {
        type            calculated;
        value           nonuniform List<scalar> 
30
(
167699
172051
175288
177986
180345
182423
184233
185800
187147
188287
189226
189970
190524
190892
191075
191075
190892
190524
189970
189226
188287
187147
185800
184233
182423
180345
177986
175288
172050
167699
)
;
    }
    fixedWall_Right
    {
        type            calculated;
        value           nonuniform List<scalar> 
30
(
111531
112154
113006
113540
113913
113827
113493
113044
112441
111658
110730
109686
108529
107259
105886
104419
102860
101213
99481.6
97666.9
95769.5
93788.8
91725
89574.7
87325.5
84965.3
82511.1
79906.6
77139.6
73386.4
)
;
    }
    fixedWall_Left
    {
        type            calculated;
        value           nonuniform List<scalar> 
30
(
111531
112154
113006
113540
113913
113827
113494
113044
112441
111658
110730
109686
108529
107259
105886
104419
102860
101213
99481.5
97666.8
95769.4
93788.6
91724.9
89574.5
87325.4
84965.2
82510.9
79906.4
77139.4
73386.1
)
;
    }
    fixedWall_Top
    {
        type            calculated;
        value           nonuniform List<scalar> 
30
(
73548.1
76558
79729.4
81810.6
83692
85615.4
87358
88818.6
90084.9
91200.6
92137.5
92877.6
93429.8
93801.6
93989.8
93989.8
93801.7
93429.9
92877.6
92137.6
91200.7
90085
88818.7
87358.1
85615.6
83692.2
81810.8
79729.7
76558.3
73548.4
)
;
    }
    frontAndBack
    {
        type            empty;
    }
}


// ************************************************************************* //
