/*--------------------------------*- C++ -*----------------------------------*\
| =========                 |                                                 |
| \\      /  F ield         | OpenFOAM: The Open Source CFD Toolbox           |
|  \\    /   O peration     | Version:  2112                                  |
|   \\  /    A nd           | Website:  www.openfoam.com                      |
|    \\/     M anipulation  |                                                 |
\*---------------------------------------------------------------------------*/
FoamFile
{
    version     2.0;
    format      ascii;
    arch        "LSB;label=32;scalar=64";
    class       volScalarField;
    location    "0.125";
    object      qr;
}
// * * * * * * * * * * * * * * * * * * * * * * * * * * * * * * * * * * * * * //

dimensions      [1 0 -3 0 0 0 0];

internalField   uniform 0;

boundaryField
{
    fixedWall_Bottom
    {
        type            calculated;
        value           nonuniform List<scalar> 
30
(
-30659.7
-27390.7
-25106.1
-23182.1
-21510.8
-20038.3
-18759
-17653.3
-16703.9
-15901.7
-15241.7
-14719
-14329.9
-14071.6
-13942.8
-13942.8
-14071.6
-14329.9
-14719.1
-15241.7
-15901.8
-16703.9
-17653.4
-18759
-20038.4
-21510.9
-23182.2
-25106.2
-27390.8
-30659.8
)
;
    }
    fixedWall_Right
    {
        type            calculated;
        value           nonuniform List<scalar> 
30
(
58103.2
59001.4
59596.2
60030.6
60305.3
60220.8
59940.8
59572.9
59089.7
58473
57752.2
56951
56072.4
55118
54095.5
53012.1
51870.7
50673.1
49421.7
48117.6
46760.4
45349
43882.8
42358.2
40764.7
39091.6
37351.7
35497.5
33530.7
30746.5
)
;
    }
    fixedWall_Left
    {
        type            calculated;
        value           nonuniform List<scalar> 
30
(
58103.3
59001.6
59596.3
60030.7
60305.3
60220.8
59940.8
59572.9
59089.7
58473.1
57752.2
56951
56072.5
55118
54095.5
53012.1
51870.6
50673.1
49421.6
48117.5
46760.3
45348.9
43882.7
42358.1
40764.6
39091.5
37351.6
35497.4
33530.6
30746.4
)
;
    }
    fixedWall_Top
    {
        type            calculated;
        value           nonuniform List<scalar> 
30
(
44009.2
46780
49353.8
51143.9
52752.1
54389.4
55875.5
57130.5
58221.3
59181.8
59989.2
60628.5
61106.2
61427.7
61590.3
61590.3
61427.7
61106.2
60628.6
59989.3
59181.9
58221.4
57130.6
55875.6
54389.5
52752.1
51144
49353.9
46780.2
44009.3
)
;
    }
    frontAndBack
    {
        type            empty;
    }
}


// ************************************************************************* //
