/*--------------------------------*- C++ -*----------------------------------*\
| =========                 |                                                 |
| \\      /  F ield         | OpenFOAM: The Open Source CFD Toolbox           |
|  \\    /   O peration     | Version:  2306                                  |
|   \\  /    A nd           | Website:  www.openfoam.com                      |
|    \\/     M anipulation  |                                                 |
\*---------------------------------------------------------------------------*/
FoamFile
{
    version     2.0;
    format      ascii;
    arch        "LSB;label=32;scalar=64";
    class       volScalarField;
    location    "10.5";
    object      Keff;
}
// * * * * * * * * * * * * * * * * * * * * * * * * * * * * * * * * * * * * * //

dimensions      [1 1 -3 -1 0 0 0];

internalField   nonuniform List<scalar> 
32768
(
67.2037
67.2017
67.1976
67.1915
67.1832
67.1728
67.1604
67.1458
67.1292
67.1104
67.0894
67.0663
67.0411
67.0136
66.9839
66.9519
66.9177
66.8812
66.8424
66.8013
66.7578
66.7119
66.6637
66.6131
66.5601
66.5046
66.4467
66.3864
66.3236
66.2584
66.1907
66.1207
66.0482
65.9733
65.8961
65.8166
65.7348
65.6507
65.5645
65.4761
65.3857
65.2933
65.1989
65.1028
65.0049
64.9053
64.8042
64.7017
64.5979
64.4928
64.3867
64.2796
64.1717
64.063
63.9538
63.8441
63.7341
63.6238
63.5135
63.4033
63.2932
63.1833
63.0739
62.965
62.8566
62.749
62.6421
62.5361
62.4311
62.3271
62.2241
62.1223
62.0217
61.9223
61.8242
61.7274
61.6319
61.5378
61.445
61.3536
61.2636
61.175
61.0877
61.0018
60.9172
60.834
60.7521
60.6714
60.592
60.5139
60.437
60.3612
60.2866
60.2132
60.1408
60.0695
59.9993
59.9301
59.8619
59.7946
59.7283
59.663
59.5985
59.535
59.4724
59.4106
59.3498
59.2898
59.2307
59.1725
59.1152
59.0588
59.0033
58.9487
58.8951
58.8424
58.7907
58.74
58.6904
58.6418
58.5944
58.548
58.5029
58.4589
58.4162
58.3748
58.3347
58.296
58.2587
58.2229
58.1885
58.1557
58.1245
58.0949
58.0669
58.0407
58.0162
57.9936
57.9728
57.9538
57.9368
57.9218
57.9087
57.8977
57.8887
57.8819
57.8772
57.8746
57.8743
57.8762
57.8803
57.8867
57.8955
57.9065
57.9199
57.9356
57.9538
57.9743
57.9972
58.0226
58.0504
58.0806
58.1133
58.1485
58.1861
58.2261
58.2686
58.3136
58.361
58.4109
58.4631
58.5179
58.575
58.6345
58.6964
58.7606
58.8272
58.896
58.9672
59.0406
59.1162
59.194
59.2739
59.3559
59.44
59.5261
59.6142
59.7041
59.7959
59.8895
59.9849
60.0819
60.1805
60.2806
60.3822
60.4853
60.5896
60.6951
60.8019
60.9097
61.0185
61.1282
61.2388
61.3501
61.4621
61.5746
61.6876
61.8011
61.9148
62.0288
62.1429
62.257
62.3712
62.4852
62.599
62.7126
62.8258
62.9386
63.0509
63.1626
63.2738
63.3842
63.4938
63.6027
63.7107
63.8177
63.9238
64.0289
64.1329
64.2359
64.3377
64.4384
64.5378
64.6361
64.7332
64.829
64.9236
65.0169
65.109
65.1998
65.2893
65.3775
65.4645
65.5502
65.6346
65.7179
65.7998
65.8806
65.9601
66.0388
66.1155
66.1929
66.2648
66.3461
66.402
66.5182
67.2037
67.2017
67.1976
67.1915
67.1832
67.1728
67.1604
67.1459
67.1292
67.1104
67.0895
67.0664
67.0411
67.0136
66.9839
66.952
66.9178
66.8813
66.8425
66.8014
66.7579
66.712
66.6638
66.6131
66.5601
66.5046
66.4467
66.3863
66.3235
66.2583
66.1906
66.1205
66.0479
65.973
65.8957
65.8161
65.7342
65.6501
65.5638
65.4753
65.3848
65.2922
65.1978
65.1015
65.0034
64.9038
64.8025
64.6999
64.5959
64.4907
64.3844
64.2772
64.1691
64.0603
63.9509
63.8411
63.7309
63.6205
63.5101
63.3997
63.2895
63.1795
63.07
62.961
62.8525
62.7448
62.6378
62.5318
62.4266
62.3225
62.2195
62.1177
62.017
61.9176
61.8195
61.7226
61.6271
61.533
61.4402
61.3488
61.2588
61.1702
61.0829
60.997
60.9125
60.8293
60.7473
60.6667
60.5874
60.5093
60.4324
60.3566
60.2821
60.2086
60.1363
60.065
59.9948
59.9256
59.8574
59.7902
59.7239
59.6586
59.5942
59.5306
59.468
59.4063
59.3454
59.2854
59.2263
59.1681
59.1108
59.0544
58.9988
58.9442
58.8906
58.8379
58.7862
58.7355
58.6858
58.6372
58.5897
58.5434
58.4982
58.4542
58.4114
58.37
58.3299
58.2911
58.2537
58.2178
58.1834
58.1506
58.1193
58.0897
58.0617
58.0354
58.0109
57.9882
57.9674
57.9484
57.9313
57.9163
57.9032
57.8921
57.8831
57.8762
57.8715
57.8689
57.8686
57.8704
57.8745
57.8809
57.8896
57.9007
57.914
57.9298
57.9479
57.9684
57.9913
58.0167
58.0445
58.0747
58.1074
58.1425
58.1801
58.2202
58.2627
58.3077
58.3551
58.4049
58.4572
58.512
58.5691
58.6286
58.6905
58.7548
58.8214
58.8903
58.9614
59.0349
59.1105
59.1883
59.2683
59.3504
59.4345
59.5207
59.6088
59.6988
59.7906
59.8843
59.9797
60.0768
60.1755
60.2757
60.3774
60.4805
60.5849
60.6905
60.7973
60.9052
61.0141
61.124
61.2346
61.346
61.4581
61.5707
61.6839
61.7974
61.9112
62.0253
62.1395
62.2538
62.368
62.4821
62.5961
62.7097
62.823
62.9359
63.0483
63.1602
63.2714
63.3819
63.4916
63.6005
63.7086
63.8157
63.9219
64.027
64.1311
64.2342
64.336
64.4368
64.5363
64.6346
64.7318
64.8276
64.9223
65.0156
65.1077
65.1985
65.288
65.3763
65.4633
65.549
65.6335
65.7167
65.7987
65.8795
65.959
66.0377
66.1144
66.1918
66.2637
66.345
66.4009
66.5172
67.2037
67.2017
67.1977
67.1915
67.1832
67.1729
67.1604
67.1459
67.1293
67.1105
67.0896
67.0665
67.0412
67.0138
66.9841
66.9522
66.918
66.8815
66.8427
66.8015
66.758
66.7122
66.6639
66.6133
66.5602
66.5047
66.4467
66.3863
66.3234
66.2581
66.1903
66.1201
66.0474
65.9724
65.895
65.8152
65.7332
65.6488
65.5623
65.4736
65.3829
65.2901
65.1954
65.0989
65.0006
64.9007
64.7992
64.6962
64.5919
64.4864
64.3799
64.2723
64.1639
64.0548
63.9452
63.835
63.7246
63.6139
63.5032
63.3926
63.2821
63.1719
63.0622
62.9529
62.8443
62.7363
62.6292
62.523
62.4177
62.3135
62.2104
62.1084
62.0077
61.9082
61.81
61.7131
61.6176
61.5234
61.4306
61.3392
61.2492
61.1606
61.0734
60.9875
60.903
60.8198
60.7379
60.6574
60.5781
60.5
60.4231
60.3475
60.273
60.1996
60.1273
60.0561
59.9859
59.9168
59.8486
59.7814
59.7151
59.6498
59.5854
59.5219
59.4593
59.3976
59.3367
59.2767
59.2176
59.1594
59.102
59.0456
58.99
58.9354
58.8817
58.8289
58.7771
58.7264
58.6767
58.628
58.5804
58.534
58.4887
58.4447
58.4018
58.3603
58.3201
58.2812
58.2438
58.2078
58.1733
58.1404
58.109
58.0793
58.0512
58.0249
58.0003
57.9775
57.9566
57.9375
57.9204
57.9053
57.8921
57.881
57.8719
57.865
57.8602
57.8576
57.8571
57.8589
57.863
57.8694
57.878
57.889
57.9023
57.918
57.9361
57.9566
57.9795
58.0049
58.0327
58.0629
58.0956
58.1307
58.1683
58.2083
58.2509
58.2958
58.3433
58.3931
58.4455
58.5002
58.5574
58.6169
58.6789
58.7432
58.8098
58.8788
58.95
59.0235
59.0992
59.1771
59.2572
59.3393
59.4235
59.5098
59.598
59.6881
59.7801
59.8739
59.9694
60.0666
60.1654
60.2658
60.3676
60.4709
60.5755
60.6813
60.7883
60.8963
61.0054
61.1154
61.2263
61.3379
61.4501
61.563
61.6763
61.79
61.9041
62.0184
62.1328
62.2472
62.3617
62.476
62.5901
62.704
62.8175
62.9306
63.0432
63.1552
63.2666
63.3772
63.4872
63.5962
63.7045
63.8118
63.9181
64.0234
64.1276
64.2307
64.3327
64.4336
64.5332
64.6317
64.7289
64.8249
64.9196
65.013
65.1051
65.196
65.2856
65.3739
65.4609
65.5467
65.6312
65.7145
65.7965
65.8773
65.9569
66.0355
66.1122
66.1897
66.2616
66.3429
66.3987
66.515
67.2037
67.2017
67.1977
67.1915
67.1832
67.1729
67.1605
67.146
67.1294
67.1106
67.0897
67.0667
67.0414
67.014
66.9843
66.9524
66.9182
66.8817
66.8429
66.8018
66.7583
66.7124
66.6641
66.6134
66.5603
66.5047
66.4467
66.3862
66.3232
66.2578
66.1899
66.1195
66.0467
65.9715
65.8939
65.8139
65.7316
65.647
65.5602
65.4712
65.3801
65.287
65.192
65.095
64.9964
64.896
64.7941
64.6907
64.586
64.4801
64.373
64.265
64.1562
64.0467
63.9365
63.826
63.7151
63.604
63.4929
63.3819
63.271
63.1605
63.0504
62.9408
62.8319
62.7237
62.6163
62.5098
62.4043
62.2999
62.1966
62.0945
61.9936
61.894
61.7958
61.6988
61.6032
61.509
61.4162
61.3248
61.2348
61.1462
61.059
60.9732
60.8887
60.8056
60.7238
60.6433
60.5641
60.4861
60.4093
60.3337
60.2593
60.186
60.1138
60.0427
59.9725
59.9035
59.8354
59.7682
59.702
59.6367
59.5724
59.5089
59.4463
59.3845
59.3237
59.2637
59.2046
59.1463
59.0889
59.0324
58.9768
58.9221
58.8683
58.8155
58.7636
58.7128
58.6629
58.6142
58.5665
58.52
58.4746
58.4304
58.3875
58.3458
58.3055
58.2665
58.2289
58.1928
58.1582
58.1251
58.0936
58.0638
58.0356
58.0091
57.9844
57.9615
57.9404
57.9213
57.904
57.8888
57.8755
57.8643
57.8551
57.8481
57.8432
57.8405
57.84
57.8417
57.8457
57.852
57.8606
57.8716
57.8848
57.9005
57.9185
57.939
57.9619
57.9872
58.0149
58.0451
58.0778
58.1129
58.1505
58.1906
58.2331
58.2781
58.3255
58.3754
58.4278
58.4826
58.5398
58.5994
58.6614
58.7258
58.7925
58.8615
58.9328
59.0064
59.0822
59.1603
59.2404
59.3227
59.4071
59.4935
59.5818
59.6721
59.7643
59.8582
59.954
60.0514
60.1504
60.251
60.3531
60.4565
60.5614
60.6674
60.7747
60.883
60.9924
61.1027
61.2138
61.3257
61.4382
61.5514
61.665
61.779
61.8934
62.008
62.1227
62.2375
62.3522
62.4668
62.5813
62.6954
62.8092
62.9226
63.0355
63.1478
63.2594
63.3703
63.4805
63.5898
63.6983
63.8058
63.9124
64.0179
64.1223
64.2256
64.3278
64.4288
64.5287
64.6273
64.7246
64.8207
64.9155
65.0091
65.1013
65.1923
65.282
65.3703
65.4574
65.5433
65.6278
65.7111
65.7932
65.8741
65.9536
66.0323
66.109
66.1864
66.2583
66.3397
66.3955
66.5118
67.2037
67.2017
67.1977
67.1915
67.1833
67.173
67.1606
67.1461
67.1295
67.1108
67.0899
67.0669
67.0417
67.0143
66.9846
66.9527
66.9186
66.8821
66.8433
66.8022
66.7587
66.7128
66.6645
66.6137
66.5605
66.5049
66.4467
66.3861
66.323
66.2574
66.1893
66.1188
66.0458
65.9703
65.8924
65.8121
65.7295
65.6445
65.5573
65.468
65.3764
65.2829
65.1874
65.0899
64.9907
64.8898
64.7873
64.6834
64.5781
64.4716
64.364
64.2554
64.1459
64.0358
63.9251
63.8139
63.7025
63.5909
63.4792
63.3676
63.2563
63.1453
63.0347
62.9247
62.8153
62.7068
62.599
62.4923
62.3865
62.2818
62.1783
62.076
61.9749
61.8752
61.7768
61.6797
61.5841
61.4898
61.397
61.3056
61.2156
61.1271
61.0399
60.9541
60.8697
60.7867
60.705
60.6246
60.5455
60.4676
60.3909
60.3155
60.2411
60.1679
60.0958
60.0248
59.9548
59.8858
59.8177
59.7507
59.6845
59.6193
59.555
59.4915
59.4289
59.3672
59.3064
59.2463
59.1872
59.1289
59.0714
59.0149
58.9592
58.9044
58.8505
58.7976
58.7456
58.6947
58.6447
58.5958
58.548
58.5013
58.4558
58.4114
58.3683
58.3265
58.286
58.2468
58.2091
58.1728
58.138
58.1048
58.0731
58.0431
58.0147
57.9881
57.9632
57.9402
57.919
57.8996
57.8823
57.8668
57.8534
57.8421
57.8328
57.8257
57.8206
57.8178
57.8172
57.8189
57.8228
57.829
57.8375
57.8483
57.8615
57.8771
57.8951
57.9155
57.9384
57.9636
57.9913
58.0215
58.0542
58.0893
58.1269
58.1669
58.2095
58.2545
58.302
58.3519
58.4043
58.4591
58.5164
58.5761
58.6381
58.7026
58.7694
58.8385
58.91
58.9837
59.0597
59.1378
59.2181
59.3006
59.3851
59.4717
59.5603
59.6508
59.7432
59.8374
59.9334
60.0311
60.1304
60.2313
60.3336
60.4374
60.5426
60.649
60.7566
60.8653
60.975
61.0857
61.1972
61.3094
61.4224
61.5359
61.65
61.7644
61.8792
61.9941
62.1093
62.2244
62.3396
62.4546
62.5695
62.684
62.7982
62.912
63.0252
63.1379
63.2499
63.3612
63.4717
63.5814
63.6901
63.798
63.9048
64.0106
64.1153
64.2189
64.3213
64.4226
64.5226
64.6214
64.7189
64.8152
64.9102
65.0039
65.0963
65.1873
65.2771
65.3656
65.4528
65.5387
65.6233
65.7067
65.7888
65.8697
65.9493
66.028
66.1047
66.1822
66.2541
66.3354
66.3912
66.5075
67.2037
67.2017
67.1977
67.1916
67.1833
67.173
67.1607
67.1462
67.1297
67.111
67.0902
67.0672
67.042
67.0146
66.985
66.9532
66.919
66.8826
66.8438
66.8027
66.7591
66.7132
66.6649
66.6141
66.5608
66.5051
66.4468
66.3861
66.3228
66.257
66.1887
66.1179
66.0446
65.9688
65.8906
65.81
65.7269
65.6415
65.5539
65.464
65.3719
65.2778
65.1816
65.0836
64.9837
64.8821
64.779
64.6743
64.5683
64.461
64.3526
64.2433
64.1331
64.0222
63.9107
63.7988
63.6867
63.5743
63.462
63.3498
63.2378
63.1262
63.015
62.9045
62.7946
62.6856
62.5774
62.4703
62.3641
62.2591
62.1553
62.0528
61.9515
61.8516
61.753
61.6559
61.5602
61.4659
61.373
61.2816
61.1917
61.1031
61.016
60.9303
60.846
60.7631
60.6815
60.6012
60.5223
60.4445
60.368
60.2927
60.2185
60.1454
60.0734
60.0025
59.9326
59.8637
59.7958
59.7288
59.6628
59.5976
59.5333
59.4699
59.4074
59.3457
59.2848
59.2247
59.1656
59.1072
59.0497
58.9931
58.9373
58.8824
58.8284
58.7754
58.7233
58.6721
58.622
58.5729
58.525
58.4781
58.4323
58.3878
58.3445
58.3025
58.2617
58.2224
58.1844
58.1479
58.1129
58.0794
58.0476
58.0173
57.9888
57.9619
57.9368
57.9136
57.8922
57.8727
57.8551
57.8395
57.8259
57.8144
57.805
57.7977
57.7925
57.7895
57.7888
57.7903
57.7941
57.8002
57.8086
57.8193
57.8325
57.848
57.8659
57.8863
57.909
57.9343
57.9619
57.9921
58.0247
58.0598
58.0974
58.1374
58.18
58.225
58.2725
58.3225
58.375
58.4299
58.4872
58.547
58.6091
58.6737
58.7406
58.8099
58.8815
58.9553
59.0315
59.1098
59.1903
59.273
59.3578
59.4446
59.5334
59.6242
59.7169
59.8114
59.9077
60.0057
60.1054
60.2066
60.3094
60.4136
60.5191
60.626
60.734
60.8431
60.9533
61.0644
61.1764
61.2892
61.4026
61.5166
61.6312
61.7461
61.8614
61.9769
62.0925
62.2082
62.3239
62.4394
62.5547
62.6698
62.7845
62.8987
63.0124
63.1256
63.238
63.3497
63.4607
63.5708
63.6799
63.7882
63.8954
64.0015
64.1066
64.2105
64.3132
64.4147
64.515
64.6141
64.7119
64.8083
64.9035
64.9974
65.09
65.1812
65.2711
65.3597
65.447
65.533
65.6177
65.7012
65.7833
65.8643
65.9439
66.0226
66.0994
66.1769
66.2488
66.3301
66.3859
66.5022
67.2037
67.2017
67.1977
67.1916
67.1834
67.1731
67.1608
67.1464
67.1299
67.1113
67.0905
67.0675
67.0424
67.0151
66.9855
66.9537
66.9196
66.8832
66.8444
66.8033
66.7598
66.7138
66.6654
66.6146
66.5612
66.5054
66.447
66.3861
66.3227
66.2566
66.1881
66.117
66.0434
65.9672
65.8886
65.8075
65.7239
65.638
65.5498
65.4593
65.3666
65.2717
65.1749
65.0761
64.9754
64.873
64.769
64.6634
64.5565
64.4483
64.339
64.2288
64.1177
64.0059
63.8935
63.7807
63.6677
63.5545
63.4413
63.3283
63.2156
63.1032
62.9914
62.8802
62.7698
62.6602
62.5515
62.4438
62.3373
62.2319
62.1278
62.0249
61.9234
61.8233
61.7246
61.6273
61.5315
61.4371
61.3442
61.2528
61.1629
61.0744
60.9874
60.9018
60.8177
60.7349
60.6534
60.5733
60.4945
60.4169
60.3405
60.2654
60.1914
60.1185
60.0467
59.9759
59.9062
59.8374
59.7696
59.7027
59.6368
59.5717
59.5075
59.4441
59.3816
59.3199
59.259
59.199
59.1397
59.0813
59.0237
58.967
58.9111
58.8561
58.802
58.7488
58.6965
58.6452
58.5949
58.5456
58.4974
58.4503
58.4044
58.3596
58.316
58.2737
58.2328
58.1931
58.1549
58.1182
58.0829
58.0492
58.017
57.9865
57.9577
57.9306
57.9053
57.8818
57.8601
57.8404
57.8226
57.8068
57.793
57.7813
57.7717
57.7642
57.7588
57.7557
57.7548
57.7562
57.7598
57.7658
57.774
57.7847
57.7977
57.8131
57.831
57.8512
57.8739
57.8991
57.9267
57.9568
57.9894
58.0245
58.0621
58.1022
58.1447
58.1898
58.2373
58.2874
58.3399
58.3948
58.4522
58.5121
58.5744
58.6391
58.7061
58.7756
58.8473
58.9214
58.9977
59.0763
59.157
59.24
59.325
59.4121
59.5013
59.5924
59.6854
59.7803
59.877
59.9754
60.0754
60.1771
60.2803
60.385
60.491
60.5984
60.7069
60.8166
60.9273
61.039
61.1515
61.2649
61.3789
61.4935
61.6087
61.7242
61.8401
61.9562
62.0725
62.1888
62.3051
62.4212
62.5371
62.6528
62.7681
62.8829
62.9972
63.1108
63.2238
63.3361
63.4476
63.5581
63.6678
63.7765
63.8841
63.9907
64.0962
64.2004
64.3035
64.4054
64.506
64.6054
64.7035
64.8002
64.8956
64.9897
65.0825
65.1739
65.264
65.3528
65.4402
65.5263
65.6111
65.6946
65.7768
65.8579
65.9375
66.0163
66.093
66.1705
66.2424
66.3238
66.3795
66.4958
67.2037
67.2017
67.1977
67.1916
67.1835
67.1733
67.161
67.1466
67.1301
67.1116
67.0909
67.068
67.0429
67.0156
66.9861
66.9544
66.9203
66.8839
66.8452
66.8041
66.7605
66.7146
66.6662
66.6152
66.5618
66.5058
66.4473
66.3862
66.3226
66.2563
66.1875
66.116
66.042
65.9654
65.8863
65.8047
65.7206
65.634
65.5451
65.4539
65.3604
65.2648
65.1671
65.0674
64.9658
64.8624
64.7574
64.6508
64.5428
64.4336
64.3232
64.2119
64.0997
63.9868
63.8734
63.7596
63.6455
63.5313
63.4172
63.3033
63.1896
63.0764
62.9638
62.8518
62.7407
62.6304
62.5211
62.4129
62.3059
62.2001
62.0955
61.9924
61.8906
61.7902
61.6913
61.5939
61.4979
61.4035
61.3106
61.2193
61.1294
61.041
60.9541
60.8686
60.7846
60.702
60.6207
60.5408
60.4621
60.3848
60.3086
60.2337
60.1599
60.0872
60.0156
59.945
59.8754
59.8068
59.7392
59.6724
59.6066
59.5416
59.4775
59.4142
59.3517
59.29
59.2291
59.1691
59.1098
59.0513
58.9937
58.9368
58.8808
58.8256
58.7714
58.718
58.6655
58.614
58.5635
58.5139
58.4655
58.4181
58.3719
58.3268
58.283
58.2404
58.1991
58.1592
58.1207
58.0836
58.048
58.014
57.9815
57.9507
57.9216
57.8942
57.8686
57.8448
57.8229
57.8029
57.7849
57.7688
57.7548
57.7428
57.7329
57.7252
57.7197
57.7164
57.7153
57.7165
57.7199
57.7257
57.7339
57.7444
57.7573
57.7726
57.7903
57.8105
57.8331
57.8582
57.8858
57.9159
57.9484
57.9835
58.0211
58.0611
58.1037
58.1488
58.1964
58.2464
58.299
58.3541
58.4116
58.4716
58.534
58.5988
58.666
58.7356
58.8076
58.8818
58.9584
59.0372
59.1183
59.2015
59.2868
59.3743
59.4638
59.5553
59.6487
59.744
59.8411
59.94
60.0406
60.1428
60.2465
60.3517
60.4583
60.5662
60.6754
60.7857
60.897
61.0094
61.1226
61.2366
61.3513
61.4667
61.5825
61.6988
61.8154
61.9322
62.0492
62.1662
62.2832
62.4
62.5167
62.633
62.749
62.8645
62.9794
63.0938
63.2074
63.3203
63.4323
63.5435
63.6537
63.7629
63.8711
63.9782
64.0841
64.1888
64.2924
64.3947
64.4957
64.5954
64.6937
64.7908
64.8865
64.9809
65.0739
65.1655
65.2558
65.3447
65.4323
65.5185
65.6034
65.687
65.7693
65.8504
65.9301
66.0089
66.0857
66.1632
66.2351
66.3165
66.3722
66.4884
67.2037
67.2017
67.1978
67.1917
67.1836
67.1734
67.1612
67.1469
67.1305
67.1119
67.0913
67.0685
67.0435
67.0163
66.9869
66.9552
66.9212
66.8848
66.8461
66.805
66.7615
66.7155
66.6671
66.6161
66.5626
66.5065
66.4478
66.3865
66.3226
66.256
66.1869
66.115
66.0406
65.9635
65.8839
65.8017
65.7169
65.6297
65.54
65.4479
65.3536
65.257
65.1583
65.0576
64.9549
64.8504
64.7442
64.6365
64.5273
64.4168
64.3052
64.1926
64.0792
63.9651
63.8504
63.7354
63.6201
63.5048
63.3896
63.2746
63.1599
63.0457
62.9322
62.8193
62.7074
62.5964
62.4864
62.3776
62.27
62.1636
62.0587
61.9551
61.853
61.7524
61.6532
61.5557
61.4596
61.3652
61.2723
61.1809
61.0911
61.0028
60.916
60.8307
60.7469
60.6644
60.5834
60.5037
60.4253
60.3482
60.2723
60.1976
60.124
60.0516
59.9802
59.9098
59.8405
59.7721
59.7046
59.638
59.5723
59.5075
59.4434
59.3802
59.3178
59.2561
59.1952
59.1351
59.0758
59.0173
58.9595
58.9025
58.8464
58.7911
58.7366
58.683
58.6303
58.5785
58.5278
58.478
58.4292
58.3815
58.335
58.2896
58.2454
58.2025
58.1609
58.1206
58.0817
58.0443
58.0084
57.974
57.9412
57.9101
57.8806
57.8529
57.8269
57.8028
57.7806
57.7603
57.7419
57.7256
57.7113
57.699
57.6889
57.681
57.6752
57.6716
57.6703
57.6713
57.6746
57.6802
57.6882
57.6985
57.7113
57.7265
57.7441
57.7642
57.7867
57.8117
57.8392
57.8692
57.9018
57.9368
57.9743
58.0144
58.057
58.1021
58.1497
58.1999
58.2525
58.3077
58.3653
58.4254
58.4879
58.5529
58.6203
58.6901
58.7623
58.8368
58.9136
58.9927
59.0741
59.1576
59.2433
59.3312
59.4211
59.513
59.6069
59.7026
59.8003
59.8997
60.0008
60.1036
60.2079
60.3137
60.421
60.5296
60.6394
60.7504
60.8625
60.9756
61.0896
61.2044
61.3199
61.436
61.5527
61.6697
61.7872
61.9048
62.0226
62.1405
62.2583
62.3759
62.4934
62.6105
62.7273
62.8436
62.9593
63.0744
63.1887
63.3023
63.4151
63.5269
63.6378
63.7476
63.8564
63.964
64.0705
64.1757
64.2797
64.3825
64.4839
64.584
64.6828
64.7802
64.8762
64.9708
65.0641
65.156
65.2465
65.3356
65.4233
65.5097
65.5947
65.6784
65.7608
65.842
65.9217
66.0005
66.0774
66.1549
66.2268
66.3081
66.3638
66.48
67.2037
67.2018
67.1978
67.1918
67.1837
67.1735
67.1614
67.1471
67.1308
67.1124
67.0918
67.0691
67.0442
67.0171
66.9878
66.9561
66.9222
66.8859
66.8473
66.8062
66.7627
66.7167
66.6682
66.6172
66.5636
66.5073
66.4485
66.387
66.3228
66.2559
66.1864
66.1142
66.0392
65.9616
65.8814
65.7985
65.713
65.6249
65.5344
65.4414
65.3461
65.2484
65.1486
65.0467
64.9428
64.837
64.7295
64.6204
64.5099
64.398
64.285
64.171
64.0561
63.9406
63.8246
63.7082
63.5916
63.4749
63.3584
63.2422
63.1264
63.0111
62.8965
62.7827
62.6698
62.5579
62.4472
62.3377
62.2294
62.1226
62.0171
61.9131
61.8107
61.7098
61.6104
61.5127
61.4166
61.322
61.2291
61.1378
61.0481
60.9599
60.8733
60.7882
60.7046
60.6224
60.5416
60.4622
60.384
60.3072
60.2316
60.1572
60.0839
60.0118
59.9406
59.8706
59.8014
59.7333
59.666
59.5996
59.5341
59.4693
59.4054
59.3423
59.2799
59.2183
59.1574
59.0973
59.0379
58.9793
58.9214
58.8643
58.808
58.7525
58.6978
58.644
58.591
58.539
58.4879
58.4378
58.3887
58.3407
58.2938
58.248
58.2035
58.1602
58.1182
58.0775
58.0382
58.0004
57.9641
57.9293
57.8961
57.8646
57.8347
57.8066
57.7803
57.7558
57.7332
57.7126
57.6939
57.6772
57.6626
57.65
57.6396
57.6314
57.6254
57.6216
57.62
57.6208
57.6238
57.6293
57.6371
57.6472
57.6598
57.6749
57.6923
57.7123
57.7347
57.7597
57.7871
57.817
57.8495
57.8845
57.922
57.9621
58.0047
58.0498
58.0975
58.1477
58.2004
58.2557
58.3134
58.3736
58.4363
58.5015
58.5691
58.6391
58.7115
58.7863
58.8634
58.9428
59.0245
59.1085
59.1946
59.2828
59.3732
59.4655
59.5599
59.6562
59.7544
59.8544
59.9562
60.0596
60.1646
60.2711
60.3791
60.4885
60.5991
60.7109
60.8238
60.9377
61.0525
61.1682
61.2846
61.4016
61.5192
61.6372
61.7555
61.8741
61.9928
62.1116
62.2304
62.349
62.4673
62.5854
62.703
62.8202
62.9367
63.0527
63.1679
63.2823
63.3958
63.5084
63.62
63.7305
63.8399
63.9482
64.0553
64.1611
64.2657
64.3689
64.4708
64.5714
64.6706
64.7684
64.8647
64.9597
65.0533
65.1454
65.2361
65.3254
65.4134
65.4999
65.5851
65.6689
65.7514
65.8326
65.9124
65.9912
66.0681
66.1456
66.2175
66.2988
66.3545
66.4706
67.2037
67.2018
67.1978
67.1918
67.1838
67.1737
67.1616
67.1475
67.1313
67.1129
67.0925
67.0699
67.0451
67.0181
66.9888
66.9573
66.9234
66.8872
66.8487
66.8076
66.7642
66.7182
66.6697
66.6185
66.5648
66.5085
66.4494
66.3877
66.3232
66.2561
66.1861
66.1134
66.038
65.9598
65.8788
65.7952
65.7089
65.62
65.5285
65.4344
65.338
65.2392
65.1381
65.0348
64.9296
64.8224
64.7134
64.6028
64.4907
64.3773
64.2627
64.147
64.0306
63.9135
63.7958
63.6779
63.5598
63.4417
63.3237
63.2061
63.089
62.9725
62.8567
62.7418
62.6279
62.5151
62.4035
62.2932
62.1843
62.0768
61.9709
61.8664
61.7636
61.6624
61.5628
61.4649
61.3687
61.2741
61.1812
61.09
61.0004
60.9124
60.826
60.7411
60.6577
60.5758
60.4953
60.4162
60.3384
60.2619
60.1867
60.1126
60.0397
59.9678
59.897
59.8272
59.7584
59.6905
59.6234
59.5573
59.4919
59.4274
59.3636
59.3005
59.2382
59.1766
59.1158
59.0556
58.9962
58.9375
58.8795
58.8222
58.7657
58.71
58.6551
58.601
58.5478
58.4954
58.444
58.3936
58.3441
58.2957
58.2484
58.2023
58.1573
58.1136
58.0711
58.03
57.9903
57.952
57.9153
57.88
57.8464
57.8144
57.7841
57.7556
57.7289
57.704
57.681
57.66
57.6409
57.6238
57.6089
57.596
57.5853
57.5767
57.5704
57.5663
57.5645
57.565
57.5678
57.573
57.5806
57.5906
57.603
57.6179
57.6352
57.655
57.6773
57.7021
57.7295
57.7594
57.7918
57.8267
57.8642
57.9043
57.9469
57.9921
58.0398
58.09
58.1428
58.1982
58.256
58.3164
58.3793
58.4446
58.5124
58.5827
58.6554
58.7304
58.8079
58.8876
58.9697
59.054
59.1405
59.2293
59.3201
59.413
59.5079
59.6049
59.7037
59.8043
59.9067
60.0109
60.1166
60.2239
60.3327
60.4429
60.5544
60.6671
60.7809
60.8957
61.0115
61.1282
61.2455
61.3636
61.4821
61.6012
61.7205
61.8402
61.9599
62.0798
62.1995
62.3191
62.4385
62.5576
62.6762
62.7944
62.9119
63.0288
63.1449
63.2602
63.3745
63.488
63.6004
63.7117
63.8219
63.9308
64.0386
64.1451
64.2502
64.3541
64.4565
64.5576
64.6572
64.7554
64.8522
64.9475
65.0414
65.1338
65.2248
65.3143
65.4025
65.4892
65.5745
65.6584
65.741
65.8223
65.9021
65.981
66.0579
66.1354
66.2073
66.2886
66.3442
66.4602
67.2037
67.2018
67.1979
67.1919
67.1839
67.174
67.1619
67.1479
67.1317
67.1135
67.0932
67.0707
67.046
67.0192
66.99
66.9586
66.9249
66.8888
66.8503
66.8093
66.7659
66.7199
66.6714
66.6202
66.5664
66.5099
66.4507
66.3888
66.324
66.2565
66.1861
66.1129
66.0369
65.958
65.8764
65.7919
65.7047
65.6148
65.5223
65.4271
65.3294
65.2293
65.1268
65.0221
64.9153
64.8065
64.6959
64.5836
64.4697
64.3545
64.2382
64.1207
64.0025
63.8836
63.7642
63.6445
63.5248
63.405
63.2855
63.1664
63.0478
62.9299
62.8128
62.6967
62.5817
62.4679
62.3554
62.2442
62.1346
62.0264
61.9199
61.815
61.7117
61.6102
61.5104
61.4123
61.316
61.2215
61.1286
61.0375
60.948
60.8602
60.774
60.6894
60.6063
60.5248
60.4446
60.3659
60.2885
60.2124
60.1375
60.0639
59.9913
59.9198
59.8494
59.78
59.7115
59.6438
59.5771
59.5112
59.446
59.3817
59.318
59.2551
59.1929
59.1314
59.0705
59.0103
58.9508
58.892
58.8339
58.7765
58.7198
58.6638
58.6087
58.5543
58.5007
58.4481
58.3963
58.3454
58.2956
58.2468
58.199
58.1524
58.107
58.0627
58.0198
57.9782
57.938
57.8993
57.862
57.8263
57.7922
57.7597
57.7289
57.6999
57.6728
57.6474
57.624
57.6025
57.583
57.5656
57.5502
57.537
57.5259
57.517
57.5103
57.5059
57.5038
57.504
57.5066
57.5116
57.5189
57.5287
57.5409
57.5556
57.5728
57.5924
57.6146
57.6393
57.6666
57.6963
57.7287
57.7636
57.8011
57.8411
57.8837
57.9289
57.9767
58.027
58.0799
58.1353
58.1933
58.2538
58.3169
58.3824
58.4504
58.521
58.5939
58.6693
58.747
58.8272
58.9096
58.9944
59.0814
59.1706
59.262
59.3554
59.451
59.5485
59.648
59.7494
59.8525
59.9575
60.064
60.1722
60.2819
60.3929
60.5054
60.619
60.7338
60.8497
60.9666
61.0843
61.2027
61.3219
61.4416
61.5617
61.6822
61.803
61.9239
62.0449
62.1658
62.2866
62.4071
62.5272
62.647
62.7662
62.8848
63.0027
63.1198
63.2361
63.3514
63.4658
63.5791
63.6912
63.8022
63.912
64.0205
64.1277
64.2335
64.338
64.441
64.5426
64.6427
64.7414
64.8386
64.9343
65.0286
65.1213
65.2126
65.3024
65.3907
65.4776
65.563
65.6471
65.7298
65.8111
65.891
65.9699
66.0468
66.1243
66.1962
66.2774
66.333
66.4489
67.2037
67.2018
67.1979
67.192
67.1841
67.1742
67.1623
67.1483
67.1323
67.1142
67.094
67.0717
67.0472
67.0204
66.9915
66.9602
66.9266
66.8906
66.8522
66.8114
66.768
66.7221
66.6735
66.6223
66.5685
66.5118
66.4524
66.3902
66.3252
66.2573
66.1864
66.1127
66.0361
65.9566
65.8741
65.7888
65.7006
65.6096
65.5159
65.4195
65.3204
65.2188
65.1148
65.0085
64.9
64.7894
64.677
64.5628
64.4471
64.3299
64.2115
64.0922
63.9719
63.8511
63.7297
63.6081
63.4865
63.3649
63.2437
63.1229
63.0027
62.8833
62.7648
62.6474
62.5312
62.4162
62.3027
62.1906
62.0801
61.9713
61.8641
61.7587
61.6551
61.5532
61.4532
61.355
61.2586
61.164
61.0713
60.9802
60.891
60.8034
60.7175
60.6333
60.5506
60.4694
60.3897
60.3114
60.2344
60.1588
60.0844
60.0111
59.939
59.868
59.798
59.7289
59.6608
59.5935
59.5271
59.4614
59.3965
59.3324
59.2689
59.2062
59.144
59.0826
59.0217
58.9615
58.902
58.8431
58.7848
58.7272
58.6703
58.6141
58.5586
58.5039
58.45
58.397
58.3448
58.2935
58.2432
58.1939
58.1457
58.0986
58.0527
58.0079
57.9645
57.9223
57.8816
57.8423
57.8045
57.7682
57.7336
57.7006
57.6693
57.6398
57.6121
57.5863
57.5624
57.5404
57.5205
57.5026
57.4868
57.4732
57.4617
57.4524
57.4454
57.4406
57.4382
57.4381
57.4404
57.4451
57.4522
57.4617
57.4737
57.4882
57.5052
57.5247
57.5467
57.5713
57.5984
57.6281
57.6604
57.6953
57.7327
57.7727
57.8153
57.8605
57.9083
57.9587
58.0117
58.0672
58.1253
58.186
58.2492
58.315
58.3832
58.454
58.5273
58.6029
58.6811
58.7616
58.8445
58.9297
59.0172
59.1069
59.1989
59.293
59.3891
59.4874
59.5876
59.6897
59.7937
59.8994
60.0069
60.116
60.2266
60.3387
60.4521
60.5669
60.6828
60.7998
60.9177
61.0366
61.1563
61.2766
61.3975
61.5189
61.6407
61.7627
61.8849
62.0071
62.1292
62.2513
62.373
62.4944
62.6153
62.7357
62.8555
62.9745
63.0928
63.2101
63.3265
63.4419
63.5561
63.6692
63.7811
63.8917
64.0011
64.109
64.2156
64.3207
64.4244
64.5266
64.6273
64.7264
64.8241
64.9202
65.0148
65.1079
65.1995
65.2895
65.3781
65.4652
65.5508
65.635
65.7177
65.7991
65.8791
65.958
66.0349
66.1124
66.1842
66.2654
66.321
66.4367
67.2037
67.2018
67.198
67.1921
67.1843
67.1745
67.1627
67.1488
67.133
67.115
67.095
67.0728
67.0485
67.0219
66.9931
66.962
66.9286
66.8928
66.8545
66.8138
66.7705
66.7246
66.6761
66.6249
66.5709
66.5142
66.4546
66.3922
66.3268
66.2585
66.1872
66.113
66.0357
65.9554
65.8721
65.7859
65.6966
65.6045
65.5095
65.4117
65.3111
65.208
65.1023
64.9942
64.8838
64.7713
64.6569
64.5406
64.4227
64.3034
64.1829
64.0613
63.9389
63.8158
63.6923
63.5687
63.4449
63.3214
63.1982
63.0756
62.9537
62.8326
62.7126
62.5937
62.4762
62.36
62.2454
62.1324
62.021
61.9114
61.8036
61.6977
61.5936
61.4914
61.3912
61.2929
61.1964
61.1019
61.0092
60.9184
60.8294
60.7421
60.6566
60.5727
60.4904
60.4097
60.3305
60.2527
60.1762
60.1011
60.0272
59.9545
59.8829
59.8124
59.7428
59.6742
59.6065
59.5396
59.4736
59.4082
59.3436
59.2797
59.2165
59.1539
59.0919
59.0305
58.9697
58.9094
58.8498
58.7908
58.7324
58.6746
58.6175
58.561
58.5052
58.4502
58.3959
58.3424
58.2898
58.2381
58.1873
58.1375
58.0887
58.0411
57.9946
57.9493
57.9052
57.8625
57.8212
57.7813
57.7429
57.706
57.6708
57.6372
57.6054
57.5753
57.5471
57.5207
57.4963
57.4738
57.4534
57.4351
57.4188
57.4047
57.3928
57.3831
57.3757
57.3706
57.3679
57.3674
57.3694
57.3738
57.3806
57.3899
57.4017
57.4159
57.4327
57.452
57.4739
57.4983
57.5254
57.5549
57.5871
57.6219
57.6593
57.6993
57.7419
57.7871
57.8349
57.8854
57.9384
57.994
58.0523
58.1131
58.1765
58.2425
58.311
58.382
58.4556
58.5316
58.6101
58.691
58.7743
58.86
58.9481
59.0384
59.1309
59.2256
59.3225
59.4215
59.5225
59.6254
59.7303
59.8369
59.9453
60.0554
60.167
60.2802
60.3947
60.5106
60.6277
60.7459
60.8651
60.9853
61.1062
61.2279
61.3501
61.4728
61.5959
61.7193
61.8429
61.9664
62.09
62.2133
62.3364
62.4591
62.5814
62.7031
62.8241
62.9443
63.0638
63.1823
63.2998
63.4163
63.5316
63.6457
63.7586
63.8702
63.9803
64.0891
64.1965
64.3023
64.4067
64.5095
64.6108
64.7105
64.8087
64.9053
65.0003
65.0937
65.1856
65.2759
65.3647
65.452
65.5377
65.622
65.7049
65.7864
65.8663
65.9453
66.0221
66.0996
66.1714
66.2525
66.308
66.4236
67.2037
67.2018
67.198
67.1923
67.1845
67.1748
67.1631
67.1494
67.1337
67.116
67.0961
67.0741
67.05
67.0236
66.995
66.9641
66.9309
66.8953
66.8572
66.8166
66.7734
66.7276
66.6792
66.628
66.574
66.5171
66.4574
66.3947
66.3291
66.2604
66.1886
66.1138
66.0358
65.9547
65.8706
65.7833
65.6929
65.5995
65.5032
65.4039
65.3017
65.1968
65.0893
64.9792
64.8668
64.7522
64.6355
64.517
64.3968
64.2751
64.1522
64.0282
63.9034
63.7779
63.6521
63.5261
63.4001
63.2744
63.1491
63.0245
62.9006
62.7778
62.6561
62.5357
62.4167
62.2993
62.1835
62.0694
61.9571
61.8468
61.7383
61.6318
61.5273
61.4248
61.3244
61.226
61.1295
61.0351
60.9426
60.852
60.7632
60.6763
60.5912
60.5078
60.426
60.3458
60.2672
60.19
60.1141
60.0396
59.9663
59.8941
59.8231
59.7531
59.6841
59.616
59.5488
59.4824
59.4167
59.3518
59.2875
59.2239
59.1609
59.0984
59.0366
58.9753