/*--------------------------------*- C++ -*----------------------------------*\
| =========                 |                                                 |
| \\      /  F ield         | OpenFOAM: The Open Source CFD Toolbox           |
|  \\    /   O peration     | Version:  2306                                  |
|   \\  /    A nd           | Website:  www.openfoam.com                      |
|    \\/     M anipulation  |                                                 |
\*---------------------------------------------------------------------------*/
FoamFile
{
    version     2.0;
    format      ascii;
    arch        "LSB;label=32;scalar=64";
    class       volScalarField;
    location    "10.5";
    object      p;
}
// * * * * * * * * * * * * * * * * * * * * * * * * * * * * * * * * * * * * * //

dimensions      [0 2 -2 0 0 0 0];

internalField   nonuniform List<scalar> 
32768
(
0.282125
0.281992
0.281703
0.281246
0.280624
0.279839
0.278889
0.277775
0.276492
0.27504
0.273418
0.271621
0.269649
0.267499
0.265168
0.262653
0.259951
0.257059
0.253974
0.250693
0.247212
0.243527
0.239636
0.235536
0.231222
0.226691
0.221941
0.216968
0.21177
0.206343
0.200686
0.194797
0.188674
0.182315
0.17572
0.168888
0.161819
0.154514
0.146974
0.139201
0.131197
0.122965
0.114509
0.105834
0.0969444
0.087846
0.0785455
0.0690501
0.0593678
0.0495069
0.0394768
0.0292871
0.0189481
0.00847046
-0.00213454
-0.0128554
-0.0236803
-0.0345971
-0.0455936
-0.0566574
-0.0677762
-0.0789378
-0.0901298
-0.10134
-0.112558
-0.12377
-0.134967
-0.146137
-0.157271
-0.168359
-0.179391
-0.19036
-0.201257
-0.212075
-0.222807
-0.233448
-0.243993
-0.254435
-0.264772
-0.275001
-0.285117
-0.295119
-0.305006
-0.314776
-0.324428
-0.333963
-0.34338
-0.35268
-0.361863
-0.370932
-0.379887
-0.38873
-0.397462
-0.406086
-0.414604
-0.423017
-0.431327
-0.439536
-0.447647
-0.45566
-0.463577
-0.4714
-0.47913
-0.486768
-0.494314
-0.501768
-0.509132
-0.516405
-0.523586
-0.530674
-0.537669
-0.544569
-0.551372
-0.558077
-0.56468
-0.571179
-0.577571
-0.583853
-0.590022
-0.596072
-0.602001
-0.607804
-0.613477
-0.619014
-0.624411
-0.629662
-0.634764
-0.639709
-0.644494
-0.649112
-0.653559
-0.657828
-0.661914
-0.665812
-0.669516
-0.673021
-0.676322
-0.679413
-0.68229
-0.684948
-0.687382
-0.689587
-0.691559
-0.693294
-0.694788
-0.696037
-0.697038
-0.697788
-0.698283
-0.698521
-0.6985
-0.698217
-0.69767
-0.696858
-0.695779
-0.694433
-0.692819
-0.690936
-0.688784
-0.686363
-0.683675
-0.680719
-0.677497
-0.67401
-0.67026
-0.66625
-0.661981
-0.657456
-0.652678
-0.64765
-0.642377
-0.636861
-0.631108
-0.625122
-0.618908
-0.61247
-0.605815
-0.598949
-0.591876
-0.584605
-0.577141
-0.569491
-0.561663
-0.553665
-0.545503
-0.537186
-0.528723
-0.520121
-0.51139
-0.502538
-0.493574
-0.484507
-0.475348
-0.466104
-0.456785
-0.447402
-0.437963
-0.428478
-0.418956
-0.409407
-0.399841
-0.390267
-0.380693
-0.371129
-0.361583
-0.352065
-0.342583
-0.333144
-0.323756
-0.314428
-0.305166
-0.295976
-0.286867
-0.277844
-0.268912
-0.260077
-0.251344
-0.242717
-0.234202
-0.225801
-0.217518
-0.209356
-0.201317
-0.193404
-0.185619
-0.177962
-0.170435
-0.163038
-0.155773
-0.148638
-0.141633
-0.134758
-0.128012
-0.121393
-0.1149
-0.108531
-0.102285
-0.0961586
-0.0901502
-0.084257
-0.0784763
-0.0728054
-0.0672413
-0.0617811
-0.0564215
-0.0511595
-0.0459916
-0.0409155
-0.0359255
-0.0310239
-0.0261946
-0.0214647
-0.0167588
-0.012242
-0.00749384
-0.00338131
0.282286
0.282153
0.281864
0.281408
0.280786
0.280001
0.279053
0.277939
0.276657
0.275207
0.273585
0.27179
0.269819
0.26767
0.26534
0.262826
0.260125
0.257235
0.254151
0.25087
0.24739
0.243707
0.239816
0.235716
0.231402
0.226871
0.22212
0.217147
0.211947
0.206519
0.200861
0.194969
0.188843
0.18248
0.175881
0.169044
0.161971
0.15466
0.147114
0.139334
0.131322
0.123082
0.114618
0.105933
0.0970336
0.0879248
0.0786134
0.0691068
0.0594127
0.0495398
0.0394973
0.029295
0.0189432
0.00845278
-0.0021651
-0.0128988
-0.0237364
-0.0346658
-0.0456746
-0.0567505
-0.067881
-0.0790538
-0.0902566
-0.101477
-0.112704
-0.123926
-0.135131
-0.146309
-0.15745
-0.168544
-0.179582
-0.190556
-0.201457
-0.212279
-0.223014
-0.233658
-0.244203
-0.254647
-0.264984
-0.275212
-0.285328
-0.295329
-0.305214
-0.314982
-0.324632
-0.334164
-0.343577
-0.352874
-0.362054
-0.371119
-0.38007
-0.388909
-0.397638
-0.406258
-0.414771
-0.42318
-0.431487
-0.439693
-0.4478
-0.45581
-0.463724
-0.471545
-0.479272
-0.486908
-0.494452
-0.501905
-0.509268
-0.51654
-0.52372
-0.530809
-0.537804
-0.544704
-0.551508
-0.558214
-0.564818
-0.571319
-0.577714
-0.583998
-0.590169
-0.596222
-0.602154
-0.60796
-0.613636
-0.619177
-0.624577
-0.629833
-0.634938
-0.639888
-0.644677
-0.649299
-0.65375
-0.658023
-0.662113
-0.666015
-0.669724
-0.673233
-0.676538
-0.679633
-0.682514
-0.685176
-0.687613
-0.689822
-0.691797
-0.693536
-0.695033
-0.696286
-0.69729
-0.698042
-0.69854
-0.698781
-0.698762
-0.698481
-0.697936
-0.697126
-0.696049
-0.694705
-0.693092
-0.69121
-0.689059
-0.68664
-0.683952
-0.680997
-0.677775
-0.674289
-0.670539
-0.666529
-0.66226
-0.657734
-0.652956
-0.647928
-0.642653
-0.637137
-0.631383
-0.625395
-0.619179
-0.61274
-0.606083
-0.599214
-0.592139
-0.584865
-0.577398
-0.569745
-0.561914
-0.553912
-0.545746
-0.537425
-0.528958
-0.520352
-0.511616
-0.502758
-0.493789
-0.484717
-0.475552
-0.466302
-0.456978
-0.447588
-0.438143
-0.428651
-0.419123
-0.409568
-0.399995
-0.390414
-0.380833
-0.371262
-0.36171
-0.352185
-0.342695
-0.33325
-0.323855
-0.31452
-0.305251
-0.296056
-0.28694
-0.27791
-0.268972
-0.260132
-0.251393
-0.242761
-0.234241
-0.225835
-0.217547
-0.20938
-0.201337
-0.19342
-0.185631
-0.177971
-0.170441
-0.163041
-0.155773
-0.148635
-0.141628
-0.134751
-0.128003
-0.121383
-0.114889
-0.10852
-0.102273
-0.0961458
-0.090137
-0.0842436
-0.078463
-0.0727922
-0.0672285
-0.0617687
-0.0564097
-0.0511485
-0.0459814
-0.0409062
-0.035917
-0.0310166
-0.0261879
-0.0214598
-0.0167527
-0.0122405
-0.00748223
-0.00339601
0.282608
0.282476
0.282187
0.281732
0.281111
0.280327
0.27938
0.278268
0.276988
0.27554
0.27392
0.272127
0.270159
0.268012
0.265684
0.263173
0.260475
0.257586
0.254505
0.251226
0.247748
0.244066
0.240177
0.236077
0.231763
0.227232
0.222481
0.217505
0.212304
0.206872
0.20121
0.195313
0.189181
0.182812
0.176205
0.169359
0.162275
0.154953
0.147394
0.1396
0.131573
0.123317
0.114835
0.106132
0.0972125
0.0880829
0.0787498
0.0692204
0.0595028
0.0496057
0.0395384
0.0293108
0.0189335
0.0084172
-0.00222655
-0.0129861
-0.0238493
-0.0348039
-0.0458375
-0.0569376
-0.0680915
-0.0792869
-0.0905113
-0.101753
-0.112999
-0.124239
-0.135461
-0.146655
-0.15781
-0.168917
-0.179966
-0.19095
-0.20186
-0.212689
-0.22343
-0.234077
-0.244626
-0.255072
-0.26541
-0.275637
-0.285751
-0.29575
-0.305631
-0.315395
-0.32504
-0.334566
-0.343973
-0.353263
-0.362436
-0.371493
-0.380437
-0.389268
-0.397988
-0.406601
-0.415107
-0.423508
-0.431807
-0.440006
-0.448107
-0.45611
-0.464019
-0.471834
-0.479557
-0.487188
-0.494729
-0.502179
-0.50954
-0.51681
-0.523989
-0.531077
-0.538073
-0.544974
-0.55178
-0.558488
-0.565095
-0.5716
-0.577998
-0.584287
-0.590463
-0.596522
-0.60246
-0.608273
-0.613955
-0.619503
-0.624911
-0.630174
-0.635288
-0.640245
-0.645042
-0.649673
-0.654132
-0.658414
-0.662513
-0.666423
-0.67014
-0.673657
-0.676971
-0.680074
-0.682963
-0.685632
-0.688077
-0.690293
-0.692275
-0.694021
-0.695524
-0.696783
-0.697793
-0.698551
-0.699055
-0.6993
-0.699286
-0.69901
-0.698469
-0.697663
-0.69659
-0.695249
-0.693639
-0.691759
-0.689611
-0.687194
-0.684508
-0.681554
-0.678334
-0.674848
-0.671099
-0.667088
-0.662819
-0.658293
-0.653513
-0.648484
-0.643208
-0.637689
-0.631933
-0.625942
-0.619723
-0.61328
-0.606619
-0.599745
-0.592666
-0.585386
-0.577913
-0.570254
-0.562416
-0.554407
-0.546234
-0.537905
-0.529429
-0.520813
-0.512068
-0.503201
-0.494221
-0.485139
-0.475962
-0.466701
-0.457364
-0.447962
-0.438505
-0.429
-0.419459
-0.409891
-0.400304
-0.390709
-0.381115
-0.37153
-0.361964
-0.352425
-0.342922
-0.333462
-0.324054
-0.314706
-0.305424
-0.296215
-0.287087
-0.278044
-0.269094
-0.260242
-0.251492
-0.242849
-0.234318
-0.225902
-0.217605
-0.209429
-0.201378
-0.193453
-0.185656
-0.177989
-0.170452
-0.163047
-0.155773
-0.14863
-0.141619
-0.134739
-0.127987
-0.121364
-0.114868
-0.108496
-0.102248
-0.0961199
-0.0901104
-0.0842167
-0.0784361
-0.0727658
-0.0672027
-0.0617439
-0.0563861
-0.0511263
-0.0459608
-0.0408873
-0.0359001
-0.0310018
-0.026175
-0.0214492
-0.0167438
-0.0122345
-0.00747758
-0.00339964
0.283092
0.282959
0.282671
0.282217
0.281598
0.280816
0.279871
0.278761
0.277484
0.276039
0.274422
0.272633
0.270668
0.268525
0.266201
0.263694
0.260999
0.258114
0.255036
0.25176
0.248285
0.244605
0.240717
0.236619
0.232306
0.227774
0.223021
0.218044
0.212839
0.207403
0.201734
0.195831
0.18969
0.18331
0.176691
0.169832
0.162732
0.155393
0.147815
0.14
0.131951
0.12367
0.115162
0.106431
0.0974816
0.0883206
0.0789546
0.069391
0.059638
0.0497044
0.0395997
0.0293341
0.0189182
0.00836302
-0.00231973
-0.0131181
-0.0240199
-0.0350126
-0.0460835
-0.0572199
-0.0684092
-0.0796386
-0.0908955
-0.102168
-0.113443
-0.124711
-0.135958
-0.147176
-0.158352
-0.169478
-0.180545
-0.191543
-0.202466
-0.213305
-0.224055
-0.234709
-0.245262
-0.25571
-0.266049
-0.276276
-0.286387
-0.296382
-0.306258
-0.316015
-0.325652
-0.335169
-0.344567
-0.353847
-0.363009
-0.372055
-0.380987
-0.389806
-0.398515
-0.407115
-0.41561
-0.424
-0.432288
-0.440476
-0.448566
-0.456561
-0.464461
-0.472268
-0.479983
-0.487608
-0.495144
-0.50259
-0.509947
-0.517214
-0.524392
-0.53148
-0.538476
-0.545379
-0.552187
-0.558899
-0.565511
-0.57202
-0.578425
-0.584721
-0.590904
-0.596972
-0.602919
-0.608741
-0.614434
-0.619993
-0.625412
-0.630687
-0.635812
-0.640782
-0.645592
-0.650235
-0.654707
-0.659001
-0.663113
-0.667036
-0.670765
-0.674295
-0.67762
-0.680736
-0.683636
-0.686317
-0.688773
-0.691
-0.692993
-0.694749
-0.696262
-0.697531
-0.69855
-0.699316
-0.699828
-0.700081
-0.700074
-0.699804
-0.69927
-0.69847
-0.697402
-0.696066
-0.69446
-0.692585
-0.69044
-0.688026
-0.685342
-0.682391
-0.679172
-0.675687
-0.671939
-0.667928
-0.663658
-0.659132
-0.654351
-0.649319
-0.644041
-0.638519
-0.632759
-0.626764
-0.62054
-0.614092
-0.607425
-0.600544
-0.593457
-0.58617
-0.578688
-0.57102
-0.563171
-0.555151
-0.546966
-0.538625
-0.530136
-0.521507
-0.512748
-0.503866
-0.494871
-0.485772
-0.476578
-0.4673
-0.457945
-0.448525
-0.439048
-0.429525
-0.419964
-0.410375
-0.400769
-0.391153
-0.381538
-0.371933
-0.362346
-0.352786
-0.343262
-0.333782
-0.324353
-0.314984
-0.305682
-0.296454
-0.287307
-0.278246
-0.269278
-0.260407
-0.25164
-0.242981
-0.234434
-0.226003
-0.217691
-0.209502
-0.201438
-0.193501
-0.185693
-0.178015
-0.170469
-0.163054
-0.155773
-0.148623
-0.141605
-0.134719
-0.127962
-0.121335
-0.114835
-0.108461
-0.10221
-0.0960806
-0.0900702
-0.0841761
-0.0783956
-0.0727258
-0.0671638
-0.0617064
-0.0563504
-0.0510927
-0.0459297
-0.0408589
-0.0358746
-0.0309793
-0.0261558
-0.0214333
-0.0167312
-0.0122258
-0.00747211
-0.00339885
0.283735
0.283604
0.283316
0.282863
0.282246
0.281467
0.280525
0.279418
0.278145
0.276704
0.275092
0.273307
0.271347
0.269209
0.26689
0.264388
0.261698
0.258818
0.255744
0.252473
0.249001
0.245324
0.241439
0.237342
0.23303
0.228498
0.223744
0.218763
0.213554
0.208112
0.202436
0.196522
0.19037
0.183977
0.177342
0.170465
0.163345
0.155982
0.148379
0.140536
0.132457
0.124143
0.1156
0.106831
0.0978415
0.0886385
0.0792285
0.069619
0.0598184
0.0498359
0.0396811
0.0293644
0.0188966
0.00828924
-0.00244585
-0.0132964
-0.02425
-0.0352937
-0.0464147
-0.0575999
-0.0688365
-0.0801114
-0.091412
-0.102726
-0.11404
-0.125344
-0.136626
-0.147875
-0.15908
-0.170231
-0.181321
-0.192339
-0.203278
-0.214132
-0.224893
-0.235555
-0.246114
-0.256566
-0.266906
-0.277131
-0.287239
-0.297228
-0.307097
-0.316845
-0.326471
-0.335977
-0.345362
-0.354627
-0.363774
-0.372805
-0.381721
-0.390525
-0.399217
-0.407802
-0.41628
-0.424655
-0.432928
-0.441102
-0.449179
-0.45716
-0.465049
-0.472845
-0.480551
-0.488168
-0.495696
-0.503136
-0.510488
-0.517753
-0.524929
-0.532016
-0.539013
-0.545918
-0.552729
-0.559445
-0.566063
-0.57258
-0.578993
-0.585298
-0.591493
-0.597571
-0.603531
-0.609366
-0.615073
-0.620646
-0.62608
-0.631371
-0.636512
-0.641498
-0.646324
-0.650985
-0.655473
-0.659785
-0.663913
-0.667854
-0.6716
-0.675146
-0.678488
-0.68162
-0.684536
-0.687233
-0.689704
-0.691945
-0.693953
-0.695722
-0.697248
-0.698529
-0.69956
-0.700338
-0.700861
-0.701124
-0.701127
-0.700866
-0.70034
-0.699548
-0.698487
-0.697157
-0.695558
-0.693688
-0.691548
-0.689138
-0.686458
-0.683509
-0.680292
-0.676809
-0.673061
-0.669051
-0.664781
-0.660253
-0.65547
-0.650436
-0.645154
-0.639629
-0.633863
-0.627863
-0.621632
-0.615177
-0.608501
-0.601612
-0.594515
-0.587217
-0.579724
-0.572043
-0.564181
-0.556146
-0.547946
-0.539589
-0.531083
-0.522436
-0.513657
-0.504755
-0.495739
-0.486619
-0.477403
-0.468101
-0.458723
-0.449278
-0.439776
-0.430226
-0.420639
-0.411024
-0.40139
-0.391747
-0.382104
-0.372471
-0.362856
-0.353268
-0.343716
-0.334209
-0.324753
-0.315357
-0.306028
-0.296774
-0.287601
-0.278515
-0.269522
-0.260628
-0.251838
-0.243157
-0.234589
-0.226138
-0.217807
-0.209599
-0.201518
-0.193565
-0.185741
-0.17805
-0.17049
-0.163064
-0.155772
-0.148612
-0.141586
-0.134692
-0.127929
-0.121296
-0.114791
-0.108413
-0.102159
-0.0960275
-0.0900157
-0.0841211
-0.0783407
-0.0726718
-0.0671111
-0.0616557
-0.0563022
-0.0510475
-0.0458877
-0.0408206
-0.0358402
-0.0309491
-0.0261299
-0.021412
-0.0167144
-0.0122138
-0.00746451
-0.00339667
0.284539
0.284408
0.284122
0.283671
0.283056
0.28228
0.281341
0.280239
0.278971
0.277534
0.275928
0.274149
0.272195
0.270064
0.267752
0.265256
0.262572
0.259699
0.256631
0.253365
0.249898
0.246225
0.242343
0.238249
0.233937
0.229405
0.224649
0.219665
0.21445
0.209001
0.203316
0.19739
0.191224
0.184814
0.178159
0.171259
0.164113
0.156722
0.149087
0.14121
0.133092
0.124737
0.116149
0.107333
0.0982936
0.0890377
0.0795721
0.0699048
0.0600443
0.0500001
0.039782
0.0294008
0.0188678
0.00819456
-0.00260653
-0.0135229
-0.0245417
-0.0356498
-0.0468338
-0.0580805
-0.0693766
-0.0807089
-0.0920643
-0.10343
-0.114794
-0.126144
-0.137468
-0.148756
-0.159997
-0.17118
-0.182298
-0.193341
-0.204301
-0.215172
-0.225947
-0.23662
-0.247186
-0.257641
-0.267982
-0.278205
-0.288308
-0.29829
-0.308149
-0.317885
-0.327498
-0.336988
-0.346357
-0.355605
-0.364733
-0.373745
-0.382641
-0.391424
-0.400096
-0.40866
-0.417118
-0.425473
-0.433728
-0.441884
-0.449943
-0.457909
-0.465782
-0.473565
-0.481259
-0.488865
-0.496384
-0.503817
-0.511163
-0.518424
-0.525597
-0.532684
-0.539682
-0.54659
-0.553406
-0.560128
-0.566753
-0.573279
-0.579702
-0.58602
-0.592227
-0.59832
-0.604295
-0.610147
-0.615871
-0.621463
-0.626916
-0.632226
-0.637387
-0.642395
-0.647242
-0.651923
-0.656433
-0.660766
-0.664916
-0.668878
-0.672645
-0.676213
-0.679576
-0.682728
-0.685664
-0.68838
-0.69087
-0.69313
-0.695155
-0.696941
-0.698484
-0.699781
-0.700827
-0.701619
-0.702155
-0.702432
-0.702446
-0.702197
-0.701682
-0.700899
-0.699847
-0.698526
-0.696934
-0.695071
-0.692936
-0.690531
-0.687855
-0.68491
-0.681696
-0.678215
-0.674469
-0.670459
-0.666188
-0.661658
-0.656873
-0.651836
-0.64655
-0.641019
-0.635248
-0.629241
-0.623002
-0.616537
-0.609852
-0.602952
-0.595842
-0.588531
-0.581023
-0.573326
-0.565448
-0.557395
-0.549176
-0.540798
-0.53227
-0.523601
-0.514798
-0.505871
-0.496829
-0.487681
-0.478437
-0.469106
-0.459698
-0.450222
-0.440689
-0.431107
-0.421487
-0.411838
-0.40217
-0.392492
-0.382815
-0.373147
-0.363497
-0.353874
-0.344287
-0.334744
-0.325254
-0.315824
-0.306462
-0.297175
-0.287969
-0.278852
-0.269828
-0.260905
-0.252086
-0.243377
-0.234783
-0.226306
-0.217951
-0.20972
-0.201617
-0.193644
-0.185801
-0.178092
-0.170516
-0.163075
-0.155769
-0.148598
-0.14156
-0.134656
-0.127885
-0.121245
-0.114734
-0.108351
-0.102094
-0.0959599
-0.0899465
-0.0840512
-0.078271
-0.0726031
-0.0670443
-0.0615914
-0.056241
-0.05099
-0.0458345
-0.040772
-0.0357966
-0.0309109
-0.0260971
-0.021385
-0.0166931
-0.0121986
-0.00745491
-0.0033936
0.285502
0.285371
0.285087
0.284638
0.284026
0.283254
0.28232
0.281223
0.27996
0.27853
0.276931
0.275159
0.273213
0.27109
0.268785
0.266297
0.263622
0.260756
0.257695
0.254436
0.250975
0.247308
0.24343
0.239339
0.235029
0.230497
0.225739
0.220751
0.21553
0.210073
0.204376
0.198437
0.192253
0.185823
0.179145
0.172218
0.165041
0.157616
0.149943
0.142023
0.133859
0.125454
0.116813
0.107939
0.0988393
0.0895192
0.0799864
0.070249
0.0603159
0.0501968
0.039902
0.0294426
0.0188303
0.00807728
-0.00280387
-0.0138001
-0.0248979
-0.036084
-0.0473444
-0.0586656
-0.0700337
-0.0814353
-0.0928571
-0.104286
-0.115709
-0.127114
-0.13849
-0.149825
-0.161108
-0.17233
-0.183482
-0.194554
-0.20554
-0.216431
-0.227222
-0.237907
-0.248481
-0.258941
-0.269282
-0.279502
-0.289599
-0.299571
-0.309418
-0.31914
-0.328736
-0.338207
-0.347555
-0.356781
-0.365887
-0.374874
-0.383745
-0.392504
-0.401151
-0.40969
-0.418124
-0.426455
-0.434686
-0.44282
-0.450859
-0.458805
-0.466661
-0.474427
-0.482106
-0.489699
-0.497207
-0.504631
-0.511971
-0.519226
-0.526397
-0.533483
-0.540482
-0.547394
-0.554215
-0.560944
-0.567579
-0.574116
-0.580552
-0.586884
-0.593107
-0.599218
-0.605212
-0.611084
-0.616829
-0.622443
-0.62792
-0.633254
-0.638439
-0.643472
-0.648344
-0.653052
-0.657588
-0.661947
-0.666123
-0.67011
-0.673903
-0.677497
-0.680884
-0.684061
-0.687021
-0.68976
-0.692273
-0.694555
-0.696602
-0.698409
-0.699972
-0.701287
-0.702352
-0.703161
-0.703714
-0.704006
-0.704035
-0.703799
-0.703297
-0.702526
-0.701485
-0.700173
-0.69859
-0.696735
-0.694608
-0.692209
-0.689538
-0.686597
-0.683387
-0.679908
-0.676163
-0.672153
-0.667882
-0.663351
-0.658563
-0.653522
-0.648231
-0.642694
-0.636916
-0.6309
-0.624652
-0.618177
-0.611479
-0.604566
-0.597442
-0.590114
-0.582589
-0.574873
-0.566975
-0.5589
-0.550658
-0.542256
-0.533702
-0.525005
-0.516174
-0.507217
-0.498144
-0.488964
-0.479686
-0.47032
-0.460875
-0.451362
-0.44179
-0.432169
-0.422509
-0.41282
-0.403111
-0.393392
-0.383672
-0.373962
-0.364269
-0.354604
-0.344975
-0.335391
-0.325859
-0.316388
-0.306985
-0.297658
-0.288413
-0.279257
-0.270197
-0.261237
-0.252384
-0.243642
-0.235015
-0.226507
-0.218123
-0.209865
-0.201735
-0.193737
-0.185872
-0.178142
-0.170546
-0.163087
-0.155765
-0.148578
-0.141528
-0.134612
-0.127831
-0.121182
-0.114665
-0.108276
-0.102014
-0.0958769
-0.0898616
-0.0839655
-0.0781857
-0.0725192
-0.0669626
-0.0615128
-0.0561663
-0.0509198
-0.0457694
-0.0407127
-0.0357434
-0.0308641
-0.0260572
-0.021352
-0.0166672
-0.01218
-0.00744327
-0.00338966
0.286623
0.286493
0.286211
0.285765
0.285156
0.284389
0.28346
0.282369
0.281114
0.279691
0.2781
0.276337
0.2744
0.272286
0.269991
0.267513
0.264847
0.26199
0.258939
0.255688
0.252235
0.248574
0.244702
0.240614
0.236306
0.231775
0.227015
0.222023
0.216796
0.211329
0.205619
0.199664
0.193461
0.187007
0.180302
0.173343
0.166131
0.158666
0.150947
0.142978
0.134761
0.126297
0.117593
0.108652
0.0994802
0.0900845
0.0804724
0.0706522
0.0606334
0.0504258
0.0400404
0.0294887
0.0187827
0.00793532
-0.00304041
-0.0141309
-0.0253222
-0.0366002
-0.0479508
-0.0593597
-0.0708129
-0.0822961
-0.0937959
-0.105299
-0.116791
-0.128262
-0.139698
-0.151088
-0.162421
-0.173688
-0.184879
-0.195985
-0.207
-0.217915
-0.228724
-0.239423
-0.250006
-0.260469
-0.27081
-0.281026
-0.291114
-0.301075
-0.310907
-0.320611
-0.330187
-0.339635
-0.348958
-0.358158
-0.367236
-0.376195
-0.385037
-0.393765
-0.402383
-0.410892
-0.419297
-0.4276
-0.435804
-0.443912
-0.451926
-0.459848
-0.467683
-0.47543
-0.483091
-0.490669
-0.498165
-0.505578
-0.512909
-0.520159
-0.527327
-0.534412
-0.541413
-0.548328
-0.555156
-0.561895
-0.56854
-0.575091
-0.581542
-0.587891
-0.594133
-0.600265
-0.606281
-0.612177
-0.617948
-0.623587
-0.629091
-0.634454
-0.639669
-0.64473
-0.649633
-0.654371
-0.658937
-0.663327
-0.667534
-0.671552
-0.675376
-0.678999
-0.682416
-0.685621
-0.68861
-0.691377
-0.693917
-0.696225
-0.698296
-0.700127
-0.701714
-0.703052
-0.704137
-0.704967
-0.705539
-0.705849
-0.705895
-0.705676
-0.705188
-0.704431
-0.703403
-0.702103
-0.70053
-0.698685
-0.696566
-0.694174
-0.69151
-0.688574
-0.685367
-0.681891
-0.678148
-0.674139
-0.669866
-0.665333
-0.660543
-0.655497
-0.650201
-0.644657
-0.638871
-0.632845
-0.626586
-0.620098
-0.613387
-0.606458
-0.599317
-0.59197
-0.584425
-0.576688
-0.568766
-0.560666
-0.552397
-0.543966
-0.535382
-0.526654
-0.517789
-0.508797
-0.499687
-0.490468
-0.481151
-0.471743
-0.462257
-0.4527
-0.443083
-0.433416
-0.423709
-0.413972
-0.404215
-0.394447
-0.384678
-0.374918
-0.365176
-0.355461
-0.345782
-0.336148
-0.326567
-0.317048
-0.307597
-0.298223
-0.288933
-0.279732
-0.270628
-0.261626
-0.252732
-0.24395
-0.235285
-0.226742
-0.218323
-0.210032
-0.201872
-0.193845
-0.185953
-0.178197
-0.170579
-0.163099
-0.155757
-0.148553
-0.141487
-0.134558
-0.127765
-0.121107
-0.11458
-0.108185
-0.101918
-0.0957775
-0.08976
-0.0838632
-0.0780838
-0.0724189
-0.0668651
-0.061419
-0.0560772
-0.0508362
-0.0456919
-0.040642
-0.03568
-0.0308085
-0.0260096
-0.0213128
-0.0166364
-0.0121578
-0.00742945
-0.00338479
0.287902
0.287773
0.287492
0.287049
0.286446
0.285683
0.284761
0.283677
0.28243
0.281017
0.279435
0.277682
0.275756
0.273653
0.27137
0.268903
0.266248
0.263403
0.260362
0.257121
0.253677
0.250024
0.246158
0.242076
0.237771
0.233241
0.22848
0.223484
0.218249
0.212772
0.207048
0.201076
0.19485
0.18837
0.181634
0.174639
0.167386
0.159875
0.152105
0.14408
0.1358
0.127269
0.118492
0.109473
0.100219
0.0907354
0.0810314
0.0711154
0.0609971
0.050687
0.0401965
0.0295376
0.0187231
0.0077662
-0.00331921
-0.0145189
-0.0258185
-0.0372032
-0.0486582
-0.0601687
-0.07172
-0.0832977
-0.0948875
-0.106476
-0.118049
-0.129594
-0.141099
-0.152552
-0.163942
-0.17526
-0.186496
-0.197641
-0.208688
-0.219629
-0.230459
-0.241173
-0.251765
-0.262232
-0.272572
-0.282782
-0.29286
-0.302806
-0.312621
-0.322303
-0.331854
-0.341275
-0.350569
-0.359738
-0.368783
-0.377708
-0.386515
-0.395209
-0.403792
-0.412267
-0.420637
-0.428907
-0.437079
-0.445156
-0.453141
-0.461038
-0.468847
-0.476571
-0.484213
-0.491774
-0.499254
-0.506655
-0.513977
-0.521221
-0.528385
-0.535469
-0.542472
-0.549392
-0.556228
-0.562977
-0.569635
-0.576201
-0.582671
-0.58904
-0.595304
-0.60146
-0.607502
-0.613426
-0.619226
-0.624896
-0.630432
-0.635827
-0.641076
-0.646172
-0.651109
-0.655882
-0.660484
-0.66491
-0.669152
-0.673205
-0.677064
-0.680721
-0.684173
-0.687411
-0.690433
-0.693232
-0.695802
-0.69814
-0.700241
-0.7021
-0.703713
-0.705077
-0.706187
-0.70704
-0.707634
-0.707965
-0.708031
-0.70783
-0.707359
-0.706618
-0.705604
-0.704318
-0.702757
-0.700923
-0.698813
-0.69643
-0.693773
-0.690843
-0.68764
-0.684168
-0.680426
-0.676418
-0.672145
-0.66761
-0.662816
-0.657766
-0.652463
-0.646912
-0.641116
-0.63508
-0.628808
-0.622306
-0.615579
-0.608632
-0.601472
-0.594104
-0.586536
-0.578774
-0.570825
-0.562697
-0.554397
-0.545934
-0.537315
-0.52855
-0.519647
-0.510614
-0.501462
-0.4922
-0.482837
-0.473382
-0.463847
-0.45424
-0.444571
-0.434852
-0.425091
-0.415299
-0.405486
-0.395662
-0.385836
-0.376019
-0.366219
-0.356447
-0.346711
-0.33702
-0.327382
-0.317807
-0.308301
-0.298873
-0.289529
-0.280277
-0.271123
-0.262072
-0.25313
-0.244303
-0.235594
-0.227009
-0.218551
-0.210222
-0.202027
-0.193966
-0.186043
-0.178259
-0.170614
-0.163109
-0.155745
-0.148521
-0.141438
-0.134493
-0.127687
-0.121016
-0.114481
-0.108078
-0.101805
-0.0956604
-0.0896406
-0.0837429
-0.0779643
-0.0723014
-0.0667508
-0.0613092
-0.0559728
-0.0507382
-0.0456013
-0.0405593
-0.0356059
-0.0307434
-0.025954
-0.0212669
-0.0166004
-0.0121318
-0.00741333
-0.00337895
0.289337
0.289209
0.288931
0.288492
0.287893
0.287137
0.286222
0.285147
0.283908
0.282505
0.280935
0.279194
0.27728
0.27519
0.27292
0.270467
0.267826
0.264993
0.261965
0.258736
0.255302
0.251659
0.247802
0.243726
0.239426
0.234897
0.230135
0.225136
0.219894
0.214406
0.208667
0.202675
0.196425
0.189916
0.183145
0.17611
0.168811
0.161248
0.153421
0.145331
0.13698
0.128373
0.119513
0.110406
0.101057
0.0914738
0.081665
0.0716395
0.0614075
0.0509802
0.0403694
0.0295879
0.0186491
0.00756701
-0.00364387
-0.0149686
-0.0263919
-0.0378984
-0.0494726
-0.061099
-0.0727623
-0.0844475
-0.0961397
-0.107825
-0.119489
-0.131119
-0.142702
-0.154226
-0.165681
-0.177056
-0.188342
-0.19953
-0.210613
-0.221583
-0.232435
-0.243164
-0.253766
-0.264236
-0.274574
-0.284776
-0.294841
-0.30477
-0.314562
-0.324219
-0.333741
-0.343131
-0.35239
-0.361522
-0.370529
-0.379415
-0.388183
-0.396836
-0.405378
-0.413813
-0.422144
-0.430376
-0.438511
-0.446553
-0.454506
-0.462371
-0.470151
-0.47785
-0.485469
-0.493009
-0.500473
-0.50786
-0.515172
-0.522408
-0.529568
-0.536652
-0.543658
-0.550584
-0.557429
-0.564189
-0.570863
-0.577447
-0.583937
-0.590329
-0.596619
-0.602803
-0.608875
-0.614831
-0.620664
-0.62637
-0.631942
-0.637374
-0.642661
-0.647797
-0.652774
-0.657587
-0.66223
-0.666696
-0.670979
-0.675072
-0.678971
-0.682668
-0.686157
-0.689434
-0.692493
-0.695328
-0.697934
-0.700306
-0.702439
-0.70433
-0.705974
-0.707366
-0.708504
-0.709384
-0.710003
-0.710357
-0.710445
-0.710265
-0.709814
-0.70909
-0.708093
-0.706822
-0.705275
-0.703453
-0.701354
-0.698981
-0.696331
-0.693408
-0.690211
-0.686742
-0.683003
-0.678996
-0.674722
-0.670185
-0.665387
-0.660332
-0.655022
-0.649463
-0.643656
-0.637608
-0.631323
-0.624805
-0.61806
-0.611094
-0.603912
-0.596521
-0.588927
-0.581137
-0.573158
-0.564997
-0.556663
-0.548163
-0.539505
-0.530699
-0.521752
-0.512675
-0.503475
-0.494163
-0.484749
-0.475241
-0.46565
-0.455986
-0.44626
-0.43648
-0.426658
-0.416804
-0.406928
-0.39704
-0.387149
-0.377267
-0.367402
-0.357564
-0.347763
-0.338007
-0.328305
-0.318666
-0.309098
-0.299608
-0.290204
-0.280893
-0.271681
-0.262575
-0.253579
-0.2447
-0.235942
-0.227309
-0.218806
-0.210434
-0.202199
-0.1941
-0.186142
-0.178324
-0.170649
-0.163117
-0.155728
-0.148482
-0.141378
-0.134416
-0.127594
-0.12091
-0.114364
-0.107953
-0.101674
-0.0955243
-0.0895019
-0.0836035
-0.0778257
-0.0721652
-0.0666186
-0.0611822
-0.0558522
-0.0506251
-0.0454965
-0.0404637
-0.0355203
-0.0306683
-0.0258897
-0.0212139
-0.0165587
-0.0121017
-0.00739474
-0.00337205
0.290927
0.290801
0.290525
0.29009
0.289497
0.288748
0.287841
0.286775
0.285548
0.284157
0.282599
0.280872
0.278973
0.276898
0.274643
0.272205
0.269579
0.266762
0.263748
0.260534
0.257113
0.253482
0.249635
0.245567
0.241272
0.236747
0.231985
0.226982
0.221733
0.216233
0.210479
0.204465
0.19819
0.191648
0.184839
0.177761
0.170411
0.16279
0.154897
0.146736
0.138307
0.129613
0.12066
0.111453
0.101998
0.0923022
0.0823749
0.0722256
0.0618651
0.051305
0.0405581
0.0296378
0.0185583
0.00733435
-0.00401858
-0.0154847
-0.027048
-0.0386923
-0.0504011
-0.0621583
-0.0739479
-0.0857541
-0.0975616
-0.109356
-0.121122
-0.132846
-0.144517
-0.156121
-0.167647
-0.179086
-0.190427
-0.201662
-0.212784
-0.223786
-0.234662
-0.245407
-0.256017
-0.26649
-0.276823
-0.287014
-0.297064
-0.306971
-0.316738
-0.326364
-0.335852
-0.345205
-0.354425
-0.363514
-0.372477
-0.381318
-0.390039
-0.398646
-0.407142
-0.415531
-0.423818
-0.432006
-0.440099
-0.448101
-0.456016
-0.463846
-0.471595
-0.479264
-0.486857
-0.494375
-0.501819
-0.509191
-0.516491
-0.523719
-0.530875
-0.537958
-0.544967
-0.551901
-0.558756
-0.56553
-0.572222
-0.578826
-0.585339
-0.591758
-0.598078
-0.604293
-0.610399
-0.616391
-0.622262
-0.628008
-0.633621
-0.639096
-0.644427
-0.649607
-0.654629
-0.659488
-0.664177
-0.668688
-0.673017
-0.677156
-0.681099
-0.68484
-0.688373
-0.691693
-0.694793
-0.697669
-0.700314
-0.702725
-0.704895
-0.706821
-0.708499
-0.709924
-0.711093
-0.712002
-0.712649
-0.71303
-0.713143
-0.712986
-0.712556
-0.711853
-0.710874
-0.70962
-0.708088
-0.70628
-0.704194
-0.70183
-0.69919
-0.696274
-0.693084
-0.689619
-0.685883
-0.681877
-0.677603
-0.673063
-0.668262
-0.663201
-0.657884
-0.652315
-0.646497
-0.640436
-0.634135
-0.6276
-0.620836
-0.613848
-0.606642
-0.599225
-0.591602
-0.583781
-0.575769
-0.567573
-0.5592
-0.55066
-0.541959
-0.533107
-0.524112
-0.514984
-0.505731
-0.496364
-0.486892
-0.477324
-0.467672
-0.457944
-0.448152
-0.438306
-0.428415
-0.418491
-0.408544
-0.398584
-0.388621
-0.378666
-0.368728
-0.358816
-0.348942
-0.339113
-0.329339
-0.319628
-0.309989
-0.30043
-0.290958
-0.281581
-0.272304
-0.263135
-0.254079
-0.245142
-0.236328
-0.227642
-0.219087
-0.210668
-0.202387
-0.194246
-0.186248
-0.178393
-0.170684
-0.163121
-0.155703
-0.148432
-0.141306
-0.134324
-0.127485
-0.120787
-0.114229
-0.107808
-0.101522
-0.0953676
-0.0893425
-0.0834433
-0.0776667
-0.0720091
-0.066467
-0.0610366
-0.055714
-0.0504955
-0.0453766
-0.0403544
-0.0354223
-0.0305823
-0.0258163
-0.0211533
-0.0165112
-0.0120673
-0.0073735
-0.00336402
0.292671
0.292546
0.292273
0.291843
0.291256
0.290515
0.289618
0.288563
0.287348
0.28597
0.284427
0.282716
0.280833
0.278775
0.276538
0.274118
0.27151
0.26871
0.265714
0.262516
0.25911
0.255493
0.251658
0.2476
0.243313
0.238792
0.234032
0.229026
0.22377
0.218259
0.212488
0.206453
0.200149
0.193573
0.186723
0.179595
0.17219
0.164505
0.156542
0.1483
0.139784
0.130995
0.121938
0.112619
0.103045
0.0932233
0.0831632
0.0728751
0.0623702
0.0516612
0.0407614
0.0296851
0.0184475
0.00706428
-0.00444816
-0.0160731
-0.0277935
-0.0395921
-0.0514518
-0.0633555
-0.0752863
-0.0872277
-0.0991637
-0.111079
-0.122958
-0.134788
-0.146555
-0.158247
-0.169852
-0.18136
-0.192762
-0.204048
-0.215212
-0.226247
-0.237147
-0.247909
-0.258527
-0.269001
-0.279327
-0.289505
-0.299535
-0.309417
-0.319153
-0.328744
-0.338192
-0.347502
-0.356675
-0.365716
-0.374629
-0.383418
-0.392087
-0.400641
-0.409084
-0.417421
-0.425657
-0.433796
-0.441842
-0.449799
-0.457671
-0.465462
-0.473174
-0.480811
-0.488375
-0.495867
-0.50329
-0.510645
-0.517932
-0.525152
-0.532303
-0.539386
-0.546399
-0.55334
-0.560207
-0.566998
-0.573709
-0.580336
-0.586877
-0.593326
-0.599678
-0.605929
-0.612074
-0.618107
-0.624021
-0.629811
-0.635471
-0.640994
-0.646374
-0.651603
-0.656676
-0.661586
-0.666326
-0.670889
-0.675268
-0.679458
-0.683451
-0.687242
-0.690824
-0.694191
-0.697338
-0.700259
-0.702948
-0.705401
-0.707612
-0.709578
-0.711293