/*--------------------------------*- C++ -*----------------------------------*\
| =========                 |                                                 |
| \\      /  F ield         | OpenFOAM: The Open Source CFD Toolbox           |
|  \\    /   O peration     | Version:  2306                                  |
|   \\  /    A nd           | Website:  www.openfoam.com                      |
|    \\/     M anipulation  |                                                 |
\*---------------------------------------------------------------------------*/
FoamFile
{
    version     2.0;
    format      ascii;
    arch        "LSB;label=32;scalar=64";
    class       surfaceScalarField;
    location    "10.5";
    object      phi;
}
// * * * * * * * * * * * * * * * * * * * * * * * * * * * * * * * * * * * * * //

dimensions      [0 3 -1 0 0 0 0];

oriented        oriented;

internalField   nonuniform List<scalar> 
65152
(
0.0062505
-5.03405e-07
0.00625202
-1.51215e-06
0.00625454
-2.52154e-06
0.00625807
-3.53268e-06
0.00626262
-4.54724e-06
0.00626818
-5.5663e-06
0.00627477
-6.59053e-06
0.00628239
-7.62067e-06
0.00629105
-8.65751e-06
0.00630075
-9.70183e-06
0.00631151
-1.07543e-05
0.00632332
-1.18155e-05
0.00633621
-1.2886e-05
0.00635018
-1.39662e-05
0.00636523
-1.50565e-05
0.00638139
-1.6157e-05
0.00639866
-1.72678e-05
0.00641705
-1.83891e-05
0.00643657
-1.95206e-05
0.00645723
-2.0662e-05
0.00647904
-2.18129e-05
0.00650201
-2.29727e-05
0.00652616
-2.41407e-05
0.00655147
-2.53159e-05
0.00657797
-2.64973e-05
0.00660565
-2.76835e-05
0.00663453
-2.88731e-05
0.00666459
-3.00645e-05
0.00669585
-3.12558e-05
0.00672829
-3.24449e-05
0.00676192
-3.36299e-05
0.00679673
-3.48081e-05
0.00683271
-3.59772e-05
0.00686984
-3.71345e-05
0.00690812
-3.82772e-05
0.00694752
-3.94022e-05
0.00698803
-4.05067e-05
0.00702961
-4.15874e-05
0.00707225
-4.26412e-05
0.00711592
-4.36649e-05
0.00716057
-4.46552e-05
0.00720618
-4.5609e-05
0.00725271
-4.65232e-05
0.0073001
-4.73946e-05
0.00734832
-4.82204e-05
0.00739732
-4.89978e-05
0.00744704
-4.97241e-05
0.00749744
-5.0397e-05
0.00754846
-5.10143e-05
0.00760003
-5.15742e-05
0.0076521
-5.20749e-05
0.00770462
-5.25152e-05
0.00775751
-5.28942e-05
0.00781072
-5.32111e-05
0.00786419
-5.34656e-05
0.00791785
-5.36578e-05
0.00797164
-5.3788e-05
0.00802549
-5.38569e-05
0.00807936
-5.38655e-05
0.00813317
-5.38152e-05
0.00818688
-5.37075e-05
0.00824043
-5.35445e-05
0.00829375
-5.33282e-05
0.00834681
-5.3061e-05
0.00839956
-5.27456e-05
0.00845195
-5.23847e-05
0.00850393
-5.19813e-05
0.00855546
-5.15384e-05
0.00860652
-5.10591e-05
0.00865707
-5.05467e-05
0.00870708
-5.00044e-05
0.00875651
-4.94355e-05
0.00880535
-4.88431e-05
0.00885358
-4.82307e-05
0.00890119
-4.76011e-05
0.00894814
-4.69577e-05
0.00899445
-4.63032e-05
0.00904009
-4.56405e-05
0.00908506
-4.49725e-05
0.00912936
-4.43015e-05
0.00917299
-4.363e-05
0.00921595
-4.29602e-05
0.00925825
-4.22943e-05
0.00929988
-4.16339e-05
0.00934086
-4.09809e-05
0.0093812
-4.03367e-05
0.0094209
-3.97025e-05
0.00945998
-3.90794e-05
0.00949845
-3.84684e-05
0.00953632
-3.78701e-05
0.0095736
-3.7285e-05
0.00961032
-3.67135e-05
0.00964647
-3.61557e-05
0.00968208
-3.56115e-05
0.00971716
-3.50808e-05
0.00975173
-3.45632e-05
0.00978579
-3.40582e-05
0.00981935
-3.35652e-05
0.00985243
-3.30835e-05
0.00988505
-3.26121e-05
0.0099172
-3.215e-05
0.00994889
-3.16963e-05
0.00998014
-3.12497e-05
0.010011
-3.08091e-05
0.0100413
-3.0373e-05
0.0100713
-2.99403e-05
0.0101008
-2.95095e-05
0.0101299
-2.90791e-05
0.0101585
-2.86479e-05
0.0101867
-2.82143e-05
0.0102145
-2.7777e-05
0.0102418
-2.73345e-05
0.0102687
-2.68855e-05
0.0102951
-2.64286e-05
0.0103211
-2.59624e-05
0.0103466
-2.54857e-05
0.0103716
-2.49973e-05
0.0103961
-2.4496e-05
0.0104201
-2.39807e-05
0.0104435
-2.34503e-05
0.0104664
-2.2904e-05
0.0104888
-2.23408e-05
0.0105105
-2.17599e-05
0.0105317
-2.11605e-05
0.0105522
-2.05421e-05
0.0105721
-1.99041e-05
0.0105914
-1.92459e-05
0.0106099
-1.85672e-05
0.0106278
-1.78677e-05
0.010645
-1.7147e-05
0.0106614
-1.64051e-05
0.010677
-1.56419e-05
0.0106919
-1.48572e-05
0.0107059
-1.40513e-05
0.0107191
-1.32242e-05
0.0107315
-1.23761e-05
0.010743
-1.15073e-05
0.0107536
-1.06181e-05
0.0107633
-9.70875e-06
0.0107721
-8.77978e-06
0.01078
-7.83162e-06
0.0107868
-6.86477e-06
0.0107927
-5.87977e-06
0.0107976
-4.87721e-06
0.0108014
-3.85769e-06
0.0108043
-2.82186e-06
0.010806
-1.77039e-06
0.0108067
-7.03987e-07
0.0108064
3.76685e-07
0.0108049
1.47085e-06
0.0108023
2.57777e-06
0.0107986
3.69668e-06
0.0107938
4.8268e-06
0.0107878
5.96734e-06
0.0107807
7.11751e-06
0.0107724
8.27648e-06
0.010763
9.44344e-06
0.0107524
1.06175e-05
0.0107406
1.1798e-05
0.0107276
1.29838e-05
0.0107134
1.41743e-05
0.010698
1.53684e-05
0.0106815
1.65654e-05
0.0106637
1.77643e-05
0.0106447
1.89642e-05
0.0106246
2.01641e-05
0.0106032
2.13631e-05
0.0105807
2.25603e-05
0.0105569
2.37545e-05
0.010532
2.49449e-05
0.0105058
2.61303e-05
0.0104785
2.73096e-05
0.01045
2.84819e-05
0.0104204
2.9646e-05
0.0103896
3.08006e-05
0.0103576
3.19447e-05
0.0103246
3.30771e-05
0.0102904
3.41964e-05
0.0102551
3.53015e-05
0.0102187
3.63912e-05
0.0101812
3.7464e-05
0.0101427
3.85187e-05
0.0101031
3.9554e-05
0.0100626
4.05684e-05
0.010021
4.15608e-05
0.00997848
4.25296e-05
0.009935
4.34736e-05
0.00989061
4.43914e-05
0.00984533
4.52817e-05
0.00979919
4.61431e-05
0.00975221
4.69743e-05
0.00970444
4.77741e-05
0.0096559
4.85413e-05
0.00960662
4.92746e-05
0.00955665
4.99729e-05
0.00950602
5.06351e-05
0.00945476
5.12602e-05
0.00940291
5.18473e-05
0.00935051
5.23954e-05
0.00929761
5.29038e-05
0.00924424
5.33718e-05
0.00919044
5.37988e-05
0.00913626
5.41842e-05
0.00908173
5.45277e-05
0.0090269
5.48289e-05
0.00897181
5.50876e-05
0.00891651
5.53039e-05
0.00886103
5.54777e-05
0.00880542
5.56091e-05
0.00874972
5.56985e-05
0.00869398
5.57463e-05
0.00863822
5.57529e-05
0.0085825
5.5719e-05
0.00852686
5.56452e-05
0.00847133
5.55325e-05
0.00841594
5.53818e-05
0.00836075
5.51941e-05
0.00830578
5.49705e-05
0.00825107
5.47123e-05
0.00819665
5.44208e-05
0.00814255
5.40974e-05
0.00808881
5.37435e-05
0.00803544
5.33606e-05
0.00798249
5.29503e-05
0.00792998
5.25142e-05
0.00787793
5.2054e-05
0.00782636
5.15713e-05
0.00777529
5.10678e-05
0.00772474
5.05454e-05
0.00767474
5.00056e-05
0.00762529
4.94502e-05
0.0075764
4.8881e-05
0.00752811
4.82997e-05
0.0074804
4.77078e-05
0.00743329
4.71072e-05
0.00738679
4.64993e-05
0.00734091
4.58858e-05
0.00729564
4.52682e-05
0.00725099
4.4648e-05
0.00720696
4.40267e-05
0.00716356
4.34055e-05
0.00712077
4.27857e-05
0.0070786
4.21686e-05
0.00703705
4.15554e-05
0.0069961
4.09471e-05
0.00695575
4.03448e-05
0.00691601
3.97492e-05
0.00687684
3.91616e-05
0.00683826
3.85817e-05
0.00680025
3.80125e-05
0.0067628
3.74493e-05
0.0067259
3.69024e-05
0.00668954
3.63531e-05
0.00665372
3.58259e-05
0.00661841
3.5305e-05
3.47e-05
0.0062505
-1.00731e-06
0.00625201
-3.02248e-06
0.00625453
-5.04022e-06
0.00625806
-7.06245e-06
0.00626261
-9.09122e-06
0.00626817
-1.11286e-05
0.00627475
-1.31763e-05
0.00628237
-1.52359e-05
0.00629102
-1.7309e-05
0.00630072
-1.93971e-05
0.00631146
-2.15016e-05
0.00632327
-2.36237e-05
0.00633615
-2.57645e-05
0.00635011
-2.79247e-05
0.00636516
-3.01051e-05
0.00638131
-3.23062e-05
0.00639857
-3.45281e-05
0.00641695
-3.6771e-05
0.00643646
-3.90344e-05
0.00645712
-4.13178e-05
0.00647893
-4.36204e-05
0.00650189
-4.5941e-05
0.00652603
-4.82781e-05
0.00655135
-5.06299e-05
0.00657784
-5.2994e-05
0.00660553
-5.53681e-05
0.0066344
-5.77492e-05
0.00666447
-6.01339e-05
0.00669574
-6.25186e-05
0.00672819
-6.48994e-05
0.00676183
-6.72717e-05
0.00679665
-6.9631e-05
0.00683265
-7.19721e-05
0.0068698
-7.42896e-05
0.00690811
-7.6578e-05
0.00694753
-7.88313e-05
0.00698807
-8.10435e-05
0.00702969
-8.32083e-05
0.00707237
-8.53192e-05
0.00711608
-8.737e-05
0.00716077
-8.9354e-05
0.00720643
-9.12649e-05
0.007253
-9.30964e-05
0.00730045
-9.48423e-05
0.00734873
-9.64968e-05
0.00739778
-9.80542e-05
0.00744757
-9.95094e-05
0.00749803
-0.000100857
0.00754911
-0.000102094
0.00760075
-0.000103215
0.00765289
-0.000104218
0.00770548
-0.0001051
0.00775844
-0.000105859
0.00781172
-0.000106493
0.00786526
-0.000107002
0.00791899
-0.000107386
0.00797285
-0.000107646
0.00802677
-0.000107782
0.00808071
-0.000107798
0.00813459
-0.000107696
0.00818836
-0.000107479
0.00824196
-0.000107151
0.00829535
-0.000106716
0.00834847
-0.000106179
0.00840127
-0.000105545
0.0084537
-0.00010482
0.00850573
-0.00010401
0.00855732
-0.000103121
0.00860842
-0.000102159
0.008659
-0.000101131
0.00870904
-0.000100043
0.00875851
-9.89021e-05
0.00880738
-9.77142e-05
0.00885563
-9.6486e-05
0.00890325
-9.52238e-05
0.00895023
-9.39338e-05
0.00899655
-9.26219e-05
0.0090422
-9.12938e-05
0.00908719
-8.9955e-05
0.00913149
-8.86105e-05
0.00917513
-8.72652e-05
0.00921809
-8.59236e-05
0.00926039
-8.45897e-05
0.00930202
-8.32672e-05
0.009343
-8.19596e-05
0.00938333
-8.06697e-05
0.00942303
-7.94001e-05
0.0094621
-7.81531e-05
0.00950057
-7.69302e-05
0.00953843
-7.5733e-05
0.00957571
-7.45624e-05
0.00961241
-7.34192e-05
0.00964856
-7.23034e-05
0.00968416
-7.12152e-05
0.00971924
-7.0154e-05
0.00975379
-6.91192e-05
0.00978784
-6.81098e-05
0.0098214
-6.71245e-05
0.00985448
-6.61618e-05
0.00988709
-6.52198e-05
0.00991924
-6.42968e-05
0.00995093
-6.33904e-05
0.00998218
-6.24984e-05
0.010013
-6.16183e-05
0.0100434
-6.07475e-05
0.0100733
-5.98833e-05
0.0101028
-5.90229e-05
0.0101319
-5.81636e-05
0.0101606
-5.73025e-05
0.0101888
-5.64367e-05
0.0102166
-5.55634e-05
0.0102439
-5.46797e-05
0.0102708
-5.37829e-05
0.0102973
-5.28703e-05
0.0103232
-5.19391e-05
0.0103487
-5.09869e-05
0.0103737
-5.00111e-05
0.0103983
-4.90095e-05
0.0104223
-4.79798e-05
0.0104457
-4.692e-05
0.0104686
-4.58281e-05
0.010491
-4.47024e-05
0.0105128
-4.35412e-05
0.010534
-4.23431e-05
0.0105545
-4.11068e-05
0.0105745
-3.9831e-05
0.0105937
-3.8515e-05
0.0106123
-3.71578e-05
0.0106302
-3.57588e-05
0.0106474
-3.43175e-05
0.0106638
-3.28337e-05
0.0106795
-3.1307e-05
0.0106944
-2.97376e-05
0.0107084
-2.81255e-05
0.0107217
-2.6471e-05
0.0107341
-2.47744e-05
0.0107456
-2.30363e-05
0.0107562
-2.12573e-05
0.010766
-1.9438e-05
0.0107748
-1.75795e-05
0.0107826
-1.56825e-05
0.0107895
-1.37481e-05
0.0107954
-1.17773e-05
0.0108003
-9.77138e-06
0.0108042
-7.73152e-06
0.010807
-5.65901e-06
0.0108088
-3.55519e-06
0.0108095
-1.42143e-06
0.0108092
7.40815e-07
0.0108077
2.93009e-06
0.0108051
5.1449e-06
0.0108014
7.3837e-06
0.0107966
9.64495e-06
0.0107907
1.1927e-05
0.0107836
1.42284e-05
0.0107753
1.65474e-05
0.0107658
1.88823e-05
0.0107552
2.12316e-05
0.0107434
2.35935e-05
0.0107304
2.59663e-05
0.0107163
2.83484e-05
0.0107009
3.07378e-05
0.0106843
3.31329e-05
0.0106666
3.55318e-05
0.0106476
3.79327e-05
0.0106274
4.03338e-05
0.0106061
4.2733e-05
0.0105835
4.51285e-05
0.0105597
4.75182e-05
0.0105348
4.99002e-05
0.0105086
5.22723e-05
0.0104813
5.46324e-05
0.0104528
5.69782e-05
0.0104232
5.93077e-05
0.0103923
6.16184e-05
0.0103604
6.3908e-05
0.0103273
6.61741e-05
0.0102931
6.84143e-05
0.0102577
7.06261e-05
0.0102213
7.28068e-05
0.0101838
7.4954e-05
0.0101453
7.70649e-05
0.0101057
7.9137e-05
0.0100651
8.11674e-05
0.0100235
8.31536e-05
0.00998094
8.50929e-05
0.00993743
8.69824e-05
0.00989301
8.88195e-05
0.00984769
9.06015e-05
0.0098015
9.23257e-05
0.00975449
9.39896e-05
0.00970667
9.55906e-05
0.00965809
9.71263e-05
0.00960877
9.85941e-05
0.00955875
9.9992e-05
0.00950807
0.000101318
0.00945676
0.000102569
0.00940486
0.000103744
0.00935241
0.000104841
0.00929946
0.000105859
0.00924604
0.000106795
0.00919218
0.00010765
0.00913795
0.000108421
0.00908337
0.000109109
0.00902848
0.000109711
0.00897334
0.000110229
0.00891799
0.000110661
0.00886245
0.000111009
0.00880679
0.000111272
0.00875104
0.00011145
0.00869524
0.000111545
0.00863944
0.000111558
0.00858367
0.000111489
0.00852797
0.000111341
0.00847239
0.000111114
0.00841696
0.000110812
0.00836172
0.000110435
0.0083067
0.000109987
0.00825195
0.000109469
0.00819748
0.000108885
0.00814334
0.000108236
0.00808956
0.000107527
0.00803616
0.000106759
0.00798317
0.000105937
0.00793063
0.000105063
0.00787854
0.000104141
0.00782694
0.000103174
0.00777584
0.000102165
0.00772527
0.000101118
0.00767524
0.000100037
0.00762576
9.89243e-05
0.00757686
9.7784e-05
0.00752854
9.66195e-05
0.00748081
9.5434e-05
0.00743369
9.4231e-05
0.00738717
9.30135e-05
0.00734127
9.17849e-05
0.007296
9.05481e-05
0.00725134
8.93062e-05
0.0072073
8.80619e-05
0.00716389
8.68181e-05
0.0071211
8.55772e-05
0.00707892
8.43418e-05
0.00703737
8.31142e-05
0.00699642
8.18965e-05
0.00695607
8.06907e-05
0.00691632
7.94987e-05
0.00687716
7.83222e-05
0.00683858
7.71626e-05
0.00680057
7.60212e-05
0.00676312
7.48998e-05
0.00672623
7.37943e-05
0.00668985
7.27263e-05
0.00665406
7.16229e-05
0.00661863
7.0731e-05
6.92878e-05
0.0062505
-1.5099e-06
0.00625201
-4.53052e-06
0.00625453
-7.55506e-06
0.00625805
-1.05866e-05
0.00626259
-1.36281e-05
0.00626814
-1.66824e-05
0.00627472
-1.97522e-05
0.00628232
-2.284e-05
0.00629096
-2.59483e-05
0.00630064
-2.90792e-05
0.00631137
-3.22349e-05
0.00632317
-3.54171e-05
0.00633603
-3.86276e-05
0.00634997
-4.18675e-05
0.00636501
-4.5138e-05
0.00638114
-4.84398e-05
0.00639839
-5.17732e-05
0.00641675
-5.51382e-05
0.00643625
-5.85345e-05
0.0064569
-6.19612e-05
0.00647869
-6.54171e-05
0.00650165
-6.89003e-05
0.00652578
-7.24087e-05
0.00655109
-7.59396e-05
0.00657759
-7.94895e-05
0.00660527
-8.30547e-05
0.00663416
-8.66309e-05
0.00666424
-9.0213e-05
0.00669551
-9.37957e-05
0.00672799
-9.73727e-05
0.00676165
-0.000100938
0.0067965
-0.000104483
0.00683253
-0.000108002
0.00686973
-0.000111486
0.00690808
-0.000114926
0.00694756
-0.000118314
0.00698816
-0.000121641
0.00702985
-0.000124896
0.0070726
-0.000128071
0.00711638
-0.000131156
0.00716117
-0.00013414
0.00720692
-0.000137015
0.00725359
-0.00013977
0.00730115
-0.000142396
0.00734954
-0.000144885
0.00739871
-0.000147228
0.00744862
-0.000149417
0.00749921
-0.000151445
0.00755042
-0.000153305
0.00760219
-0.000154991
0.00765447
-0.000156499
0.0077072
-0.000157824
0.0077603
-0.000158964
0.00781373
-0.000159916
0.0078674
-0.00016068
0.00792127
-0.000161255
0.00797527
-0.000161643
0.00802933
-0.000161846
0.0080834
-0.000161866
0.00813741
-0.000161709
0.00819131
-0.000161378
0.00824504
-0.00016088
0.00829855
-0.000160221
0.00835178
-0.000159409
0.00840469
-0.000158452
0.00845722
-0.000157357
0.00850935
-0.000156135
0.00856102
-0.000154793
0.0086122
-0.000153342
0.00866286
-0.000151791
0.00871297
-0.000150151
0.0087625
-0.000148431
0.00881142
-0.000146641
0.00885973
-0.000144791
0.00890739
-0.000142889
0.00895441
-0.000140947
0.00900076
-0.000138971
0.00904644
-0.000136972
0.00909144
-0.000134957
0.00913576
-0.000132934
0.00917941
-0.000130911
0.00922238
-0.000128893
0.00926467
-0.000126887
0.00930631
-0.000124899
0.00934728
-0.000122933
0.0093876
-0.000120995
0.00942729
-0.000119088
0.00946635
-0.000117215
0.0095048
-0.000115379
0.00954265
-0.000113581
0.00957991
-0.000111824
0.0096166
-0.000110109
0.00965273
-0.000108435
0.00968832
-0.000106803
0.00972338
-0.000105212
0.00975792
-0.000103661
0.00979196
-0.000102148
0.00982551
-0.000100672
0.00985857
-9.92295e-05
0.00989117
-9.78189e-05
0.00992331
-9.64368e-05
0.009955
-9.50799e-05
0.00998625
-9.37448e-05
0.0100171
-9.24276e-05
0.0100474
-9.11246e-05
0.0100774
-8.98315e-05
0.0101069
-8.85443e-05
0.010136
-8.72587e-05
0.0101647
-8.59704e-05
0.0101929
-8.46751e-05
0.0102207
-8.33685e-05
0.0102481
-8.20463e-05
0.010275
-8.07043e-05
0.0103015
-7.93384e-05
0.0103275
-7.79446e-05
0.010353
-7.65191e-05
0.0103781
-7.50581e-05
0.0104026
-7.35582e-05
0.0104266
-7.20161e-05
0.0104501
-7.04285e-05
0.0104731
-6.87927e-05
0.0104955
-6.71059e-05
0.0105173
-6.53657e-05
0.0105386
-6.35698e-05
0.0105592
-6.17164e-05
0.0105791
-5.98038e-05
0.0105985
-5.78304e-05
0.0106171
-5.57951e-05
0.010635
-5.36969e-05
0.0106523
-5.15351e-05
0.0106687
-4.93091e-05
0.0106844
-4.70189e-05
0.0106994
-4.46642e-05
0.0107135
-4.22454e-05
0.0107268
-3.97628e-05
0.0107392
-3.72169e-05
0.0107508
-3.46085e-05
0.0107615
-3.19387e-05
0.0107712
-2.92084e-05
0.0107801
-2.6419e-05
0.010788
-2.35718e-05
0.0107949
-2.06683e-05
0.0108008
-1.77103e-05
0.0108058
-1.46994e-05
0.0108097
-1.16376e-05
0.0108125
-8.52664e-06
0.0108143
-5.36869e-06
0.0108151
-2.16576e-06
0.0108148
1.07993e-06
0.0108133
4.36622e-06
0.0108108
7.69085e-06
0.0108071
1.10515e-05
0.0108023
1.44459e-05
0.0107964
1.78716e-05
0.0107893
2.13262e-05
0.010781
2.48072e-05
0.0107716
2.83123e-05
0.010761
3.18389e-05
0.0107492
3.53844e-05
0.0107362
3.89464e-05
0.010722
4.25221e-05
0.0107066
4.61091e-05
0.0106901
4.97045e-05
0.0106723
5.33057e-05
0.0106533
5.691e-05
0.0106331
6.05145e-05
0.0106118
6.41164e-05
0.0105892
6.77127e-05
0.0105654
7.13004e-05
0.0105404
7.48765e-05
0.0105142
7.84379e-05
0.0104869
8.19813e-05
0.0104584
8.55035e-05
0.0104287
8.9001e-05
0.0103978
9.24705e-05
0.0103658
9.59085e-05
0.0103327
9.93113e-05
0.0102984
0.000102675
0.0102631
0.000105997
0.0102266
0.000109271
0.0101891
0.000112496
0.0101505
0.000115666
0.0101108
0.000118778
0.0100702
0.000121828
0.0100285
0.000124811
0.00998586
0.000127723
0.00994228
0.000130562
0.00989778
0.000133321
0.00985239
0.000135998
0.00980612
0.000138588
0.00975903
0.000141087
0.00971113
0.000143492
0.00966245
0.000145799
0.00961304
0.000148004
0.00956293
0.000150104
0.00951215
0.000152095
0.00946075
0.000153974
0.00940875
0.00015574
0.00935621
0.000157388
0.00930315
0.000158916
0.00924962
0.000160323
0.00919567
0.000161606
0.00914132
0.000162764
0.00908664
0.000163796
0.00903165
0.000164701
0.0089764
0.000165477
0.00892093
0.000166126
0.0088653
0.000166647
0.00880953
0.00016704
0.00875367
0.000167307
0.00869777
0.000167448
0.00864186
0.000167466
0.00858599
0.000167361
0.00853019
0.000167136
0.00847451
0.000166794
0.00841898
0.000166338
0.00836365
0.00016577
0.00830854
0.000165094
0.0082537
0.000164314
0.00819915
0.000163434
0.00814493
0.000162458
0.00809106
0.000161389
0.00803759
0.000160234
0.00798453
0.000158997
0.00793191
0.000157681
0.00787976
0.000156293
0.00782809
0.000154838
0.00777694
0.000153321
0.00772631
0.000151746
0.00767623
0.000150119
0.00762671
0.000148446
0.00757776
0.000146731
0.0075294
0.000144979
0.00748164
0.000143197
0.00743448
0.000141388
0.00738794
0.000139557
0.00734201
0.00013771
0.00729671
0.000135851
0.00725203
0.000133984
0.00720798
0.000132114
0.00716455
0.000130245
0.00712175
0.00012838
0.00707956
0.000126524
0.007038
0.000124679
0.00699705
0.00012285
0.0069567
0.000121039
0.00691695
0.000119248
0.00687779
0.000117481
0.00683921
0.00011574
0.00680121
0.000114026
0.00676376
0.000112344
0.00672688
0.000110682
0.00669051
0.000109088
0.00665472
0.000107421
0.00661934
0.000106102
0.000103908
0.0062505
-2.01126e-06
0.00625201
-6.03496e-06
0.00625451
-1.00639e-05
0.00625803
-1.41023e-05
0.00626256
-1.81542e-05
0.0062681
-2.22233e-05
0.00627466
-2.63132e-05
0.00628225
-3.04273e-05
0.00629087
-3.4569e-05
0.00630053
-3.87412e-05
0.00631124
-4.29467e-05
0.00632301
-4.7188e-05
0.00633585
-5.14674e-05
0.00634977
-5.57865e-05
0.00636478
-6.01469e-05
0.00638089
-6.45495e-05
0.00639811
-6.89949e-05
0.00641646
-7.34832e-05
0.00643593
-7.80137e-05
0.00645656
-8.25855e-05
0.00647834
-8.71969e-05
0.00650128
-9.18456e-05
0.0065254
-9.65287e-05
0.00655071
-0.000101242
0.0065772
-0.000105983
0.00660489
-0.000110744
0.00663378
-0.000115521
0.00666387
-0.000120306
0.00669517
-0.000125093
0.00672767
-0.000129874
0.00676137
-0.000134639
0.00679627
-0.000139379
0.00683235
-0.000144084
0.00686961
-0.000148743
0.00690803
-0.000153345
0.00694759
-0.000157878
0.00698828
-0.000162328
0.00703007
-0.000166685
0.00707293
-0.000170934
0.00711684
-0.000175062
0.00716175
-0.000179057
0.00720764
-0.000182905
0.00725447
-0.000186594
0.00730218
-0.00019011
0.00735074
-0.000193443
0.00740009
-0.000196579
0.00745018
-0.00019951
0.00750096
-0.000202224
0.00755237
-0.000204713
0.00760435
-0.00020697
0.00765684
-0.000208986
0.00770977
-0.000210758
0.00776309
-0.000212281
0.00781672
-0.000213553
0.00787061
-0.000214571
0.0079247
-0.000215336
0.0079789
-0.00021585
0.00803317
-0.000216116
0.00808744
-0.000216137
0.00814165
-0.000215919
0.00819575
-0.000215469
0.00824966
-0.000214795
0.00830334
-0.000213906
0.00835675
-0.00021281
0.00840981
-0.00021152
0.0084625
-0.000210047
0.00851477
-0.000208402
0.00856658
-0.000206598
0.00861788
-0.000204648
0.00866866
-0.000202565
0.00871887
-0.000200362
0.00876849
-0.000198053
0.0088175
-0.000195651
0.00886588
-0.000193168
0.00891361
-0.000190619
0.00896067
-0.000188014
0.00900707
-0.000185367
0.00905279
-0.000182688
0.00909782
-0.000179989
0.00914216
-0.00017728
0.00918582
-0.000174571
0.0092288
-0.00017187
0.0092711
-0.000169187
0.00931273
-0.000166527
0.00935369
-0.000163899
0.00939401
-0.000161309
0.00943368
-0.00015876
0.00947272
-0.000156258
0.00951115
-0.000153806
0.00954898
-0.000151407
0.00958621
-0.000149062
0.00962288
-0.000146774
0.00965899
-0.000144542
0.00969455
-0.000142366
0.00972958
-0.000140246
0.0097641
-0.00013818
0.00979812
-0.000136165
0.00983165
-0.0001342
0.0098647
-0.000132281
0.00989729
-0.000130405
0.00992942
-0.000128566
0.0099611
-0.000126762
0.00999234
-0.000124988
0.0100231
-0.000123237
0.0100535
-0.000121506
0.0100835
-0.000119788
0.010113
-0.000118078
0.0101421
-0.00011637
0.0101708
-0.000114658
0.0101991
-0.000112938
0.0102269
-0.000111202
0.0102543
-0.000109445
0.0102813
-0.000107661
0.0103078
-0.000105846
0.0103338
-0.000103993
0.0103594
-0.000102098
0.0103845
-0.000100155
0.0104091
-9.81598e-05
0.0104332
-9.6108e-05
0.0104568
-9.39954e-05
0.0104798
-9.18179e-05
0.0105023
-8.95721e-05
0.0105241
-8.72548e-05
0.0105454
-8.48628e-05
0.0105661
-8.23938e-05
0.0105862
-7.98453e-05
0.0106055
-7.72154e-05
0.0106242
-7.45026e-05
0.0106423
-7.17055e-05
0.0106595
-6.88232e-05
0.0106761
-6.58551e-05
0.0106919
-6.28008e-05
0.0107069
-5.96604e-05
0.0107211
-5.6434e-05
0.0107344
-5.31222e-05
0.0107469
-4.97258e-05
0.0107586
-4.62458e-05
0.0107693
-4.26835e-05
0.0107791
-3.90404e-05
0.010788
-3.53182e-05
0.010796
-3.15187e-05
0.010803
-2.76441e-05
0.0108089
-2.36965e-05
0.0108139
-1.96783e-05
0.0108179
-1.55919e-05
0.0108208
-1.144e-05
0.0108227
-7.22527e-06
0.0108234
-2.95043e-06
0.0108231
1.38149e-06
0.0108217
5.76766e-06
0.0108192
1.0205e-05
0.0108156
1.46905e-05
0.0108108
1.9221e-05
0.0108049
2.37933e-05
0.0107978
2.84042e-05
0.0107896
3.30505e-05
0.0107801
3.77288e-05
0.0107695
4.24358e-05
0.0107578
4.71682e-05
0.0107448
5.19226e-05
0.0107306
5.66954e-05
0.0107152
6.14831e-05
0.0106987
6.62823e-05
0.0106809
7.10893e-05
0.0106619
7.59004e-05
0.0106417
8.07119e-05
0.0106203
8.552e-05
0.0105977
9.03208e-05
0.0105739
9.51102e-05
0.0105489
9.98842e-05
0.0105227
0.000104639
0.0104953
0.000109369
0.0104667
0.000114072
0.010437
0.000118742
0.0104061
0.000123374
0.010374
0.000127965
0.0103408
0.000132508
0.0103065
0.000137
0.010271
0.000141436
0.0102345
0.000145809
0.0101969
0.000150116
0.0101582
0.00015435
0.0101185
0.000158506
0.0100777
0.000162579
0.010036
0.000166564
0.00999324
0.000170455
0.00994955
0.000174246
0.00990494
0.000177932
0.00985943
0.000181508
0.00981305
0.000184969
0.00976583
0.000188308
0.0097178
0.000191521
0.00966899
0.000194603
0.00961945
0.000197549
0.0095692
0.000200354
0.00951828
0.000203014
0.00946673
0.000205526
0.00941458
0.000207884
0.00936189
0.000210085
0.00930868
0.000212127
0.00925499
0.000214006
0.00920088
0.00021572
0.00914638
0.000217266
0.00909153
0.000218643
0.00903638
0.000219851
0.00898097
0.000220887
0.00892535
0.000221752
0.00886955
0.000222446
0.00881362
0.000222969
0.0087576
0.000223323
0.00870154
0.000223509
0.00864548
0.000223529
0.00858945
0.000223386
0.00853351
0.000223082
0.00847768
0.000222622
0.00842201
0.000222008
0.00836653
0.000221246
0.00831129
0.000220339
0.00825631
0.000219292
0.00820163
0.000218112
0.00814729
0.000216803
0.0080933
0.000215371
0.00803972
0.000213823
0.00798655
0.000212165
0.00793382
0.000210403
0.00788157
0.000208545
0.00782982
0.000206596
0.00777857
0.000204564
0.00772786
0.000202455
0.0076777
0.000200278
0.00762811
0.000198038
0.0075791
0.000195743
0.00753068
0.000193399
0.00748286
0.000191014
0.00743566
0.000188594
0.00738907
0.000186146
0.0073431
0.000183675
0.00729777
0.000181189
0.00725306
0.000178692
0.00720898
0.000176192
0.00716553
0.000173693
0.00712271
0.0001712
0.00708052
0.000168719
0.00703894
0.000166254
0.00699798
0.000163809
0.00695763
0.000161389
0.00691788
0.000158998
0.00687873
0.000156637
0.00684016
0.000154312
0.00680216
0.000152023
0.00676472
0.000149779
0.00672785
0.000147559
0.0066915
0.000145435
0.00665571
0.000143206
0.00662036
0.000141454
0.000138517
0.0062505
-2.51101e-06
0.006252
-7.53452e-06
0.0062545
-1.25646e-05
0.006258
-1.76068e-05
0.00626252
-2.26659e-05
0.00626804
-2.77468e-05
0.00627458
-3.2854e-05
0.00628215
-3.79919e-05
0.00629074
-4.31646e-05
0.00630038
-4.8376e-05
0.00631106
-5.36295e-05
0.0063228
-5.89285e-05
0.00633561
-6.42756e-05
0.00634949
-6.96732e-05
0.00636447
-7.51232e-05
0.00638055
-8.06269e-05
0.00639774
-8.6185e-05
0.00641605
-9.17976e-05
0.0064355
-9.74642e-05
0.0064561
-0.000103184
0.00647786
-0.000108954
0.00650078
-0.000114771
0.00652489
-0.000120633
0.00655018
-0.000126535
0.00657667
-0.000132471
0.00660436
-0.000138435
0.00663326
-0.00014442
0.00666337
-0.000150417
0.0066947
-0.000156418
0.00672723
-0.000162411
0.00676098
-0.000168387
0.00679593
-0.000174333
0.00683209
-0.000180236
0.00686942
-0.000186082
0.00690794
-0.000191858
0.00694761
-0.000197548
0.00698842
-0.000203136
0.00703034
-0.000208607
0.00707335
-0.000213944
0.00711742
-0.00021913
0.00716251
-0.000224149
0.00720859
-0.000228984
0.00725561
-0.000233619
0.00730354
-0.000238038
0.00735232
-0.000242226
0.00740191
-0.000246167
0.00745225
-0.000249849
0.00750329
-0.000253259
0.00755496
-0.000256386
0.00760721
-0.000259219
0.00765997
-0.000261751
0.00771319
-0.000263974
0.00776679
-0.000265883
0.00782071
-0.000267475
0.00787489
-0.000268748
0.00792925
-0.000269702
0.00798374
-0.000270339
0.00803829
-0.000270663
0.00809283
-0.00027068
0.00814731
-0.000270395
0.00820166
-0.000269818
0.00825582
-0.000268958
0.00830974
-0.000267828
0.00836337
-0.000266439
0.00841666
-0.000264805
0.00846955
-0.00026294
0.00852201
-0.000260861
0.00857399
-0.000258581
0.00862546
-0.000256119
0.00867639
-0.00025349
0.00872674
-0.000250711
0.00877648
-0.000247799
0.0088256
-0.000244771
0.00887408
-0.000241644
0.00892189
-0.000238433
0.00896903
-0.000235154
0.00901549
-0.000231822
0.00906125
-0.000228452
0.00910632
-0.000225059
0.00915069
-0.000221653
0.00919437
-0.000218249
0.00923736
-0.000214857
0.00927966
-0.000211488
0.00932128
-0.000208151
0.00936224
-0.000204854
0.00940254
-0.000201605
0.00944219
-0.00019841
0.0094812
-0.000195275
0.0095196
-0.000192204
0.0095574
-0.000189201
0.0095946
-0.000186267
0.00963123
-0.000183405
0.00966731
-0.000180615
0.00970284
-0.000177896
0.00973784
-0.000175248
0.00977233
-0.000172668
0.00980631
-0.000170154
0.00983982
-0.000167703
0.00987285
-0.00016531
0.00990541
-0.000162972
0.00993753
-0.000160681
0.0099692
-0.000158435
0.0100004
-0.000156225
0.0100312
-0.000154046
0.0100616
-0.000151891
0.0100916
-0.000149754
0.0101211
-0.000147626
0.0101503
-0.000145502
0.010179
-0.000143373
0.0102073
-0.000141232
0.0102352
-0.000139072
0.0102626
-0.000136886
0.0102896
-0.000134666
0.0103162
-0.000132406
0.0103423
-0.000130099
0.0103679
-0.000127739
0.0103931
-0.000125318
0.0104177
-0.000122832
0.0104419
-0.000120274
0.0104656
-0.00011764
0.0104887
-0.000114924
0.0105112
-0.000112122
0.0105332
-0.00010923
0.0105546
-0.000106244
0.0105753
-0.000103162
0.0105955
-9.99787e-05
0.010615
-9.66935e-05
0.0106338
-9.33039e-05
0.0106519
-8.98084e-05
0.0106692
-8.62058e-05
0.0106859
-8.24953e-05
0.0107018
-7.86765e-05
0.0107168
-7.47494e-05
0.0107311
-7.07143e-05
0.0107446
-6.65719e-05
0.0107572
-6.23233e-05
0.0107689
-5.79698e-05
0.0107797
-5.3513e-05
0.0107896
-4.89547e-05
0.0107986
-4.42972e-05
0.0108066
-3.95428e-05
0.0108137
-3.4694e-05
0.0108197
-2.97538e-05
0.0108248
-2.4725e-05
0.0108288
-1.96108e-05
0.0108318
-1.44145e-05
0.0108337
-9.13935e-06
0.0108345
-3.78898e-06
0.0108343
1.63294e-06
0.0108329
7.12279e-06
0.0108305
1.26768e-05
0.0108269
1.8291e-05
0.0108221
2.39616e-05
0.0108162
2.96846e-05
0.0108092
3.54559e-05
0.010801
4.12715e-05
0.0107916
4.71273e-05
0.010781
5.3019e-05
0.0107692
5.89425e-05
0.0107562
6.48935e-05
0.0107421
7.08678e-05
0.0107267
7.68608e-05
0.0107101
8.28682e-05
0.0106923
8.88855e-05
0.0106733
9.49081e-05
0.0106531
0.000100931
0.0106316
0.00010695
0.010609
0.00011296
0.0105852
0.000118957
0.0105601
0.000124934
0.0105339
0.000130886
0.0105064
0.000136809
0.0104778
0.000142698
0.010448
0.000148545
0.010417
0.000154346
0.0103849
0.000160095
0.0103516
0.000165785
0.0103172
0.000171411
0.0102817
0.000176966
0.010245
0.000182445
0.0102073
0.000187839
0.0101685
0.000193143
0.0101287
0.00019835
0.0100878
0.000203453
0.0100459
0.000208446
0.0100031
0.000213321
0.00995923
0.000218071
0.00991447
0.00022269
0.00986881
0.000227172
0.00982227
0.000231508
0.00977488
0.000235693
0.00972668
0.000239719
0.0096777
0.000243582
0.00962798
0.000247274
0.00957754
0.00025079
0.00952643
0.000254124
0.00947469
0.000257271
0.00942235
0.000260226
0.00936945
0.000262985
0.00931603
0.000265543
0.00926214
0.000267897
0.00920782
0.000270043
0.0091531
0.00027198
0.00909804
0.000273704
0.00904268
0.000275215
0.00898705
0.000276512
0.00893121
0.000277593
0.0088752
0.000278459
0.00881906
0.000279111
0.00876283
0.000279551
0.00870656
0.00027978
0.00865029
0.0002798
0.00859406
0.000279616
0.00853791
0.00027923
0.00848189
0.000278647
0.00842602
0.000277872
0.00837036
0.000276909
0.00831493
0.000275766
0.00825978
0.000274448
0.00820493
0.000272961
0.00815042
0.000271314
0.00809628
0.000269512
0.00804253
0.000267565
0.00798922
0.000265479
0.00793636
0.000263264
0.00788398
0.000260927
0.0078321
0.000258477
0.00778074
0.000255923
0.00772992
0.000253274
0.00767966
0.000250538
0.00762997
0.000247725
0.00758087
0.000244842
0.00753237
0.000241899
0.00748448
0.000238904
0.00743721
0.000235866
0.00739056
0.000232792
0.00734455
0.000229692
0.00729916
0.000226572
0.00725442
0.000223439
0.0072103
0.000220302