/*--------------------------------*- C++ -*----------------------------------*\
| =========                 |                                                 |
| \\      /  F ield         | OpenFOAM: The Open Source CFD Toolbox           |
|  \\    /   O peration     | Version:  2306                                  |
|   \\  /    A nd           | Website:  www.openfoam.com                      |
|    \\/     M anipulation  |                                                 |
\*---------------------------------------------------------------------------*/
FoamFile
{
    version     2.0;
    format      ascii;
    arch        "LSB;label=32;scalar=64";
    class       volScalarField;
    location    "10.5";
    object      T;
}
// * * * * * * * * * * * * * * * * * * * * * * * * * * * * * * * * * * * * * //

dimensions      [0 0 0 1 0 0 0];

internalField   nonuniform List<scalar> 
32768
(
300
300
300
300
300
300
300
300
300
300
300
300
300
300
300
300
300
300
300
300
300
300
300
300
300
300
300
300
300
300
300
300
300
300
300
300
300
300
300
300
300
300
300
300
300
300
300
300
300
300
300
300
300
300
300
300
300
300
300
300
300
300
300
300
300
300
300
300
300
300
300
300
300
300
300
300
300
300
300
300
300
300
300
300
299.999
299.999
299.999
299.999
299.999
299.999
299.999
299.999
299.998
299.998
299.998
299.998
299.997
299.997
299.997
299.996
299.996
299.995
299.995
299.994
299.994
299.993
299.992
299.991
299.991
299.99
299.989
299.987
299.986
299.985
299.983
299.982
299.98
299.978
299.976
299.974
299.972
299.97
299.967
299.964
299.961
299.958
299.955
299.951
299.947
299.943
299.939
299.934
299.929
299.924
299.918
299.913
299.906
299.9
299.893
299.886
299.878
299.87
299.862
299.853
299.844
299.834
299.824
299.813
299.802
299.79
299.778
299.765
299.752
299.739
299.724
299.709
299.694
299.678
299.662
299.645
299.627
299.609
299.59
299.57
299.55
299.529
299.508
299.486
299.464
299.44
299.417
299.392
299.367
299.342
299.315
299.289
299.261
299.233
299.204
299.175
299.146
299.115
299.084
299.053
299.021
298.988
298.955
298.922
298.888
298.853
298.818
298.782
298.747
298.71
298.673
298.636
298.599
298.561
298.522
298.484
298.444
298.405
298.365
298.325
298.285
298.245
298.204
298.163
298.122
298.08
298.039
297.997
297.955
297.913
297.871
297.828
297.786
297.743
297.7
297.657
297.614
297.571
297.528
297.485
297.442
297.399
297.355
297.312
297.269
297.225
297.181
297.136
297.09
297.042
296.987
296.92
296.826
296.676
296.411
295.905
294.903
292.883
288.777
280.425
263.458
229.09
159.716
20.2033
-259.291
-817.074
-1926
-4122.36
-8456.48
-16977.4
-33671.6
-66251.5
300
300
300
300
300
300
300
300
300
300
300
300
300
300
300
300
300
300
300
300
300
300
300
300
300
300
300
300
300
300
300
300
300
300
300
300
300
300
300
300
300
300
300
300
300
300
300
300
300
300
300
300
300
300
300
300
300
300
300
300
300
300
300
300
300
300
300
300
300
300
300
300
300
300
300
300
300
300
300
300
300
300
300
299.999
299.999
299.999
299.999
299.999
299.999
299.999
299.999
299.998
299.998
299.998
299.998
299.997
299.997
299.997
299.996
299.996
299.995
299.995
299.994
299.994
299.993
299.992
299.992
299.991
299.99
299.989
299.987
299.986
299.985
299.983
299.982
299.98
299.978
299.976
299.974
299.972
299.97
299.967
299.964
299.961
299.958
299.955
299.951
299.947
299.943
299.939
299.934
299.929
299.924
299.918
299.912
299.906
299.9
299.893
299.885
299.878
299.87
299.861
299.852
299.843
299.833
299.823
299.812
299.801
299.79
299.777
299.765
299.752
299.738
299.724
299.709
299.693
299.677
299.661
299.644
299.626
299.608
299.589
299.569
299.549
299.529
299.507
299.486
299.463
299.44
299.416
299.392
299.367
299.341
299.315
299.288
299.261
299.233
299.205
299.176
299.146
299.116
299.085
299.054
299.022
298.99
298.957
298.923
298.89
298.855
298.821
298.785
298.75
298.714
298.677
298.64
298.603
298.565
298.527
298.489
298.45
298.411
298.371
298.332
298.292
298.252
298.211
298.171
298.13
298.089
298.047
298.006
297.964
297.922
297.881
297.838
297.796
297.754
297.711
297.669
297.626
297.584
297.541
297.498
297.455
297.412
297.369
297.326
297.283
297.24
297.196
297.153
297.108
297.063
297.014
296.96
296.893
296.799
296.65
296.384
295.879
294.878
292.858
288.754
280.403
263.439
229.076
159.709
20.2052
-259.282
-817.072
-1926.06
-4122.62
-8457.33
-16979.8
-33677.8
-66266.4
300
300
300
300
300
300
300
300
300
300
300
300
300
300
300
300
300
300
300
300
300
300
300
300
300
300
300
300
300
300
300
300
300
300
300
300
300
300
300
300
300
300
300
300
300
300
300
300
300
300
300
300
300
300
300
300
300
300
300
300
300
300
300
300
300
300
300
300
300
300
300
300
300
300
300
300
300
300
300
300
300
300
299.999
299.999
299.999
299.999
299.999
299.999
299.999
299.999
299.998
299.998
299.998
299.998
299.997
299.997
299.997
299.996
299.996
299.995
299.995
299.994
299.993
299.993
299.992
299.991
299.99
299.989
299.988
299.987
299.985
299.984
299.982
299.981
299.979
299.977
299.975
299.973
299.97
299.967
299.965
299.962
299.959
299.955
299.951
299.948
299.944
299.939
299.934
299.93
299.924
299.919
299.913
299.907
299.9
299.893
299.886
299.878
299.87
299.862
299.853
299.843
299.833
299.823
299.812
299.801
299.79
299.777
299.765
299.751
299.738
299.723
299.708
299.693
299.677
299.66
299.643
299.626
299.607
299.588
299.569
299.549
299.528
299.507
299.485
299.463
299.44
299.416
299.392
299.367
299.341
299.315
299.289
299.262
299.234
299.206
299.177
299.147
299.117
299.087
299.056
299.024
298.992
298.96
298.927
298.893
298.859
298.825
298.79
298.755
298.719
298.683
298.647
298.61
298.573
298.535
298.498
298.459
298.421
298.382
298.343
298.304
298.264
298.224
298.184
298.144
298.104
298.063
298.022
297.981
297.94
297.899
297.857
297.816
297.774
297.732
297.69
297.648
297.606
297.564
297.522
297.48
297.437
297.395
297.352
297.31
297.267
297.225
297.182
297.139
297.096
297.052
297.007
296.959
296.905
296.839
296.745
296.597
296.332
295.828
294.828
292.809
288.708
280.361
263.404
229.053
159.703
20.2219
-259.242
-817.03
-1926.11
-4123.03
-8458.85
-16984.3
-33689.6
-66295.9
300
300
300
300
300
300
300
300
300
300
300
300
300
300
300
300
300
300
300
300
300
300
300
300
300
300
300
300
300
300
300
300
300
300
300
300
300
300
300
300
300
300
300
300
300
300
300
300
300
300
300
300
300
300
300
300
300
300
300
300
300
300
300
300
300
300
300
300
300
300
300
300
300
300
300
300
300
300
300
300
299.999
299.999
299.999
299.999
299.999
299.999
299.999
299.999
299.998
299.998
299.998
299.998
299.997
299.997
299.997
299.996
299.996
299.995
299.995
299.994
299.993
299.992
299.992
299.991
299.99
299.989
299.987
299.986
299.985
299.983
299.982
299.98
299.978
299.976
299.974
299.972
299.969
299.966
299.963
299.96
299.957
299.953
299.95
299.945
299.941
299.937
299.932
299.926
299.921
299.915
299.909
299.902
299.896
299.888
299.881
299.873
299.864
299.855
299.846
299.836
299.826
299.815
299.804
299.792
299.78
299.767
299.754
299.74
299.726
299.711
299.695
299.679
299.663
299.645
299.628
299.609
299.59
299.571
299.551
299.53
299.509
299.487
299.464
299.441
299.418
299.394
299.369
299.343
299.317
299.291
299.264
299.236
299.208
299.179
299.15
299.12
299.09
299.059
299.028
298.996
298.964
298.931
298.898
298.865
298.831
298.797
298.762
298.727
298.691
298.655
298.619
298.582
298.546
298.508
298.471
298.433
298.395
298.357
298.318
298.279
298.24
298.201
298.162
298.122
298.082
298.042
298.002
297.962
297.922
297.881
297.84
297.8
297.759
297.718
297.677
297.636
297.594
297.553
297.512
297.47
297.429
297.387
297.346
297.304
297.262
297.221
297.179
297.137
297.095
297.053
297.011
296.968
296.923
296.876
296.823
296.757
296.665
296.517
296.254
295.75
294.752
292.736
288.639
280.299
263.353
229.019
159.697
20.2526
-259.171
-816.95
-1926.15
-4123.62
-8461.09
-16990.9
-33707.4
-66340
300
300
300
300
300
300
300
300
300
300
300
300
300
300
300
300
300
300
300
300
300
300
300
300
300
300
300
300
300
300
300
300
300
300
300
300
300
300
300
300
300
300
300
300
300
300
300
300
300
300
300
300
300
300
300
300
300
300
300
300
300
300
300
300
300
300
300
300
300
300
300
300
300
300
300
300
300
300
299.999
299.999
299.999
299.999
299.999
299.999
299.999
299.999
299.998
299.998
299.998
299.998
299.997
299.997
299.996
299.996
299.995
299.995
299.994
299.994
299.993
299.992
299.991
299.99
299.989
299.988
299.987
299.985
299.984
299.982
299.981
299.979
299.977
299.974
299.972
299.969
299.967
299.964
299.961
299.957
299.954
299.95
299.946
299.941
299.937
299.932
299.926
299.921
299.915
299.908
299.902
299.895
299.887
299.879
299.871
299.862
299.853
299.843
299.833
299.823
299.812
299.8
299.788
299.775
299.762
299.748
299.734
299.719
299.704
299.688
299.671
299.654
299.636
299.618
299.599
299.579
299.559
299.538
299.517
299.495
299.472
299.449
299.425
299.401
299.376
299.351
299.325
299.298
299.271
299.243
299.215
299.186
299.157
299.127
299.097
299.066
299.035
299.003
298.971
298.939
298.906
298.872
298.839
298.805
298.77
298.735
298.7
298.665
298.629
298.593
298.556
298.52
298.483
298.445
298.408
298.37
298.333
298.295
298.256
298.218
298.179
298.141
298.102
298.063
298.023
297.984
297.945
297.905
297.866
297.826
297.786
297.746
297.706
297.666
297.626
297.586
297.546
297.506
297.465
297.425
297.385
297.344
297.304
297.263
297.223
297.182
297.142
297.101
297.06
297.02
296.979
296.938
296.897
296.855
296.811
296.765
296.713
296.649
296.557
296.411
296.149
295.647
294.651
292.639
288.547
280.216
263.285
228.975
159.688
20.2947
-259.075
-816.841
-1926.21
-4124.39
-8464.06
-16999.8
-33731
-66399
300
300
300
300
300
300
300
300
300
300
300
300
300
300
300
300
300
300
300
300
300
300
300
300
300
300
300
300
300
300
300
300
300
300
300
300
300
300
300
300
300
300
300
300
300
300
300
300
300
300
300
300
300
300
300
300
300
300
300
300
300
300
300
300
300
300
300
300
300
300
300
300
300
300
300
300
299.999
299.999
299.999
299.999
299.999
299.999
299.999
299.998
299.998
299.998
299.998
299.997
299.997
299.997
299.996
299.996
299.995
299.995
299.994
299.993
299.992
299.991
299.99
299.989
299.988
299.987
299.986
299.984
299.983
299.981
299.979
299.977
299.975
299.972
299.969
299.967
299.964
299.96
299.957
299.953
299.949
299.945
299.94
299.935
299.93
299.925
299.919
299.913
299.906
299.899
299.892
299.884
299.875
299.867
299.857
299.848
299.838
299.827
299.816
299.804
299.792
299.779
299.765
299.751
299.737
299.721
299.706
299.689
299.672
299.655
299.636
299.617
299.598
299.578
299.557
299.536
299.513
299.491
299.468
299.444
299.419
299.394
299.368
299.342
299.315
299.288
299.26
299.231
299.202
299.173
299.143
299.112
299.081
299.049
299.017
298.985
298.952
298.919
298.885
298.851
298.817
298.782
298.747
298.712
298.677
298.641
298.605
298.568
298.532
298.495
298.458
298.42
298.383
298.346
298.308
298.27
298.232
298.194
298.156
298.117
298.079
298.041
298.002
297.963
297.925
297.886
297.847
297.809
297.77
297.731
297.692
297.653
297.614
297.575
297.536
297.497
297.458
297.419
297.38
297.341
297.302
297.263
297.224
297.185
297.146
297.107
297.068
297.029
296.989
296.95
296.911
296.872
296.832
296.793
296.753
296.712
296.67
296.626
296.575
296.512
296.422
296.277
296.017
295.517
294.524
292.516
288.431
280.111
263.199
228.918
159.677
20.3454
-258.958
-816.71
-1926.29
-4125.37
-8467.81
-17011
-33760.8
-66472.9
300
300
300
300
300
300
300
300
300
300
300
300
300
300
300
300
300
300
300
300
300
300
300
300
300
300
300
300
300
300
300
300
300
300
300
300
300
300
300
300
300
300
300
300
300
300
300
300
300
300
300
300
300
300
300
300
300
300
300
300
300
300
300
300
300
300
300
300
300
300
300
300
300
300
299.999
299.999
299.999
299.999
299.999
299.999
299.999
299.998
299.998
299.998
299.998
299.997
299.997
299.996
299.996
299.995
299.995
299.994
299.993
299.993
299.992
299.991
299.99
299.989
299.987
299.986
299.984
299.983
299.981
299.979
299.977
299.974
299.972
299.969
299.966
299.963
299.96
299.956
299.952
299.948
299.944
299.939
299.934
299.928
299.922
299.916
299.91
299.903
299.895
299.887
299.879
299.87
299.861
299.851
299.84
299.83
299.818
299.806
299.793
299.78
299.766
299.752
299.737
299.721
299.705
299.687
299.67
299.651
299.632
299.612
299.592
299.571
299.549
299.526
299.503
299.479
299.455
299.43
299.404
299.377
299.35
299.322
299.294
299.265
299.236
299.206
299.175
299.144
299.112
299.08
299.047
299.014
298.98
298.946
298.912
298.877
298.842
298.806
298.77
298.734
298.698
298.661
298.624
298.587
298.55
298.512
298.474
298.436
298.398
298.36
298.322
298.284
298.246
298.207
298.169
298.13
298.092
298.053
298.015
297.976
297.938
297.899
297.861
297.823
297.784
297.746
297.708
297.67
297.632
297.594
297.556
297.518
297.48
297.442
297.404
297.367
297.329
297.291
297.254
297.216
297.179
297.141
297.104
297.066
297.029
296.992
296.954
296.917
296.88
296.842
296.805
296.767
296.73
296.692
296.655
296.617
296.579
296.54
296.5
296.457
296.408
296.346
296.258
296.115
295.857
295.36
294.371
292.368
288.291
279.985
263.094
228.848
159.661
20.4014
-258.826
-816.567
-1926.41
-4126.6
-8472.4
-17024.5
-33796.7
-66561.9
300
300
300
300
300
300
300
300
300
300
300
300
300
300
300
300
300
300
300
300
300
300
300
300
300
300
300
300
300
300
300
300
300
300
300
300
300
300
300
300
300
300
300
300
300
300
300
300
300
300
300
300
300
300
300
300
300
300
300
300
300
300
300
300
300
300
300
300
300
300
300
300
299.999
299.999
299.999
299.999
299.999
299.999
299.999
299.998
299.998
299.998
299.997
299.997
299.997
299.996
299.996
299.995
299.994
299.994
299.993
299.992
299.991
299.99
299.989
299.988
299.986
299.985
299.983
299.981
299.979
299.977
299.974
299.972
299.969
299.966
299.963
299.959
299.955
299.951
299.947
299.942
299.937
299.932
299.926
299.92
299.913
299.906
299.899
299.891
299.882
299.873
299.864
299.854
299.843
299.832
299.82
299.808
299.795
299.781
299.767
299.752
299.736
299.72
299.702
299.684
299.666
299.646
299.626
299.605
299.584
299.561
299.538
299.514
299.489
299.464
299.438
299.411
299.383
299.355
299.325
299.296
299.265
299.234
299.202
299.17
299.137
299.103
299.069
299.034
298.999
298.964
298.927
298.891
298.854
298.817
298.779
298.741
298.702
298.664
298.625
298.586
298.546
298.507
298.467
298.428
298.388
298.348
298.308
298.268
298.228
298.188
298.148
298.108
298.068
298.028
297.988
297.949
297.909
297.87
297.831
297.792
297.753
297.714
297.676
297.637
297.599
297.561
297.523
297.486
297.448
297.411
297.374
297.337
297.3
297.263
297.227
297.191
297.155
297.118
297.083
297.047
297.011
296.975
296.94
296.904
296.869
296.834
296.798
296.763
296.728
296.693
296.658
296.622
296.587
296.552
296.517
296.481
296.446
296.41
296.374
296.337
296.299
296.258
296.211
296.152
296.066
295.925
295.67
295.176
294.19
292.194
288.126
279.835
262.969
228.764
159.636
20.4589
-258.686
-816.423
-1926.59
-4128.1
-8477.86
-17040.6
-33838.9
-66666.4
300
300
300
300
300
300
300
300
300
300
300
300
300
300
300
300
300
300
300
300
300
300
300
300
300
300
300
300
300
300
300
300
300
300
300
300
300
300
300
300
300
300
300
300
300
300
300
300
300
300
300
300
300
300
300
300
300
300
300
300
300
300
300
300
300
300
300
300
300
300
299.999
299.999
299.999
299.999
299.999
299.999
299.999
299.998
299.998
299.998
299.997
299.997
299.996
299.996
299.995
299.995
299.994
299.993
299.992
299.991
299.99
299.989
299.988
299.986
299.985
299.983
299.981
299.979
299.977
299.975
299.972
299.969
299.966
299.962
299.959
299.955
299.951
299.946
299.941
299.936
299.93
299.924
299.917
299.91
299.903
299.895
299.886
299.877
299.868
299.858
299.847
299.835
299.823
299.811
299.797
299.783
299.768
299.752
299.736
299.719
299.701
299.682
299.662
299.642
299.62
299.598
299.575
299.551
299.526
299.501
299.474
299.447
299.419
299.39
299.36
299.329
299.297
299.265
299.232
299.198
299.163
299.128
299.092
299.055
299.018
298.98
298.942
298.903
298.863
298.823
298.783
298.742
298.701
298.659
298.617
298.575
298.533
298.49
298.447
298.404
298.361
298.318
298.275
298.232
298.189
298.146
298.103
298.06
298.017
297.974
297.932
297.89
297.848
297.806
297.764
297.723
297.682
297.641
297.601
297.561
297.521
297.482
297.443
297.404
297.366
297.328
297.29
297.253
297.216
297.179
297.143
297.107
297.071
297.036
297.001
296.966
296.931
296.897
296.863
296.829
296.795
296.762
296.728
296.695
296.662
296.629
296.596
296.563
296.531
296.498
296.465
296.433
296.4
296.368
296.335
296.302
296.27
296.237
296.204
296.171
296.138
296.103
296.068
296.029
295.985
295.928
295.845
295.706
295.454
294.963
293.983
291.993
287.936
279.662
262.824
228.663
159.602
20.5137
-258.543
-816.29
-1926.85
-4129.91
-8484.26
-17059.1
-33887.6
-66786.6
300
300
300
300
300
300
300
300
300
300
300
300
300
300
300
300
300
300
300
300
300
300
300
300
300
300
300
300
300
300
300
300
300
300
300
300
300
300
300
300
300
300
300
300
300
300
300
300
300
300
300
300
300
300
300
300
300
300
300
300
300
300
300
300
300
300
300
300
299.999
299.999
299.999
299.999
299.999
299.999
299.999
299.998
299.998
299.998
299.997
299.997
299.996
299.996
299.995
299.994
299.994
299.993
299.992
299.991
299.99
299.988
299.987
299.985
299.984
299.982
299.98
299.977
299.975
299.972
299.969
299.966
299.962
299.959
299.954
299.95
299.945
299.94
299.934
299.928
299.922
299.915
299.908
299.9
299.891
299.882
299.873
299.862
299.851
299.84
299.827
299.814
299.801
299.786
299.771
299.755
299.737
299.72
299.701
299.681
299.66
299.639
299.616
299.593
299.568
299.543
299.516
299.489
299.46
299.431
299.4
299.369
299.336
299.303
299.269
299.233
299.197
299.16
299.122
299.083
299.044
299.004
298.962
298.921
298.878
298.835
298.791
298.747
298.702
298.657
298.611
298.565
298.518
298.472
298.425
298.377
298.33
298.282
298.235
298.187
298.139
298.092
298.044
297.997
297.949
297.902
297.855
297.809
297.762
297.716
297.671
297.626
297.581
297.536
297.492
297.449
297.406
297.363
297.321
297.28
297.239
297.198
297.158
297.119
297.08
297.042
297.004
296.967
296.93
296.894
296.859
296.824
296.789
296.755
296.721
296.687
296.655
296.622
296.59
296.558
296.526
296.495
296.464
296.434
296.403
296.373
296.343
296.313
296.283
296.253
296.224
296.194
296.165
296.136
296.106
296.077
296.047
296.018
295.988
295.959
295.929
295.899
295.868
295.837
295.804
295.769
295.727
295.673
295.593
295.458
295.208
294.722
293.747
291.764
287.719
279.464
262.657
228.544
159.555
20.561
-258.408
-816.183
-1927.22
-4132.06
-8491.68
-17080.4
-33943.1
-66923
300
300
300
300
300
300
300
300
300
300
300
300
300
300
300
300
300
300
300
300
300
300
300
300
300
300
300
300
300
300
300
300
300
300
300
300
300
300
300
300
300
300
300
300
300
300
300
300
300
300
300
300
300
300
300
300
300
300
300
300
300
300
300
300
300
300
299.999
299.999
299.999
299.999
299.999
299.999
299.999
299.998
299.998
299.998
299.997
299.997
299.996
299.996
299.995
299.994
299.993
299.992
299.991
299.99
299.989
299.988
299.986
299.984
299.982
299.98
299.978
299.975
299.972
299.969
299.966
299.963
299.959
299.954
299.95
299.945
299.939
299.933
299.927
299.92
299.913
299.905
299.897
299.888
299.878
299.868
299.857
299.846
299.833
299.82
299.806
299.791
299.775
299.759
299.741
299.723
299.703
299.683
299.661
299.638
299.615
299.59
299.564
299.537
299.509
299.479
299.449
299.417
299.384
299.351
299.315
299.279
299.242
299.203
299.164
299.123
299.082
299.039
298.995
298.951
298.905
298.859
298.812
298.764
298.715
298.666
298.615
298.565
298.514
298.462
298.41
298.357
298.305
298.252
298.198
298.145
298.091
298.038
297.984
297.931
297.877
297.824
297.771
297.719
297.666
297.614
297.562
297.511
297.46
297.41
297.361
297.311
297.263
297.215
297.168
297.122
297.076
297.031
296.987
296.943
296.9
296.858
296.817
296.777
296.737
296.698
296.66
296.623
296.586
296.551
296.515
296.481
296.447
296.414
296.382
296.35
296.319
296.288
296.258
296.229
296.2
296.171
296.143
296.115
296.087
296.06
296.033
296.007
295.98
295.954
295.928
295.902
295.877
295.851
295.825
295.8
295.774
295.748
295.723
295.697
295.671
295.645
295.619
295.592
295.565
295.538
295.508
295.476
295.438
295.387
295.31
295.178
294.933
294.451
293.482
291.508
287.475
279.241
262.466
228.404
159.491
20.5953
-258.288
-816.116
-1927.72
-4134.62
-8500.2
-17104.5
-34005.5
-67075.9
300
300
300
300
300
300
300
300
300
300
300
300
300
300
300
300
300
300
300
300
300
300
300
300
300
300
300
300
300
300
300
300
300
300
300
300
300
300
300
300
300
300
300
300
300
300
300
300
300
300
300
300
300
300
300
300
300
300
300
300
300
300
300
300
300
299.999
299.999
299.999
299.999
299.999
299.999
299.998
299.998
299.998
299.997
299.997
299.996
299.995
299.995
299.994
299.993
299.992
299.991
299.99
299.988
299.987
299.985
299.983
299.981
299.979
299.976
299.973
299.97
299.967
299.963
299.959
299.955
299.95
299.945
299.939
299.933
299.927
299.919
299.912
299.904
299.895
299.885
299.875
299.864
299.853
299.84
299.827
299.813
299.798
299.782
299.765
299.747
299.728
299.708
299.687
299.665
299.641
299.617
299.591
299.563
299.535
299.505
299.474
299.442
299.408
299.373
299.336
299.299
299.259
299.219
299.177
299.134
299.09
299.044
298.997
298.949
298.9
298.849
298.798
298.746
298.692
298.638
298.582
298.526
298.47
298.412
298.354
298.295
298.236
298.176
298.116
298.056
297.995
297.935
297.874
297.813
297.752
297.692
297.631
297.571
297.511
297.452
297.393
297.334
297.276
297.218
297.162
297.105
297.05
296.995
296.942
296.889
296.837
296.786
296.736
296.686
296.638
296.591
296.545
296.5
296.456
296.413
296.371
296.33
296.291
296.252
296.214
296.177
296.142
296.107
296.073
296.041
296.009
295.978
295.948
295.918
295.89
295.862
295.835
295.809
295.783
295.758
295.733
295.709
295.685
295.662
295.639
295.617
295.595
295.573
295.551
295.529
295.508
295.487
295.466
295.444
295.423
295.402
295.381
295.36
295.338
295.317
295.295
295.273
295.25
295.228
295.204
295.178
295.15
295.116
295.069
294.996
294.868
294.627
294.151
293.187
291.222
287.203
278.991
262.25
228.242
159.408
20.6107
-258.194
-816.109
-1928.38
-4137.62
-8509.9
-17131.6
-34075.2
-67245.9
300
300
300
300
300
300
300
300
300
300
300
300
300
300
300
300
300
300
300
300
300
300
300
300
300
300
300
300
300
300
300
300
300
300
300
300
300
300
300
300
300
300
300
300
300
300
300
300
300
300
300
300
300
300
300
300
300
300
300
300
300
300
300
299.999
299.999
299.999
299.999
299.999
299.999
299.998
299.998
299.998
299.997
299.997
299.996
299.995
299.995
299.994
299.993
299.992
299.991
299.989
299.988
299.986
299.984
299.982
299.98
299.977
299.974
299.971
299.968
299.964
299.96
299.955
299.951
299.945
299.94
299.933
299.926
299.919
299.911
299.903
299.893
299.884
299.873
299.861
299.849
299.836
299.822
299.807
299.791
299.774
299.756
299.737
299.716
299.695
299.672
299.648
299.622
299.595
299.567
299.537
299.506
299.474
299.439
299.404
299.366
299.328
299.287
299.245
299.202
299.156
299.11
299.061
299.012
298.96
298.908
298.854
298.798
298.741
298.683
298.623
298.563
298.501
298.438
298.375
298.31
298.244
298.178
298.111
298.043
297.975
297.907
297.838
297.769
297.699
297.63
297.56
297.491
297.422
297.352
297.284
297.215
297.148
297.08
297.014
296.947
296.882
296.818
296.754
296.692
296.63
296.569
296.51
296.452
296.395
296.339
296.284
296.231
296.179
296.128
296.079
296.031
295.984
295.939
295.895
295.852
295.811
295.772
295.733
295.696
295.661
295.626
295.593
295.561
295.53
295.501
295.472
295.445
295.419
295.394
295.369
295.346
295.323
295.302
295.281
295.26
295.241
295.222
295.203
295.185
295.168
295.15
295.133
295.117
295.101
295.084
295.068
295.053
295.037
295.021
295.005
294.989
294.973
294.957
294.94
294.924
294.907
294.89
294.872
294.854
294.835
294.814
294.79
294.76
294.717
294.649
294.526
294.289
293.818
292.862
290.907
286.903
278.712
262.008
228.056
159.301
20.6005
-258.137
-816.181
-1929.24
-4141.14
-8520.9
-17161.9
-34152.4
-67433.6
300
300
300
300
300
300
300
300
300
300
300
300
300
300
300
300
300
300
300
300
300
300
300
300
300
300
300
300
300
300
300
300
300
300
300
300
300
300
300
300
300
300
300
300
300
300
300
300
300
300
300
300
300
300
300
300
300
300
300
300
300
299.999
299.999
299.999
299.999
299.999
299.999
299.998
299.998
299.998
299.997
299.997
299.996
299.995
299.995
299.994
299.993
299.991
299.99
299.989
299.987
299.985
299.983
299.981
299.978
299.976
299.972
299.969
299.965
299.961
299.957
299.952
299.946
299.94
299.934
299.927
299.92
299.911
299.902
299.893
299.883
299.871
299.86
299.847
299.833
299.818
299.802
299.785
299.767
299.748
299.727
299.706
299.683
299.658
299.632
299.604
299.575
299.545
299.512
299.478
299.443
299.405
299.366
299.325
299.282
299.238
299.191
299.143
299.093
299.041
298.987
298.931
298.874
298.815
298.754
298.691
298.627
298.561
298.494
298.425
298.355
298.284
298.211
298.137
298.062
297.987
297.91
297.833
297.755
297.676
297.597
297.518
297.438
297.358
297.278
297.199
297.119
297.04
296.961
296.882
296.804
296.727
296.651
296.575
296.5
296.426
296.354
296.282
296.212
296.143
296.075
296.009
295.944
295.881
295.819
295.759
295.701
295.644
295.589
295.535
295.484
295.434
295.386
295.34
295.295
295.252
295.211
295.172
295.134
295.098
295.064
295.031
295
294.971
294.943
294.916
294.891
294.867
294.844
294.823
294.803
294.784
294.766
294.749
294.733
294.718
294.704
294.69
294.678
294.665
294.654
294.642
294.631
294.621
294.611
294.601
294.591
294.581
294.572
294.562
294.552
294.542
294.533
294.522
294.512
294.502
294.491
294.48
294.468
294.456
294.443
294.429
294.413
294.395
294.369
294.332
294.268
294.15
293.919
293.454
292.506
290.561
286.572
278.405
261.737
227.841
159.166
20.5571
-258.132
-816.354
-1930.34
-4145.24
-8533.32
-17195.5
-34237.6
-67639.5
300
300
300
300
300
300
300
300
300
300
300
300
300
300
300
300
300
300
300
300
300
300
300
300
300
300
300
300
300
300
300
300
300
300
300
300
300
300
300
300
300
300
300
300
300
300
300
300
300
300
300
300
300
300
300
300
300
300
300
300
299.999
299.999
299.999
299.999
299.999
299.998
299.998
299.998
299.997
299.997
299.996
299.995
299.994
299.994
299.992
299.991
299.99
299.988
299.987
299.985
299.982
299.98
299.977
299.974
299.971
299.967
299.963
299.958
299.953
299.948
299.942
299.935
299.928
299.921
299.912
299.903
299.893
299.883
299.871
299.859
299.845
299.831
299.815
299.799
299.781
299.762
299.741
299.72
299.696
299.672
299.646
299.618
299.588
299.557
299.524
299.489
299.452
299.413
299.373
299.33
299.285
299.238
299.189
299.138
299.084
299.029
298.971
298.911
298.849
298.785
298.719
298.65
298.58
298.508
298.434
298.358
298.28
298.2
298.119
298.037
297.953
297.867
297.781
297.693
297.605
297.515
297.425
297.334
297.243
297.151
297.059
296.967
296.876
296.784
296.692
296.601
296.511
296.421
296.331
296.243
296.156
296.069
295.984
295.901
295.818
295.737
295.658
295.58
295.504
295.43
295.357
295.287
295.218
295.152
295.087
295.025
294.964
294.906
294.85
294.797
294.745
294.696
294.648
294.603
294.561
294.52
294.481
294.445
294.411
294.378
294.348
294.319
294.293
294.268
294.245
294.224
294.205
294.187
294.171
294.156
294.142
294.13
294.119
294.109
294.1
294.092
294.085
294.079
294.073
294.068
294.064
294.06
294.057
294.054
294.051
294.049
294.046
294.044
294.042
294.039
294.037
294.034
294.031
294.028
294.025
294.021
294.016
294.012
294.006
294
293.993
293.986
293.976
293.963
293.943
293.911
293.853
293.74
293.516
293.058
292.117
290.183
286.21
278.067
261.437
227.596
158.997
20.4725
-258.191
-816.654
-1931.72
-4150
-8547.28
-17232.8
-34331.2
-67864.4
300
300
300
300
300
300
300
300
300
300
300
300
300
300
300
300
300
300
300
300
300
300
300
300
300
300
300
300
300
300
300
300
300
300
300
300
300
300
300
300
300
300
300
300
300
300
300
300
300
300
300
300
300
300
300
300
300
300
299.999
299.999
299.999
299.999
299.999
299.998
299.998
299.998
299.997
299.997
299.996
299.995
299.995
299.994
299.992
299.991
299.99
299.988
299.986
299.984
299.982
299.979
299.976
299.973
299.969
299.965
299.961
299.956
299.95
299.944
299.938
299.93
299.923
299.914
299.905
299.895
299.884
299.872
299.859
299.845
299.83
299.814
299.797
299.778
299.758
299.736
299.714
299.689
299.663
299.635
299.605
299.574
299.541
299.505
299.468
299.428
299.386
299.342
299.296
299.247
299.195
299.142
299.086
299.027
298.966
298.902
298.836
298.767
298.695
298.622
298.545
298.467
298.385
298.302
298.216
298.128
298.038
297.947
297.853
297.757
297.66
297.561
297.461
297.36
297.257
297.154
297.05
296.945
296.839
296.733
296.627
296.521
296.415
296.309
296.204
296.099
295.995
295.891
295.789
295.688
295.588
295.489
295.392
295.297
295.203
295.111
295.021
294.933
294.847
294.763
294.682
294.603
294.526
294.452
294.38
294.311
294.244
294.181
294.119
294.061
294.005
293.952
293.902
293.854
293.809
293.766
293.727
293.689
293.655
293.623
293.593
293.566
293.541
293.518
293.498
293.48
293.464
293.449
293.437
293.427
293.418
293.411
293.405
293.401
293.399
293.397
293.397
293.398
293.399
293.402
293.405
293.409
293.414
293.419
293.424
293.43
293.436
293.442
293.449
293.455
293.461
293.467
293.473
293.478
293.483
293.488
293.492
293.496
293.499
293.501
293.503
293.504
293.504
293.503
293.5
293.493
293.48
293.454
293.402
293.296
293.078
292.627
291.696
289.773
285.816
277.697
261.103
227.317
158.79
20.3375
-258.33
-817.108
-1933.43
-4155.49
-8562.93
-17273.9
-34433.5
-68109.2
300
300
300
300
300
300
300
300
300
300
300
300
300
300
300
300
300
300
300
300
300
300
300
300
300
300
300
300
300
300
300
300
300
300
300
300
300
300
300
300
300
300
300
300
300
300
300
300
300
300
300
300
300
300
300
300
300
299.999
299.999
299.999
299.999
299.999
299.998
299.998
299.997
299.997
299.996
299.995
299.995
299.994
299.992
299.991
299.99
299.988
299.986
299.984
299.981
299.978
299.975
299.972
299.968
299.963
299.958
299.953
299.947
299.941
299.933
299.925
299.917
299.907
299.897
299.886
299.874
299.861
299.846
299.831
299.814
299.796
299.777
299.756
299.733
299.709
299.684
299.656
299.627
299.596
299.562
299.527
299.489
299.449
299.406
299.361
299.314
299.264
299.211
299.155
299.097
299.036
298.972
298.905
298.835
298.762
298.686
298.607
298.525
298.44
298.352
298.261
298.168
298.072
297.973
297.871
297.768
297.661
297.553
297.443
297.33
297.216
297.1
296.983
296.864
296.745
296.624
296.503
296.381
296.258
296.136
296.013
295.891
295.768
295.647
295.526
295.406
295.287
295.169
295.053
294.938
294.825
294.714
294.605
294.498