/*--------------------------------*- C++ -*----------------------------------*\
| =========                 |                                                 |
| \\      /  F ield         | OpenFOAM: The Open Source CFD Toolbox           |
|  \\    /   O peration     | Version:  2306                                  |
|   \\  /    A nd           | Website:  www.openfoam.com                      |
|    \\/     M anipulation  |                                                 |
\*---------------------------------------------------------------------------*/
FoamFile
{
    version     2.0;
    format      ascii;
    arch        "LSB;label=32;scalar=64";
    class       volVectorField;
    location    "10.5";
    object      U;
}
// * * * * * * * * * * * * * * * * * * * * * * * * * * * * * * * * * * * * * //

dimensions      [0 1 -1 0 0 0 0];

internalField   nonuniform List<vector> 
32768
(
(1.00001 -4.01935e-05 0)
(1.00017 -0.000120789 0)
(1.00048 -0.00020154 0)
(1.00097 -0.000282448 0)
(1.00161 -0.000363618 0)
(1.00242 -0.000445144 0)
(1.0034 -0.000527091 0)
(1.00453 -0.000609513 0)
(1.00583 -0.000692472 0)
(1.0073 -0.000776026 0)
(1.00894 -0.000860231 0)
(1.01074 -0.000945136 0)
(1.01272 -0.00103078 0)
(1.01487 -0.0011172 0)
(1.01719 -0.00120442 0)
(1.01969 -0.00129246 0)
(1.02236 -0.00138133 0)
(1.02521 -0.00147102 0)
(1.02824 -0.00156154 0)
(1.03146 -0.00165284 0)
(1.03486 -0.0017449 0)
(1.03844 -0.00183767 0)
(1.04221 -0.00193109 0)
(1.04616 -0.00202509 0)
(1.05031 -0.00211958 0)
(1.05464 -0.00221445 0)
(1.05917 -0.00230959 0)
(1.06388 -0.00240486 0)
(1.06879 -0.00250013 0)
(1.07388 -0.00259523 0)
(1.07917 -0.00268998 0)
(1.08465 -0.0027842 0)
(1.09031 -0.00287769 0)
(1.09616 -0.00297022 0)
(1.10219 -0.00306158 0)
(1.10841 -0.00315154 0)
(1.1148 -0.00323984 0)
(1.12137 -0.00332624 0)
(1.12811 -0.0034105 0)
(1.13501 -0.00349234 0)
(1.14208 -0.00357151 0)
(1.1493 -0.00364777 0)
(1.15667 -0.00372085 0)
(1.16419 -0.00379052 0)
(1.17184 -0.00385654 0)
(1.17962 -0.00391868 0)
(1.18752 -0.00397675 0)
(1.19553 -0.00403055 0)
(1.20365 -0.00407991 0)
(1.21185 -0.00412467 0)
(1.22015 -0.00416472 0)
(1.22852 -0.00419993 0)
(1.23695 -0.00423024 0)
(1.24544 -0.0042556 0)
(1.25398 -0.00427597 0)
(1.26255 -0.00429136 0)
(1.27115 -0.00430179 0)
(1.27977 -0.00430733 0)
(1.28839 -0.00430805 0)
(1.297 -0.00430406 0)
(1.30561 -0.0042955 0)
(1.31419 -0.0042825 0)
(1.32274 -0.00426525 0)
(1.33125 -0.00424393 0)
(1.33972 -0.00421876 0)
(1.34813 -0.00418995 0)
(1.35648 -0.00415774 0)
(1.36477 -0.00412237 0)
(1.37298 -0.0040841 0)
(1.38111 -0.00404317 0)
(1.38915 -0.00399986 0)
(1.39711 -0.00395441 0)
(1.40497 -0.0039071 0)
(1.41274 -0.00385816 0)
(1.42041 -0.00380787 0)
(1.42797 -0.00375645 0)
(1.43543 -0.00370415 0)
(1.44279 -0.00365119 0)
(1.45004 -0.0035978 0)
(1.45718 -0.00354417 0)
(1.46421 -0.0034905 0)
(1.47114 -0.00343696 0)
(1.47796 -0.00338372 0)
(1.48468 -0.00333093 0)
(1.49129 -0.00327872 0)
(1.49779 -0.00322721 0)
(1.50419 -0.0031765 0)
(1.5105 -0.00312667 0)
(1.5167 -0.00307781 0)
(1.52281 -0.00302995 0)
(1.52882 -0.00298316 0)
(1.53474 -0.00293744 0)
(1.54057 -0.00289281 0)
(1.54631 -0.00284927 0)
(1.55196 -0.00280681 0)
(1.55753 -0.0027654 0)
(1.56302 -0.00272499 0)
(1.56843 -0.00268553 0)
(1.57376 -0.00264698 0)
(1.57902 -0.00260925 0)
(1.5842 -0.00257227 0)
(1.58931 -0.00253595 0)
(1.59434 -0.0025002 0)
(1.59931 -0.00246492 0)
(1.6042 -0.00243002 0)
(1.60902 -0.00239537 0)
(1.61378 -0.00236088 0)
(1.61847 -0.00232643 0)
(1.62309 -0.0022919 0)
(1.62763 -0.00225719 0)
(1.63211 -0.00222218 0)
(1.63652 -0.00218676 0)
(1.64086 -0.00215081 0)
(1.64513 -0.00211423 0)
(1.64932 -0.00207692 0)
(1.65343 -0.00203876 0)
(1.65747 -0.00199967 0)
(1.66143 -0.00195955 0)
(1.66531 -0.00191831 0)
(1.66911 -0.00187586 0)
(1.67282 -0.00183214 0)
(1.67644 -0.00178708 0)
(1.67996 -0.00174059 0)
(1.6834 -0.00169264 0)
(1.68674 -0.00164316 0)
(1.68997 -0.00159211 0)
(1.69311 -0.00153945 0)
(1.69613 -0.00148516 0)
(1.69905 -0.00142919 0)
(1.70185 -0.00137154 0)
(1.70453 -0.00131219 0)
(1.7071 -0.00125114 0)
(1.70954 -0.00118837 0)
(1.71185 -0.00112391 0)
(1.71404 -0.00105775 0)
(1.71608 -0.000989912 0)
(1.718 -0.000920418 0)
(1.71977 -0.00084929 0)
(1.72139 -0.000776557 0)
(1.72287 -0.000702254 0)
(1.7242 -0.000626416 0)
(1.72538 -0.000549083 0)
(1.7264 -0.0004703 0)
(1.72726 -0.000390112 0)
(1.72796 -0.000308568 0)
(1.7285 -0.00022572 0)
(1.72886 -0.00014162 0)
(1.72906 -5.63243e-05 0)
(1.72909 3.01101e-05 0)
(1.72894 0.000117623 0)
(1.72862 0.000206156 0)
(1.72812 0.000295648 0)
(1.72744 0.000386038 0)
(1.72657 0.000477261 0)
(1.72553 0.000569254 0)
(1.7243 0.000661951 0)
(1.72288 0.000755287 0)
(1.72127 0.000849195 0)
(1.71948 0.000943607 0)
(1.7175 0.00103846 0)
(1.71533 0.00113367 0)
(1.71296 0.00122918 0)
(1.71041 0.00132492 0)
(1.70766 0.00142081 0)
(1.70472 0.00151678 0)
(1.70159 0.00161275 0)
(1.69827 0.00170865 0)
(1.69476 0.0018044 0)
(1.69105 0.00189992 0)
(1.68716 0.00199513 0)
(1.68307 0.00208994 0)
(1.6788 0.00218427 0)
(1.67433 0.00227802 0)
(1.66968 0.00237112 0)
(1.66484 0.00246347 0)
(1.65982 0.00255498 0)
(1.65462 0.00264554 0)
(1.64924 0.00273507 0)
(1.64368 0.00282346 0)
(1.63794 0.0029106 0)
(1.63204 0.0029964 0)
(1.62596 0.00308076 0)
(1.61971 0.00316355 0)
(1.6133 0.00324469 0)
(1.60673 0.00332405 0)
(1.6 0.00340154 0)
(1.59312 0.00347703 0)
(1.58609 0.00355044 0)
(1.57891 0.00362163 0)
(1.5716 0.00369053 0)
(1.56415 0.003757 0)
(1.55657 0.00382097 0)
(1.54886 0.00388232 0)
(1.54103 0.00394097 0)
(1.53309 0.00399682 0)
(1.52504 0.00404978 0)
(1.51689 0.00409978 0)
(1.50864 0.00414673 0)
(1.5003 0.00419057 0)
(1.49187 0.00423124 0)
(1.48337 0.00426867 0)
(1.47479 0.00430283 0)
(1.46615 0.00433366 0)
(1.45745 0.00436113 0)
(1.4487 0.00438523 0)
(1.43991 0.00440594 0)
(1.43108 0.00442324 0)
(1.42221 0.00443715 0)
(1.41332 0.00444768 0)
(1.40442 0.00445485 0)
(1.3955 0.00445868 0)
(1.38658 0.00445923 0)
(1.37766 0.00445653 0)
(1.36875 0.00445065 0)
(1.35985 0.00444166 0)
(1.35098 0.00442962 0)
(1.34213 0.00441463 0)
(1.33331 0.00439678 0)
(1.32454 0.00437615 0)
(1.31581 0.00435286 0)
(1.30712 0.00432702 0)
(1.29849 0.00429874 0)
(1.28992 0.00426814 0)
(1.28142 0.00423535 0)
(1.27298 0.0042005 0)
(1.26461 0.00416371 0)
(1.25632 0.00412513 0)
(1.24811 0.00408489 0)
(1.23998 0.00404313 0)
(1.23194 0.00399998 0)
(1.22398 0.00395559 0)
(1.21611 0.00391009 0)
(1.20834 0.00386361 0)
(1.20066 0.0038163 0)
(1.19307 0.00376828 0)
(1.18558 0.00371968 0)
(1.17819 0.00367063 0)
(1.1709 0.00362126 0)
(1.1637 0.00357167 0)
(1.15661 0.00352199 0)
(1.14962 0.00347232 0)
(1.14272 0.00342276 0)
(1.13592 0.00337342 0)
(1.12923 0.00332438 0)
(1.12263 0.00327574 0)
(1.11612 0.00322758 0)
(1.10972 0.00317994 0)
(1.1034 0.00313295 0)
(1.09719 0.00308657 0)
(1.09104 0.00304105 0)
(1.08505 0.00299599 0)
(1.079 0.00295231 0)
(1.07338 0.00290832 0)
(1.06703 0.00286631 0)
(1.06266 0.002825 0)
(1.05357 0.0027744 0)
(1.00001 -0.000120756 0)
(1.00017 -0.000362589 0)
(1.00048 -0.000604802 0)
(1.00097 -0.000847524 0)
(1.00161 -0.00109103 0)
(1.00242 -0.00133558 0)
(1.00339 -0.00158137 0)
(1.00453 -0.00182859 0)
(1.00583 -0.00207743 0)
(1.0073 -0.00232806 0)
(1.00893 -0.00258064 0)
(1.01074 -0.00283534 0)
(1.01271 -0.00309225 0)
(1.01486 -0.0033515 0)
(1.01718 -0.00361317 0)
(1.01967 -0.0038773 0)
(1.02235 -0.00414392 0)
(1.0252 -0.00441303 0)
(1.02823 -0.0046846 0)
(1.03144 -0.00495856 0)
(1.03484 -0.00523481 0)
(1.03842 -0.0055132 0)
(1.04219 -0.00579355 0)
(1.04614 -0.00607563 0)
(1.05029 -0.0063592 0)
(1.05462 -0.00664393 0)
(1.05915 -0.00692949 0)
(1.06386 -0.00721546 0)
(1.06877 -0.00750142 0)
(1.07387 -0.00778689 0)
(1.07915 -0.00807132 0)
(1.08463 -0.00835417 0)
(1.0903 -0.00863483 0)
(1.09615 -0.00891264 0)
(1.10219 -0.00918694 0)
(1.10841 -0.00945703 0)
(1.1148 -0.00972216 0)
(1.12138 -0.0099816 0)
(1.12812 -0.0102346 0)
(1.13503 -0.0104803 0)
(1.14211 -0.0107181 0)
(1.14934 -0.0109471 0)
(1.15672 -0.0111665 0)
(1.16424 -0.0113757 0)
(1.1719 -0.011574 0)
(1.17969 -0.0117606 0)
(1.1876 -0.0119349 0)
(1.19562 -0.0120965 0)
(1.20375 -0.0122446 0)
(1.21196 -0.012379 0)
(1.22027 -0.0124992 0)
(1.22865 -0.0126049 0)
(1.2371 -0.0126959 0)
(1.2456 -0.0127719 0)
(1.25415 -0.012833 0)
(1.26273 -0.0128791 0)
(1.27134 -0.0129103 0)
(1.27996 -0.0129268 0)
(1.2886 -0.0129289 0)
(1.29722 -0.0129167 0)
(1.30584 -0.0128909 0)
(1.31443 -0.0128517 0)
(1.32299 -0.0127997 0)
(1.33151 -0.0127355 0)
(1.33999 -0.0126598 0)
(1.34841 -0.0125731 0)
(1.35677 -0.0124763 0)
(1.36506 -0.0123699 0)
(1.37328 -0.0122548 0)
(1.38141 -0.0121318 0)
(1.38946 -0.0120016 0)
(1.39743 -0.011865 0)
(1.40529 -0.0117228 0)
(1.41306 -0.0115757 0)
(1.42074 -0.0114246 0)
(1.4283 -0.0112701 0)
(1.43577 -0.011113 0)
(1.44313 -0.0109539 0)
(1.45038 -0.0107936 0)
(1.45752 -0.0106325 0)
(1.46456 -0.0104713 0)
(1.47148 -0.0103106 0)
(1.4783 -0.0101507 0)
(1.48502 -0.0099922 0)
(1.49163 -0.00983546 0)
(1.49813 -0.00968083 0)
(1.50453 -0.00952862 0)
(1.51084 -0.00937908 0)
(1.51704 -0.00923244 0)
(1.52314 -0.00908884 0)
(1.52915 -0.00894843 0)
(1.53507 -0.00881127 0)
(1.5409 -0.0086774 0)
(1.54664 -0.00854681 0)
(1.55229 -0.00841945 0)
(1.55786 -0.00829525 0)
(1.56335 -0.00817407 0)
(1.56876 -0.00805577 0)
(1.57409 -0.00794017 0)
(1.57934 -0.00782705 0)
(1.58452 -0.00771619 0)
(1.58963 -0.00760732 0)
(1.59467 -0.00750016 0)
(1.59963 -0.00739443 0)
(1.60453 -0.00728981 0)
(1.60935 -0.00718597 0)
(1.61411 -0.0070826 0)
(1.61879 -0.00697934 0)
(1.62341 -0.00687587 0)
(1.62796 -0.00677184 0)
(1.63244 -0.0066669 0)
(1.63686 -0.00656073 0)
(1.6412 -0.00645298 0)
(1.64546 -0.00634333 0)
(1.64966 -0.00623147 0)
(1.65378 -0.00611708 0)
(1.65782 -0.00599987 0)
(1.66178 -0.00587957 0)
(1.66566 -0.00575591 0)
(1.66946 -0.00562864 0)
(1.67317 -0.00549753 0)
(1.67679 -0.00536237 0)
(1.68033 -0.00522296 0)
(1.68376 -0.00507913 0)
(1.68711 -0.00493071 0)
(1.69035 -0.00477758 0)
(1.69348 -0.00461962 0)
(1.69651 -0.00445674 0)
(1.69943 -0.00428884 0)
(1.70224 -0.00411588 0)
(1.70493 -0.00393782 0)
(1.70749 -0.00375463 0)
(1.70994 -0.00356632 0)
(1.71226 -0.00337289 0)
(1.71444 -0.00317438 0)
(1.71649 -0.00297083 0)
(1.71841 -0.0027623 0)
(1.72018 -0.00254887 0)
(1.72181 -0.00233062 0)
(1.7233 -0.00210766 0)
(1.72463 -0.00188008 0)
(1.72581 -0.00164802 0)
(1.72683 -0.00141161 0)
(1.7277 -0.00117098 0)
(1.7284 -0.000926281 0)
(1.72894 -0.000677666 0)
(1.72931 -0.000425296 0)
(1.72951 -0.000169337 0)
(1.72954 9.00389e-05 0)
(1.72939 0.000352655 0)
(1.72907 0.000618331 0)
(1.72857 0.000886887 0)
(1.72789 0.00115813 0)
(1.72703 0.00143188 0)
(1.72598 0.00170794 0)
(1.72475 0.00198611 0)
(1.72334 0.0022662 0)
(1.72173 0.00254801 0)
(1.71994 0.00283133 0)
(1.71796 0.00311595 0)
(1.71579 0.00340168 0)
(1.71342 0.0036883 0)
(1.71087 0.0039756 0)
(1.70812 0.00426336 0)
(1.70518 0.00455135 0)
(1.70205 0.00483936 0)
(1.69873 0.00512715 0)
(1.69521 0.00541448 0)
(1.69151 0.00570113 0)
(1.68761 0.00598684 0)
(1.68352 0.00627136 0)
(1.67924 0.00655444 0)
(1.67478 0.00683582 0)
(1.67013 0.00711522 0)
(1.66529 0.00739236 0)
(1.66026 0.00766698 0)
(1.65506 0.00793877 0)
(1.64967 0.00820745 0)
(1.64411 0.00847272 0)
(1.63837 0.00873426 0)
(1.63246 0.00899177 0)
(1.62637 0.00924493 0)
(1.62012 0.00949343 0)
(1.61371 0.00973693 0)
(1.60713 0.00997513 0)
(1.6004 0.0102077 0)
(1.59351 0.0104343 0)
(1.58647 0.0106546 0)
(1.57929 0.0108683 0)
(1.57197 0.011075 0)
(1.56451 0.0112746 0)
(1.55693 0.0114666 0)
(1.54921 0.0116507 0)
(1.54138 0.0118267 0)
(1.53343 0.0119943 0)
(1.52537 0.0121533 0)
(1.51721 0.0123033 0)
(1.50895 0.0124443 0)
(1.50061 0.0125758 0)
(1.49217 0.0126979 0)
(1.48366 0.0128102 0)
(1.47508 0.0129127 0)
(1.46643 0.0130052 0)
(1.45772 0.0130876 0)
(1.44896 0.0131599 0)
(1.44016 0.013222 0)
(1.43132 0.0132739 0)
(1.42244 0.0133156 0)
(1.41355 0.0133472 0)
(1.40463 0.0133686 0)
(1.39571 0.0133801 0)
(1.38678 0.0133816 0)
(1.37785 0.0133735 0)
(1.36893 0.0133558 0)
(1.36002 0.0133287 0)
(1.35114 0.0132925 0)
(1.34229 0.0132474 0)
(1.33347 0.0131937 0)
(1.32468 0.0131318 0)
(1.31594 0.0130618 0)
(1.30725 0.0129841 0)
(1.29862 0.0128991 0)
(1.29004 0.0128072 0)
(1.28153 0.0127087 0)
(1.27309 0.012604 0)
(1.26471 0.0124935 0)
(1.25642 0.0123776 0)
(1.2482 0.0122568 0)
(1.24007 0.0121314 0)
(1.23202 0.0120018 0)
(1.22406 0.0118685 0)
(1.21619 0.0117318 0)
(1.20841 0.0115923 0)
(1.20072 0.0114502 0)
(1.19314 0.011306 0)
(1.18564 0.0111601 0)
(1.17825 0.0110128 0)
(1.17096 0.0108646 0)
(1.16376 0.0107157 0)
(1.15667 0.0105665 0)
(1.14967 0.0104174 0)
(1.14277 0.0102686 0)
(1.13598 0.0101205 0)
(1.12928 0.00997334 0)
(1.12268 0.00982733 0)
(1.11617 0.00968275 0)
(1.10977 0.0095398 0)
(1.10345 0.00939874 0)
(1.09724 0.00925961 0)
(1.0911 0.00912283 0)
(1.0851 0.00898806 0)
(1.07905 0.00885601 0)
(1.07343 0.00872649 0)
(1.06708 0.00859636 0)
(1.06272 0.008483 0)
(1.05363 0.00831816 0)
(1.00001 -0.000201347 0)
(1.00017 -0.000604275 0)
(1.00048 -0.00100775 0)
(1.00096 -0.00141214 0)
(1.00161 -0.00181784 0)
(1.00242 -0.00222525 0)
(1.00339 -0.00263472 0)
(1.00452 -0.00304659 0)
(1.00582 -0.00346116 0)
(1.00729 -0.00387875 0)
(1.00892 -0.00429961 0)
(1.01072 -0.00472401 0)
(1.01269 -0.00515214 0)
(1.01484 -0.00558418 0)
(1.01716 -0.00602027 0)
(1.01965 -0.00646051 0)
(1.02232 -0.00690493 0)
(1.02517 -0.00735355 0)
(1.0282 -0.00780629 0)
(1.03141 -0.00826306 0)
(1.0348 -0.00872368 0)
(1.03838 -0.00918791 0)
(1.04215 -0.00965546 0)
(1.0461 -0.010126 0)
(1.05025 -0.010599 0)
(1.05458 -0.011074 0)
(1.05911 -0.0115504 0)
(1.06382 -0.0120275 0)
(1.06873 -0.0125047 0)
(1.07383 -0.0129811 0)
(1.07912 -0.0134559 0)
(1.08461 -0.013928 0)
(1.09028 -0.0143965 0)
(1.09613 -0.0148603 0)
(1.10218 -0.0153183 0)
(1.10841 -0.0157693 0)
(1.11481 -0.0162121 0)
(1.1214 -0.0166453 0)
(1.12815 -0.0170679 0)
(1.13508 -0.0174783 0)
(1.14216 -0.0178755 0)
(1.14941 -0.0182579 0)
(1.1568 -0.0186245 0)
(1.16434 -0.018974 0)
(1.17202 -0.0193052 0)
(1.17983 -0.0196169 0)
(1.18776 -0.0199081 0)
(1.1958 -0.0201779 0)
(1.20394 -0.0204254 0)
(1.21218 -0.0206498 0)
(1.22051 -0.0208504 0)
(1.22891 -0.0210269 0)
(1.23738 -0.0211786 0)
(1.24591 -0.0213054 0)
(1.25448 -0.0214072 0)
(1.26308 -0.0214839 0)
(1.27172 -0.0215357 0)
(1.28036 -0.021563 0)
(1.28902 -0.021566 0)
(1.29767 -0.0215453 0)
(1.3063 -0.0215016 0)
(1.31491 -0.0214357 0)
(1.32349 -0.0213485 0)
(1.33204 -0.0212408 0)
(1.34053 -0.0211138 0)
(1.34897 -0.0209685 0)
(1.35734 -0.0208062 0)
(1.36565 -0.020628 0)
(1.37388 -0.0204353 0)
(1.38202 -0.0202294 0)
(1.39009 -0.0200115 0)
(1.39806 -0.0197829 0)
(1.40594 -0.019545 0)
(1.41372 -0.0192991 0)
(1.42139 -0.0190463 0)
(1.42897 -0.018788 0)
(1.43644 -0.0185254 0)
(1.4438 -0.0182595 0)
(1.45106 -0.0179915 0)
(1.4582 -0.0177224 0)
(1.46524 -0.0174531 0)
(1.47217 -0.0171846 0)
(1.47899 -0.0169177 0)
(1.4857 -0.016653 0)
(1.49231 -0.0163914 0)
(1.49882 -0.0161333 0)
(1.50522 -0.0158793 0)
(1.51152 -0.0156298 0)
(1.51772 -0.0153852 0)
(1.52382 -0.0151457 0)
(1.52983 -0.0149116 0)
(1.53574 -0.0146829 0)
(1.54157 -0.0144598 0)
(1.54731 -0.0142422 0)
(1.55296 -0.01403 0)
(1.55852 -0.0138231 0)
(1.56401 -0.0136213 0)
(1.56942 -0.0134243 0)
(1.57475 -0.0132319 0)
(1.58 -0.0130436 0)
(1.58518 -0.0128591 0)
(1.59028 -0.0126779 0)
(1.59532 -0.0124997 0)
(1.60028 -0.0123238 0)
(1.60518 -0.0121497 0)
(1.61 -0.011977 0)
(1.61476 -0.0118051 0)
(1.61945 -0.0116334 0)
(1.62407 -0.0114613 0)
(1.62862 -0.0112883 0)
(1.63311 -0.0111137 0)
(1.63752 -0.0109371 0)
(1.64186 -0.0107579 0)
(1.64614 -0.0105755 0)
(1.65033 -0.0103893 0)
(1.65446 -0.010199 0)
(1.6585 -0.0100039 0)
(1.66247 -0.00980369 0)
(1.66636 -0.00959784 0)
(1.67016 -0.00938595 0)
(1.67388 -0.00916764 0)
(1.67751 -0.00894255 0)
(1.68105 -0.00871036 0)
(1.6845 -0.00847078 0)
(1.68784 -0.00822354 0)
(1.69109 -0.00796841 0)
(1.69423 -0.00770521 0)
(1.69727 -0.00743378 0)
(1.7002 -0.00715398 0)
(1.70301 -0.00686571 0)
(1.70571 -0.00656892 0)
(1.70828 -0.00626357 0)
(1.71074 -0.00594965 0)
(1.71306 -0.00562719 0)
(1.71525 -0.00529624 0)
(1.71731 -0.00495688 0)
(1.71924 -0.0046092 0)
(1.72102 -0.00425333 0)
(1.72265 -0.00388942 0)
(1.72414 -0.00351763 0)
(1.72548 -0.00313815 0)
(1.72667 -0.00275119 0)
(1.7277 -0.00235696 0)
(1.72857 -0.00195569 0)
(1.72927 -0.00154762 0)
(1.72982 -0.00113303 0)
(1.73019 -0.000712171 0)
(1.7304 -0.000285326 0)
(1.73043 0.000147221 0)
(1.73029 0.000585176 0)
(1.72997 0.00102824 0)
(1.72947 0.0014761 0)
(1.7288 0.00192845 0)
(1.72794 0.00238498 0)
(1.7269 0.00284535 0)
(1.72567 0.00330925 0)
(1.72425 0.00377635 0)
(1.72265 0.00424632 0)
(1.72086 0.00471881 0)
(1.71888 0.00519348 0)
(1.7167 0.00567 0)
(1.71434 0.006148 0)
(1.71179 0.00662713 0)
(1.70904 0.00710703 0)
(1.7061 0.00758733 0)
(1.70297 0.00806766 0)
(1.69964 0.00854763 0)
(1.69612 0.00902686 0)
(1.69241 0.00950493 0)
(1.68851 0.00998146 0)
(1.68442 0.010456 0)
(1.68014 0.0109282 0)
(1.67567 0.0113975 0)
(1.67101 0.0118635 0)
(1.66617 0.0123258 0)
(1.66114 0.0127838 0)
(1.65593 0.0132372 0)
(1.65054 0.0136854 0)
(1.64496 0.0141279 0)
(1.63922 0.0145642 0)
(1.6333 0.0149938 0)
(1.6272 0.0154161 0)
(1.62094 0.0158307 0)
(1.61452 0.0162369 0)
(1.60793 0.0166343 0)
(1.60119 0.0170223 0)
(1.59429 0.0174004 0)
(1.58724 0.017768 0)
(1.58005 0.0181245 0)
(1.57272 0.0184695 0)
(1.56525 0.0188024 0)
(1.55765 0.0191228 0)
(1.54992 0.01943 0)
(1.54207 0.0197237 0)
(1.53411 0.0200034 0)
(1.52604 0.0202686 0)
(1.51786 0.020519 0)
(1.50959 0.0207541 0)
(1.50122 0.0209736 0)
(1.49277 0.0211772 0)
(1.48424 0.0213646 0)
(1.47564 0.0215355 0)
(1.46698 0.0216898 0)
(1.45825 0.0218273 0)
(1.44948 0.0219478 0)
(1.44066 0.0220514 0)
(1.4318 0.0221378 0)
(1.42291 0.0222073 0)
(1.41399 0.0222598 0)
(1.40506 0.0222954 0)
(1.39612 0.0223144 0)
(1.38717 0.0223168 0)
(1.37823 0.022303 0)
(1.36929 0.0222732 0)
(1.36037 0.0222278 0)
(1.35147 0.0221672 0)
(1.3426 0.0220917 0)
(1.33377 0.0220019 0)
(1.32497 0.0218982 0)
(1.31622 0.0217812 0)
(1.30751 0.0216513 0)
(1.29886 0.0215093 0)
(1.29028 0.0213556 0)
(1.28175 0.021191 0)
(1.2733 0.021016 0)
(1.26491 0.0208314 0)
(1.25661 0.0206378 0)
(1.24838 0.0204358 0)
(1.24024 0.0202263 0)
(1.23218 0.0200098 0)
(1.22421 0.0197871 0)
(1.21633 0.0195589 0)
(1.20855 0.0193258 0)
(1.20086 0.0190885 0)
(1.19326 0.0188477 0)
(1.18577 0.0186041 0)
(1.17837 0.0183582 0)
(1.17107 0.0181107 0)
(1.16387 0.0178621 0)
(1.15677 0.0176131 0)
(1.14978 0.0173642 0)
(1.14288 0.0171159 0)
(1.13608 0.0168687 0)
(1.12938 0.0166231 0)
(1.12278 0.0163794 0)
(1.11627 0.0161382 0)
(1.10987 0.0158997 0)
(1.10355 0.0156643 0)
(1.09734 0.0154323 0)
(1.0912 0.0152039 0)
(1.08521 0.0149798 0)
(1.07916 0.0147584 0)
(1.07354 0.0145455 0)
(1.06718 0.0143239 0)
(1.06283 0.0141467 0)
(1.05374 0.0138568 0)
(1.00001 -0.000281672 0)
(1.00017 -0.000845293 0)
(1.00048 -0.00140969 0)
(1.00096 -0.0019754 0)
(1.00161 -0.00254297 0)
(1.00241 -0.00311295 0)
(1.00338 -0.00368583 0)
(1.00451 -0.00426209 0)
(1.00581 -0.00484217 0)
(1.00727 -0.00542651 0)
(1.0089 -0.00601548 0)
(1.0107 -0.00660943 0)
(1.01267 -0.00720867 0)
(1.01481 -0.00781343 0)
(1.01712 -0.00842393 0)
(1.01961 -0.0090403 0)
(1.02228 -0.0096626 0)
(1.02512 -0.0102908 0)
(1.02815 -0.0109249 0)
(1.03135 -0.0115648 0)
(1.03475 -0.0122101 0)
(1.03832 -0.0128605 0)
(1.04209 -0.0135157 0)
(1.04604 -0.0141751 0)
(1.05019 -0.0148381 0)
(1.05452 -0.0155041 0)
(1.05905 -0.0161721 0)
(1.06376 -0.0168412 0)
(1.06868 -0.0175105 0)
(1.07378 -0.0181788 0)
(1.07908 -0.0188449 0)
(1.08456 -0.0195074 0)
(1.09024 -0.0201649 0)
(1.09611 -0.0208159 0)
(1.10216 -0.0214589 0)
(1.1084 -0.022092 0)
(1.11482 -0.0227138 0)
(1.12142 -0.0233222 0)
(1.1282 -0.0239157 0)
(1.13514 -0.0244922 0)
(1.14225 -0.0250501 0)
(1.14951 -0.0255874 0)
(1.15693 -0.0261024 0)
(1.1645 -0.0265934 0)
(1.1722 -0.0270586 0)
(1.18003 -0.0274966 0)
(1.18799 -0.0279057 0)
(1.19606 -0.0282847 0)
(1.20424 -0.0286323 0)
(1.21251 -0.0289474 0)
(1.22087 -0.0292291 0)
(1.22931 -0.0294766 0)
(1.23781 -0.0296895 0)
(1.24637 -0.0298672 0)
(1.25497 -0.0300097 0)
(1.26362 -0.030117 0)
(1.27228 -0.0301891 0)
(1.28096 -0.0302267 0)
(1.28965 -0.0302301 0)
(1.29833 -0.0302003 0)
(1.30699 -0.0301381 0)
(1.31564 -0.0300446 0)
(1.32425 -0.029921 0)
(1.33282 -0.0297688 0)
(1.34134 -0.0295894 0)
(1.3498 -0.0293843 0)
(1.3582 -0.0291554 0)
(1.36652 -0.0289042 0)
(1.37478 -0.0286326 0)
(1.38294 -0.0283423 0)
(1.39102 -0.0280354 0)
(1.39901 -0.0277135 0)
(1.4069 -0.0273786 0)
(1.41469 -0.0270325 0)
(1.42238 -0.0266769 0)
(1.42997 -0.0263136 0)
(1.43745 -0.0259442 0)
(1.44481 -0.0255704 0)
(1.45207 -0.0251937 0)
(1.45923 -0.0248155 0)
(1.46627 -0.0244373 0)
(1.4732 -0.0240601 0)
(1.48002 -0.0236853 0)
(1.48673 -0.0233138 0)
(1.49334 -0.0229466 0)
(1.49984 -0.0225845 0)
(1.50624 -0.0222283 0)
(1.51254 -0.0218784 0)
(1.51873 -0.0215355 0)
(1.52483 -0.0211999 0)
(1.53084 -0.0208719 0)
(1.53675 -0.0205517 0)
(1.54257 -0.0202393 0)
(1.5483 -0.0199347 0)
(1.55395 -0.0196377 0)
(1.55952 -0.0193483 0)
(1.565 -0.0190661 0)
(1.5704 -0.0187907 0)
(1.57573 -0.0185217 0)
(1.58098 -0.0182586 0)
(1.58615 -0.0180009 0)
(1.59126 -0.0177479 0)
(1.59629 -0.0174989 0)
(1.60126 -0.0172534 0)
(1.60615 -0.0170104 0)
(1.61098 -0.0167694 0)
(1.61574 -0.0165294 0)
(1.62043 -0.0162897 0)
(1.62505 -0.0160496 0)
(1.62961 -0.0158081 0)
(1.6341 -0.0155645 0)
(1.63852 -0.015318 0)
(1.64286 -0.0150677 0)
(1.64714 -0.014813 0)
(1.65135 -0.0145531 0)
(1.65548 -0.0142873 0)
(1.65953 -0.0140148 0)
(1.66351 -0.0137351 0)
(1.6674 -0.0134474 0)
(1.67122 -0.0131512 0)
(1.67494 -0.012846 0)
(1.67858 -0.0125313 0)
(1.68213 -0.0122066 0)
(1.68559 -0.0118715 0)
(1.68895 -0.0115256 0)
(1.69221 -0.0111686 0)
(1.69536 -0.0108003 0)
(1.69841 -0.0104204 0)
(1.70135 -0.0100288 0)
(1.70417 -0.00962521 0)
(1.70688 -0.00920967 0)
(1.70947 -0.00878211 0)
(1.71193 -0.00834251 0)
(1.71427 -0.00789092 0)
(1.71647 -0.00742739 0)
(1.71854 -0.00695205 0)
(1.72047 -0.00646504 0)
(1.72226 -0.00596653 0)
(1.72391 -0.00545673 0)
(1.72541 -0.00493587 0)
(1.72676 -0.00440423 0)
(1.72795 -0.00386207 0)
(1.72899 -0.00330972 0)
(1.72987 -0.0027475 0)
(1.73058 -0.00217575 0)
(1.73114 -0.00159483 0)
(1.73152 -0.00100514 0)
(1.73173 -0.000407043 0)
(1.73177 0.000199044 0)
(1.73163 0.000812713 0)
(1.73132 0.00143354 0)
(1.73083 0.0020611 0)
(1.73016 0.00269495 0)
(1.7293 0.00333465 0)
(1.72826 0.00397975 0)
(1.72704 0.0046298 0)
(1.72562 0.00528432 0)
(1.72402 0.00594287 0)
(1.72223 0.00660495 0)
(1.72025 0.00727011 0)
(1.71808 0.00793784 0)
(1.71572 0.00860767 0)
(1.71316 0.00927908 0)
(1.71041 0.00995159 0)
(1.70747 0.0106247 0)
(1.70434 0.0112978 0)
(1.70101 0.0119704 0)
(1.69749 0.012642 0)
(1.69377 0.013312 0)
(1.68987 0.0139799 0)
(1.68577 0.0146449 0)
(1.68148 0.0153067 0)
(1.67701 0.0159645 0)
(1.67234 0.0166177 0)
(1.66749 0.0172657 0)
(1.66245 0.0179077 0)
(1.65723 0.0185433 0)
(1.65183 0.0191715 0)
(1.64625 0.0197919 0)
(1.64049 0.0204035 0)
(1.63456 0.0210058 0)
(1.62845 0.0215979 0)
(1.62218 0.0221792 0)
(1.61574 0.0227488 0)
(1.60914 0.023306 0)
(1.60238 0.0238501 0)
(1.59546 0.0243802 0)
(1.5884 0.0248956 0)
(1.58119 0.0253956 0)
(1.57383 0.0258795 0)
(1.56635 0.0263463 0)
(1.55872 0.0267956 0)
(1.55098 0.0272265 0)
(1.54311 0.0276384 0)
(1.53512 0.0280306 0)
(1.52703 0.0284026 0)
(1.51883 0.0287537 0)
(1.51053 0.0290834 0)
(1.50214 0.0293912 0)
(1.49367 0.0296767 0)
(1.48511 0.0299394 0)
(1.47649 0.030179 0)
(1.4678 0.0303953 0)
(1.45905 0.030588 0)
(1.45025 0.0307569 0)
(1.4414 0.0309019 0)
(1.43252 0.031023 0)
(1.4236 0.0311201 0)
(1.41466 0.0311935 0)
(1.4057 0.0312432 0)
(1.39673 0.0312694 0)
(1.38776 0.0312725 0)
(1.37879 0.0312527 0)
(1.36983 0.0312106 0)
(1.36089 0.0311465 0)
(1.35197 0.031061 0)
(1.34308 0.0309547 0)
(1.33422 0.0308282 0)
(1.3254 0.0306823 0)
(1.31662 0.0305176 0)
(1.3079 0.030335 0)
(1.29923 0.0301352 0)
(1.29063 0.0299192 0)
(1.28208 0.0296877 0)
(1.27361 0.0294418 0)
(1.26521 0.0291823 0)
(1.25689 0.0289103 0)
(1.24865 0.0286265 0)
(1.24049 0.0283321 0)
(1.23242 0.0280281 0)
(1.22444 0.0277153 0)
(1.21655 0.0273947 0)
(1.20876 0.0270674 0)
(1.20106 0.0267342 0)
(1.19346 0.0263961 0)
(1.18595 0.026054 0)
(1.17855 0.0257088 0)
(1.17124 0.0253614 0)
(1.16404 0.0250126 0)
(1.15694 0.0246632 0)
(1.14994 0.0243139 0)
(1.14303 0.0239655 0)
(1.13623 0.0236187 0)
(1.12953 0.0232741 0)
(1.12293 0.0229324 0)
(1.11642 0.022594 0)
(1.11002 0.0222596 0)
(1.1037 0.0219295 0)
(1.09749 0.0216044 0)
(1.09135 0.0212842 0)
(1.08536 0.0209703 0)
(1.07931 0.0206597 0)
(1.0737 0.0203624 0)
(1.06734 0.0200507 0)
(1.06299 0.0198053 0)
(1.0539 0.0193949 0)
(1.00001 -0.000361753 0)
(1.00017 -0.00108562 0)
(1.00048 -0.00181049 0)
(1.00096 -0.00253708 0)
(1.0016 -0.00326611 0)
(1.0024 -0.00399825 0)
(1.00337 -0.00473415 0)
(1.0045 -0.00547444 0)
(1.00579 -0.00621971 0)
(1.00725 -0.0069705 0)
(1.00887 -0.00772733 0)
(1.01067 -0.00849064 0)
(1.01263 -0.00926083 0)
(1.01477 -0.0100382 0)
(1.01707 -0.0108231 0)
(1.01956 -0.0116156 0)
(1.02222 -0.0124159 0)
(1.02506 -0.0132239 0)
(1.02808 -0.0140397 0)
(1.03128 -0.0148629 0)
(1.03467 -0.0156933 0)
(1.03825 -0.0165305 0)
(1.04201 -0.0173739 0)
(1.04596 -0.018223 0)
(1.0501 -0.0190768 0)
(1.05444 -0.0199346 0)
(1.05896 -0.0207952 0)
(1.06368 -0.0216575 0)
(1.0686 -0.0225202 0)
(1.07371 -0.0233817 0)
(1.07901 -0.0242405 0)
(1.08451 -0.0250949 0)
(1.09019 -0.025943 0)
(1.09607 -0.026783 0)
(1.10214 -0.0276126 0)
(1.1084 -0.0284298 0)
(1.11484 -0.0292323 0)
(1.12146 -0.0300179 0)
(1.12825 -0.0307841 0)
(1.13522 -0.0315287 0)
(1.14235 -0.0322491 0)
(1.14965 -0.0329432 0)
(1.1571 -0.0336084 0)
(1.1647 -0.0342426 0)
(1.17243 -0.0348436 0)
(1.18031 -0.0354093 0)
(1.1883 -0.0359378 0)
(1.19641 -0.0364272 0)
(1.20463 -0.0368761 0)
(1.21295 -0.0372828 0)
(1.22135 -0.0376464 0)
(1.22983 -0.0379657 0)
(1.23838 -0.03824 0)
(1.24699 -0.0384689 0)
(1.25564 -0.0386521 0)
(1.26432 -0.0387897 0)
(1.27303 -0.0388818 0)
(1.28176 -0.0389291 0)
(1.29049 -0.0389322 0)
(1.29921 -0.0388923 0)
(1.30792 -0.0388104 0)
(1.3166 -0.0386881 0)
(1.32525 -0.0385269 0)
(1.33386 -0.0383286 0)
(1.34241 -0.0380952 0)
(1.35091 -0.0378287 0)
(1.35934 -0.0375313 0)
(1.3677 -0.0372052 0)
(1.37598 -0.0368528 0)
(1.38417 -0.0364764 0)
(1.39227 -0.0360786 0)
(1.40028 -0.0356615 0)
(1.40819 -0.0352277 0)
(1.416 -0.0347796 0)
(1.4237 -0.0343193 0)
(1.4313 -0.0338492 0)
(1.43879 -0.0333715 0)
(1.44617 -0.0328882 0)
(1.45343 -0.0324013 0)
(1.46059 -0.0319127 0)
(1.46763 -0.0314241 0)
(1.47457 -0.0309371 0)
(1.48139 -0.0304533 0)
(1.4881 -0.029974 0)
(1.49471 -0.0295003 0)
(1.50121 -0.0290335 0)
(1.5076 -0.0285743 0)
(1.5139 -0.0281235 0)
(1.52009 -0.0276819 0)
(1.52618 -0.0272498 0)
(1.53218 -0.0268277 0)
(1.53809 -0.0264158 0)
(1.54391 -0.026014 0)
(1.54963 -0.0256225 0)
(1.55528 -0.025241 0)
(1.56083 -0.0248693 0)
(1.56631 -0.024507 0)
(1.57171 -0.0241536 0)
(1.57703 -0.0238085 0)
(1.58228 -0.0234711 0)
(1.58745 -0.0231407 0)
(1.59256 -0.0228164 0)
(1.59759 -0.0224975 0)
(1.60255 -0.0221829 0)
(1.60745 -0.0218718 0)
(1.61228 -0.0215631 0)
(1.61704 -0.0212559 0)
(1.62173 -0.020949 0)
(1.62636 -0.0206415 0)
(1.63092 -0.0203324 0)
(1.63541 -0.0200204 0)
(1.63984 -0.0197048 0)
(1.64419 -0.0193843 0)
(1.64848 -0.019058 0)
(1.65269 -0.018725 0)
(1.65683 -0.0183843 0)
(1.6609 -0.018035 0)
(1.66488 -0.0176763 0)
(1.66879 -0.0173073 0)
(1.67262 -0.0169274 0)
(1.67636 -0.0165358 0)
(1.68001 -0.0161318 0)
(1.68357 -0.0157149 0)
(1.68704 -0.0152846 0)
(1.69042 -0.0148403 0)
(1.69369 -0.0143817 0)
(1.69686 -0.0139084 0)
(1.69992 -0.0134201 0)
(1.70288 -0.0129167 0)
(1.70572 -0.0123979 0)
(1.70844 -0.0118636 0)
(1.71104 -0.0113137 0)
(1.71352 -0.0107483 0)
(1.71587 -0.0101674 0)
(1.71809 -0.00957115 0)
(1.72017 -0.00895961 0)
(1.72212 -0.00833299 0)
(1.72392 -0.00769154 0)
(1.72558 -0.00703553 0)
(1.7271 -0.00636525 0)
(1.72846 -0.00568105 0)
(1.72966 -0.0049833 0)
(1.73071 -0.0042724 0)
(1.7316 -0.00354877 0)
(1.73233 -0.00281287 0)
(1.73289 -0.00206515 0)
(1.73328 -0.00130612 0)
(1.7335 -0.000536264 0)
(1.73355 0.000243887 0)
(1.73342 0.0010338 0)
(1.73312 0.00183294 0)
(1.73263 0.00264075 0)
(1.73196 0.00345666 0)
(1.73111 0.0042801 0)
(1.73008 0.0051105 0)
(1.72886 0.00594727 0)
(1.72745 0.00678981 0)
(1.72585 0.00763753 0)
(1.72406 0.00848981 0)
(1.72208 0.00934605 0)
(1.71991 0.0102056 0)
(1.71755 0.0110679 0)
(1.71499 0.0119322 0)
(1.71224 0.012798 0)
(1.7093 0.0136645 0)
(1.70616 0.014531 0)
(1.70283 0.015397 0)
(1.6993 0.0162616 0)
(1.69558 0.0171243 0)
(1.69167 0.0179841 0)
(1.68757 0.0188405 0)
(1.68327 0.0196926 0)
(1.67879 0.0205396 0)
(1.67411 0.0213807 0)
(1.66925 0.0222152 0)
(1.6642 0.0230421 0)
(1.65897 0.0238605 0)
(1.65355 0.0246697 0)
(1.64796 0.0254687 0)
(1.64218 0.0262566 0)
(1.63623 0.0270324 0)
(1.63011 0.0277951 0)
(1.62382 0.0285439 0)
(1.61736 0.0292778 0)
(1.61074 0.0299957 0)
(1.60396 0.0306967 0)
(1.59702 0.0313797 0)
(1.58993 0.0320439 0)
(1.5827 0.0326882 0)
(1.57532 0.0333116 0)
(1.56781 0.0339133 0)
(1.56016 0.0344922 0)
(1.55238 0.0350475 0)
(1.54449 0.0355783 0)
(1.53647 0.0360838 0)
(1.52835 0.0365631 0)
(1.52012 0.0370155 0)
(1.51179 0.0374404 0)
(1.50337 0.037837 0)
(1.49486 0.0382048 0)
(1.48627 0.0385433 0)
(1.47762 0.038852 0)
(1.46889 0.0391305 0)
(1.46011 0.0393786 0)
(1.45127 0.039596 0)
(1.44239 0.0397825 0)
(1.43347 0.0399382 0)
(1.42452 0.040063 0)
(1.41555 0.0401571 0)
(1.40656 0.0402206 0)
(1.39755 0.0402538 0)
(1.38855 0.0402572 0)
(1.37955 0.0402311 0)
(1.37055 0.040176 0)
(1.36158 0.0400927 0)
(1.35263 0.0399818 0)
(1.3437 0.039844 0)
(1.33481 0.0396801 0)
(1.32597 0.0394912 0)
(1.31716 0.0392781 0)
(1.30841 0.0390418 0)
(1.29972 0.0387834 0)
(1.29109 0.0385041 0)
(1.28252 0.0382049 0)
(1.27403 0.037887 0)
(1.26561 0.0375517 0)
(1.25727 0.0372001 0)
(1.24901 0.0368336 0)
(1.24083 0.0364533 0)
(1.23274 0.0360605 0)
(1.22475 0.0356566 0)
(1.21684 0.0352427 0)
(1.20903 0.0348201 0)
(1.20132 0.03439 0)
(1.19371 0.0339537 0)
(1.1862 0.0335122 0)
(1.17878 0.0330668 0)
(1.17147 0.0326186 0)
(1.16426 0.0321686 0)
(1.15715 0.0317179 0)
(1.15014 0.0312674 0)
(1.14324 0.0308182 0)
(1.13644 0.030371 0)
(1.12973 0.0299268 0)
(1.12313 0.0294864 0)
(1.11662 0.0290503 0)
(1.11022 0.0286194 0)
(1.1039 0.0281942 0)