/*--------------------------------*- C++ -*----------------------------------*\
| =========                 |                                                 |
| \\      /  F ield         | OpenFOAM: The Open Source CFD Toolbox           |
|  \\    /   O peration     | Version:  2312                                  |
|   \\  /    A nd           | Website:  www.openfoam.com                      |
|    \\/     M anipulation  |                                                 |
\*---------------------------------------------------------------------------*/
FoamFile
{
    version     2.0;
    format      ascii;
    arch        "LSB;label=32;scalar=64";
    class       volScalarField;
    location    "0.03";
    object      G;
}
// * * * * * * * * * * * * * * * * * * * * * * * * * * * * * * * * * * * * * //

dimensions      [1 0 -3 0 0 0 0];

internalField   nonuniform List<scalar> 
900
(
94502.4
113670
119976
123079
125106
126635
127845
128821
129612
130252
130761
131154
131442
131630
131723
131723
131630
131442
131154
130761
130252
129612
128821
127845
126636
125107
123079
119976
113670
94502.7
72701.9
91448
101666
107592
111337
113955
115905
117410
118590
119519
120243
120793
121190
121448
121575
121575
121448
121190
120793
120243
119519
118590
117410
115905
113956
111338
107592
101666
91448.3
72702.2
64170.7
78634.1
88700.5
95697.3
100535
104013
106607
108598
110149
111363
112304
113017
113530
113863
114026
114026
113863
113530
113017
112305
111363
110149
108598
106607
104013
100535
95697.7
88700.8
78634.4
64171
58724.1
70129
78949.3
85865.3
91070.9
95008.9
98025
100367
102200
103636
104751
105594
106201
106594
106787
106787
106594
106201
105594
104751
103637
102200
100367
98025.2
95009.2
91071.3
85865.5
78949.5
70129.3
58724.5
54484.5
63861.3
71440.5
77821.1
82939.5
87003.3
90220.8
92772.9
94797.1
96395
97639.8
98584.1
99264.4
99705.5
99922.5
99922.5
99705.6
99264.5
98584.2
97640
96395.2
94797.4
92773.2
90221.3
87003.9
82940.2
77821.8
71441
63861.7
54485
50758.5
58754.3
65295.9
71044.3
75867.6
79850.1
83103.1
85745.4
87878.9
89585
90926.4
91950
92690.5
93171.6
93408.6
93408.6
93171.6
92690.5
91950.1
90926.4
89585.1
87879
85745.5
83103.2
79850.2
75867.7
71044.2
65295.7
58754.7
50758.9
47415.2
54387.6
60092
65240.4
69697.2
73489
76667.6
79304.9
81471.1
83227.6
84623.8
85698.2
86479.9
86989.9
87241.6
87241.6
86989.9
86480
85698.2
84623.8
83227.6
81471.1
79305
76667.9
73489.4
69697.7
65240.3
60090.9
54388.1
47415.4
44318.7
50508.3
55536.8
60148.6
64227.8
67777.6
70817.3
73385.4
75526.6
77284.4
78696.3
79792.1
80594.8
81120.9
81381.3
81381.3
81121
80595
79792.3
78696.6
77284.8
75527
73385.9
70818.1
67779
64229.9
60149.9
55536
50509.1
44319.3
41403.5
46957.2
51432.6
55575.6
59295.8
62587.7
65455.5
67917
69996.7
71722.8
73121.5
74215.1
75020.9
75551.4
75814.7
75814.7
75551.5
75021.1
74215.5
73122
71723.4
69997.4
67917.8
65456.5
62589.2
59298.5
55578
51432.6
46958.5
41404.7
38643.6
43651.1
47661.9
51398.1
54790.3
57828.4
60510.9
62844.3
64839.1
66510.8
67875.8
68949.5
69744.1
70269
70529.9
70530
70269
69744.3
68949.8
67876.3
66511.3
64839.7
62844.8
60511.4
57829.3
54792.5
51400.6
47662.2
43652.2
38644.7
35996.3
40543
44156.6
47536.9
50633.4
53430.8
55925.9
58119.5
60013.8
61614.9
62931.4
63972.2
64745.3
65257.1
65512
65512
65257.2
64745.3
63972.3
62931.5
61614.9
60013.6
58119.2
55925.4
53430.6
50634.2
47538.1
44156.3
40543.2
35996.5
33456.3
37600.7
40870.1
43935
46764.8
49338.2
51650.4
53700.2
55484.6
57004.1
58261.3
59259.9
60004.3
60498.3
60744.5
60744.5
60498.2
60004.3
59259.8
58261
57003.5
55483.7
53699
51649
49336.8
46764.2
43934.8
40868.8
37599.6
33455.3
31012.8
34801
37769.3
40552.2
43140.5
45506.5
47644.2
49551.2
51221.9
52653
53843.3
54793
55503.3
55975.6
56211.4
56211.4
55975.6
55503.2
54792.8
53842.8
52652
51220.6
49549.7
47642.6
45505
43139.4
40551.3
37767.6
34799.5
31011.2
28660.9
32130
34832.5
37361.7
39730.2
41904.7
43877.1
45645.3
47201.7
48541
49659.6
50555.4
51227.2
51674.9
51898.7
51898.7
51674.9
51227.2
50555.2
49659.1
48540.1
47200.6
45644.3
43876.2
41903.9
39729.7
37361.4
34831.7
32129.2
28660.1
26400.4
29580.8
32047
34346.4
36513.6
38510.9
40327.2
41961.6
43405.4
44651.6
45695.7
46534.2
47164.4
47585.1
47795.6
47795.6
47585.2
47164.5
46534.1
45695.4
44651
43404.8
41961.4
40327.4
38511.4
36514.6
34347.6
32048
29581.9
26401.5
24233.7
27150.7
29405.1
31495.1
33477.1
35309.7
36978.7
38484.4
39818.1
40971.8
41940.3
42719.5
43306.1
43698.2
43894.6
43894.7
43698.6
43306.7
42719.9
41940.4
40971.6
39818.1
38485
36979.9
35311.4
33479.5
31498
29408.2
27153.9
24237.3
22164.3
24839.2
26902.6
28800.7
30611
32290
33819.7
35202.1
36428.9
37491.5
38384.7
39104.1
39646.3
40009.1
40190.9
40191.3
40010
39647.6
39105.3
38385.5
37492.1
36429.6
35203.4
33821.7
32292.7
30614.5
28804.9
26907.2
24844.2
22170.1
20196.1
22646.9
24536.8
26258.1
27908.4
29443.9
30842
32106.2
33229.9
34203.9
35023.1
35683.3
36181.2
36514.5
36681.8
36682.4
36516
36183.2
35685.2
35024.6
34205.2
33231.3
32108.2
30844.4
29447
27912.3
26262.8
24542.2
22652.8
20203
18332.2
20574.6
22305.9
23863.8
25364.3
26765.4
28039.2
29190.9
30215.5
31104
31851.3
32453.7
32908.2
33212.6
33365.5
33366.2
33214.4
32910.7
32456.2
31853.4
31106
30217.5
29193.3
28042
26768.6
25368.3
23868.5
22311.2
20580.6
18339.4
16575.3
18622.9
20208.4
21615.1
22975
24250.1
25407
26451.7
27381.7
28188.5
28866.6
29413.2
29825.6
30101.8
30240.6
30241.4
30103.8
29828.2
29415.8
28868.9
28190.7
27384.1
26454.2
25409.7
24253.1
22978.6
21619.3
20213.2
18628.2
16581.8
14926.6
16791.9
18243
19509.7
20737.4
21894.3
22941.6
23885.2
24725.5
25454.3
26066.5
26559.7
26931.7
27180.9
27306.2
27306.9
27182.8
26934.2
26562.1
26068.7
25456.4
24727.6
23887.5
22944
21897
20740.5
19513.2
18246.9
16796.2
14932.1
13387
15081
16407.8
17545.1
18648.7
19694.8
20639.6
21488.1
22243.5
22898.7
23448.6
23891.1
24224.7
24448.2
24560.5
24561.2
24449.9
24226.8
23893
23450.3
22900.4
22245.2
21489.9
20641.5
19696.8
18651.1
17547.8
16410.7
15084.2
13391
11955.9
13489.2
14700.6
15718.8
16705.9
17648
18497.4
19256.9
19932.5
20518.5
21009.7
21404.5
21702.1
21901.3
22001.5
22002
21902.7
21703.7
21406
21010.9
20519.5
19933.5
19258
18498.5
17649.3
16707.4
15720.5
14702.5
13491.2
11958.6
10632.1
12014.4
13118.5
14027.1
14905.2
15750
16510.6
17187.4
17788.3
18309.5
18746.1
19096.4
19360.3
19536.9
19625.6
19626
19537.9
19361.4
19097.4
18746.7
18309.9
17788.5
17187.5
16510.8
15750.3
14905.8
14027.8
13119.2
12015.3
10633.5
9413.28
10653.7
11657.5
12465.8
13242.3
13995.9
14674.3
15274.3
15805.8
16266.9
16652.7
16961.9
17194.5
17350.2
17428.4
17428.7
17350.9
17195.3
16962.5
16652.9
16266.8
15805.4
15273.6
14673.5
13995.2
13241.9
12465.5
11657.2
10653.6
9413.52
8295.41
9402.6
10312.2
11028.7
11711
12379.1
12981.4
13510.7
13978
14383.4
14722.6
14993.9
15197.8
15334.2
15402.7
15402.9
15334.7
15198.3
14994.2
14722.5
14383
13977.2
13509.5
12979.9
12377.7
11709.7
11027.5
10311.1
9401.56
8294.67
7275.96
8258.29
9079.28
9711.93
10307.2
10895.7
11427.7
11892.4
12300.7
12655
12951.3
13188.1
13365.8
13484.6
13544.2
13544.3
13484.9
13366.1
13188.3
12951.2
12654.4
12299.6
11890.8
11425.8
10893.7
10305.3
9710.09
9077.46
8256.52
7274.45
6334.81
7197.47
7932.67
8487.28
9001.2
9514.35
9980.43
10385
10738.7
11045.5
11302.2
11507.1
11660.7
11763.2
11814.6
11814.7
11763.4
11660.9
11507.2
11302
11044.9
10737.6
10383.3
9978.33
9512.04
8998.87
8484.97
7930.34
7195.17
6332.73
5542.48
6300.49
6960.94
7449.15
7893.69
8342.02
8751.8
9105.51
9412.82
9679.1
9902.17
10080.1
10213.1
10301.8
10346.3
10346.3
10301.9
10213.2
10080.2
9902.08
9678.66
9411.85
9103.97
8749.75
8339.67
7891.23
7446.63
6958.34
6297.89
5540.07
4439.18
5042.37
5588.51
5982.79
6330.71
6686.12
7015.27
7297.99
7541.27
7751.66
7928.26
8069.16
8174.3
8244.26
8279.27
8279.27
8244.28
8174.36
8069.26
7928.28
7751.43
7540.61
7296.8
7013.57
6684.04
6328.43
5980.35
5585.91
5039.72
4436.67
)
;

boundaryField
{
    fixedWall_Bottom
    {
        type            calculated;
        value           nonuniform List<scalar> 
30
(
124692
127115
128632
129918
130979
131880
132646
133298
133848
134305
134678
134970
135187
135330
135401
135401
135330
135187
134970
134678
134305
133848
133298
132646
131880
130979
129918
128633
127115
124693
)
;
    }
    fixedWall_Right
    {
        type            calculated;
        value           nonuniform List<scalar> 
30
(
65233.9
59994.8
56310.4
52990.1
49942.2
47007.2
44214.4
41552.5
38988.9
36505
34095.9
31759.9
29495.6
27303.9
25188.1
23152.5
21201.8
19340.6
17573.3
15903.3
14333.2
12864.5
11497.8
10232.1
9065.77
7995.29
7018.61
6116.88
5359.44
4306.12
)
;
    }
    fixedWall_Left
    {
        type            calculated;
        value           nonuniform List<scalar> 
30
(
65233.7
59994.5
56310.1
52989.7
49941.8
47006.9
44214.1
41551.8
38987.7
36503.9
34095.7
31760.9
29497.2
27304.8
25187
23149
21196.2
19333.9
17566.4
15896.9
14327.9
12860.6
11495.2
10230.8
9065.57
7996.05
7020.12
6118.95
5361.84
4308.62
)
;
    }
    fixedWall_Top
    {
        type            calculated;
        value           nonuniform List<scalar> 
30
(
4369.5
4951.1
5483.67
5867.63
6206.86
6554.35
6876.45
7153.08
7391.14
7597.1
7770.03
7908.02
8011
8079.52
8113.81
8113.81
8079.53
8011.05
7908.11
7770.05
7596.87
7390.49
7151.91
6874.77
6552.3
6204.6
5865.22
5481.11
4948.49
4367.02
)
;
    }
    frontAndBack
    {
        type            empty;
    }
}


// ************************************************************************* //
