/*--------------------------------*- C++ -*----------------------------------*\
| =========                 |                                                 |
| \\      /  F ield         | OpenFOAM: The Open Source CFD Toolbox           |
|  \\    /   O peration     | Version:  2312                                  |
|   \\  /    A nd           | Website:  www.openfoam.com                      |
|    \\/     M anipulation  |                                                 |
\*---------------------------------------------------------------------------*/
FoamFile
{
    version     2.0;
    format      ascii;
    arch        "LSB;label=32;scalar=64";
    class       volScalarField;
    location    "0.03";
    object      ILambda_10_0;
}
// * * * * * * * * * * * * * * * * * * * * * * * * * * * * * * * * * * * * * //

dimensions      [1 0 -3 0 0 0 0];

internalField   nonuniform List<scalar> 
900
(
6394.16
13952.6
17379.3
18492.8
18591.9
18385.7
18179.3
18058
18013.3
18012.3
18026.9
18041.3
18050.1
18053.4
18053.3
18051.8
18050.2
18048.9
18048.2
18047.9
18047.9
18048
18048.1
18048.2
18048.2
18048.3
18048.3
18048.3
18048.3
18048.3
-292.6
3710.76
9284.67
13953.8
16878.2
18253.5
18635.9
18546.4
18327
18142.9
18039.8
18004.9
18008.8
18026.4
18043.4
18054.5
18059.6
18060.6
18059.5
18057.7
18056.1
18055
18054.3
18053.9
18053.8
18053.7
18053.7
18053.8
18053.8
18053.9
-606.381
-508.123
2014.36
6256.79
10796.3
14516.9
16960.9
18212.6
18624.7
18584
18383.2
18188
18061.3
18004.8
17995.8
18009.6
18029.1
18045.3
18055.7
18060.9
18062.6
18062.3
18061.2
18060.1
18059.2
18058.5
18058.1
18057.9
18057.8
18057.8
-131.831
-761.693
-747.548
827.201
3985.87
7999.26
11928.1
15074
17154.4
18245.9
18621.6
18591.7
18403.4
18207
18067
17993
17969
17973.6
17989.6
18006.5
18019.8
18028.4
18033
18035
18035.5
18035.2
18034.7
18034.2
18033.8
18033.5
26.8422
-226.257
-743.668
-907.88
-1.32809
2268.33
5615.58
9381.29
12865.8
15585.9
17369.1
18305.7
18629.4
18599.2
18423
18231
18083.6
17994.7
17954.1
17945
17951.9
17964.2
17976.1
17985.3
17991.4
17995
17996.8
17997.5
17997.7
17997.6
20.4037
19.9542
-216.946
-676.032
-971.847
-544.021
998.249
3652.45
7031.95
10553.5
13671.5
16044.3
17580.7
18387.3
18671.2
18649.8
18495.6
18318.8
18173.7
18076.5
18022.5
17999.4
17994.8
17999.2
18006.4
18013.4
18018.9
18022.7
18024.9
18026.6
1.53565
36.2104
25.3602
-173.67
-578.807
-952.082
-863.477
95.4834
2094.66
4972.29
8303.74
11575.5
14363.6
16438.2
17771.9
18481.7
18748.8
18753.2
18636.1
18488.7
18359.1
18264.4
18204.8
18172.5
18158.5
18155.1
18156.7
18160
18163.4
18166.9
-2.2902
8.6659
42.6755
37.4177
-117.589
-466.074
-872.654
-1015.24
-508.008
912.31
3249.01
6234.41
9439.45
12431.5
14900
16707.6
17872.6
18511.7
18779.6
18822.1
18752.5
18645.5
18542.7
18461.6
18405.5
18371
18352.2
18343.5
18340.7
18340.6
-0.808793
-2.21436
11.7955
44.9225
51.2907
-59.6123
-350.858
-758.7
-1047.08
-872.411
65.2811
1875.91
4423.83
7384.2
10366
13033.5
15179.3
16737.1
17751.7
18331.5
18603.9
18684.6
18663
18599.3
18528.5
18467.5
18421.9
18391.1
18372.7
18359.4
0.0781605
-1.70497
-2.0649
11.579
44.5491
64.4844
-6.69122
-244.319
-631.536
-998.021
-1050.68
-491.982
844.854
2922.03
5515.95
8303.95
10967.8
13270.8
15089.3
16405.3
17275.3
17793.6
18062
18170.4
18188
18162.1
18121.6
18081.9
18050.3
18020.6
0.0920642
-0.0838285
-2.08127
-2.97463
9.13512
43.0962
75.5227
36.3612
-154.249
-506.522
-898.72
-1089.72
-808.878
129.613
1751.6
3918.67
6383.9
8872.42
11151.3
13069.3
14564
15645.7
16372
16820.9
17071.4
17191.9
17234.8
17236.3
17220.4
17193.5
-0.0231259
0.210987
-0.00604081
-2.64851
-4.94347
6.04905
41.6939
83.1367
66.7702
-84.5018
-393.408
-773.327
-1032.19
-938.825
-313.801
903.403
2638.39
4714.37
6910.45
9019.25
10886.2
12424.9
13612.5
14473.3
15059.4
15432.6
15652.9
15770.9
15824.2
15846.7
-0.0347745
-0.00630114
0.498567
0.0680822
-3.74929
-7.26097
3.70057
40.6408
86.3169
83.9174
-35.4267
-297.486
-640.687
-916.398
-936.649
-542.924
338.516
1676.64
3352.4
5198.45
7043.32
8745.73
10212.7
11401.8
12312.9
12974.5
13430.1
13727.9
13906.5
14039.1
-0.00292913
-0.113082
0.161358
0.882845
-0.192976
-5.23464
-9.02334
2.74282
39.5662
84.719
89.1685
-4.71498
-220.487
-514.308
-774.077
-852.956
-619.526
-0.7362
998.638
2303.05
3791.85
5331.26
6801.97
8116.37
9224.42
10110.6
10785.5
11277.6
11610.3
11899.4
0.0144033
-0.0765687
-0.110177
0.483376
1.1183
-0.884815
-6.62844
-9.63586
3.07457
37.9226
78.8576
85.2738
11.5415
-161.424
-402.307
-628.443
-728.887
-599.87
-176.67
549.681
1534.07
2693.1
3927.22
5141.54
6260.47
7234.75
8041.19
8680.92
9150.8
9603.33
0.0129048
-0.0164753
-0.142571
0.0257858
0.820018
1.02918
-1.81751
-7.46669
-9.01238
4.15732
35.3693
69.9038
75.5106
17.7293
-117.643
-308.158
-494.039
-593.787
-528.607
-245.217
270.885
994.513
1870.09
2826.37
3791.35
4703.97
5520.18
6218.24
6767.6
7344.39
0.00577511
0.0122994
-0.0743027
-0.137972
0.250116
1.00995
0.626051
-2.68098
-7.53326
-7.46977
5.37956
31.8924
59.28
62.914
17.8143
-85.8859
-232.053
-378.189
-465.848
-437.092
-250.353
109.624
629.906
1274.61
1994.35
2736.67
3454.13
4114.04
4667.22
5297.23
0.000867114
0.0146756
-0.0157322
-0.11427
-0.0509222
0.461487
0.979792
0.0619545
-3.23118
-6.89142
-5.49041
6.29189
27.7369
48.2966
49.8239
14.8529
-63.0565
-172.3
-283.113
-354.436
-344.813
-223.129
24.2255
391.379
855.784
1384.19
1939.09
2489.15
2979.34
3585.27
-0.00085888
0.00825956
0.00802018
-0.0508123
-0.107861
0.0774572
0.577117
0.764079
-0.479646
-3.37679
-5.77889
-3.51544
6.68281
23.2707
37.9453
37.759
10.8906
-46.6082
-126.405
-207.927
-262.847
-262.176
-183.398
-15.4414
239.595
567.928
947.228
1355.22
1742.09
2263.65
-0.000894328
0.00277823
0.0102572
-0.010082
-0.07016
-0.0594111
0.191326
0.572522
0.457452
-0.8707
-3.16421
-4.47572
-1.83817
6.544
18.8615
28.8409
27.5095
7.10193
-34.6364
-91.7476
-150.183
-190.704
-193.444
-142.557
-29.5785
145.267
373.327
643.243
916.677
1322.52
-0.000498197
0.000207478
0.00602532
0.00449582
-0.027818
-0.0647397
0.00565992
0.2544
0.474355
0.155781
-1.06551
-2.71436
-3.21211
-0.589185
5.99067
14.7987
21.2617
19.3243
4.027
-25.803
-65.9334
-106.875
-135.747
-139.17
-106.255
-30.7825
87.4588
245.837
418.729
705.8
-0.000187703
-0.000461521
0.00231018
0.00576856
-0.00511857
-0.0359065
-0.0406528
0.0612683
0.260172
0.331229
-0.0786545
-1.084
-2.16031
-2.13121
0.226461
5.1839
11.2632
15.2344
13.1092
1.80531
-19.2017
-46.9303
-75.0375
-95.0059
-97.969
-76.5651
-26.6478
54.194
151.009
335.886
-3.88427e-05
-0.000397296
0.000462701
0.00342509
0.00224782
-0.0130337
-0.0325417
-0.0106637
0.0931356
0.223343
0.187624
-0.223604
-0.979478
-1.6086
-1.2926
0.677022
4.27649
8.33228
10.6263
8.59068
0.361265
-14.2255
-33.0897
-52.0317
-65.4874
-67.6392
-53.7927
-19.7508
26.9306
134.974
8.49043e-06
-0.000207393
-0.000127824
0.00139148
0.00280209
-0.00222057
-0.0160947
-0.0216974
0.014358
0.100064
0.165847
0.0712398
-0.286328
-0.810559
-1.12562
-0.695174
0.858852
3.38551
6.0022
7.22366
5.43184
-0.469524
-10.4625
-23.1109
-35.662
-44.5032
-46.0002
-36.1935
-18.2982
38.3775
1.405e-05
-7.82114e-05
-0.000189103
0.000358295
0.001663
0.0010216
-0.00544444
-0.0143899
-0.00897013
0.0292325
0.0888976
0.10654
-0.00780824
-0.288675
-0.624782
-0.740622
-0.303604
0.866351
2.58516
4.2167
4.78906
3.30347
-0.865392
-7.62276
-15.9892
-24.1653
-29.918
-30.3583
-26.5513
-0.566318
8.98133e-06
-1.9117e-05
-0.000117368
-3.25976e-06
0.000698156
0.00122127
-0.000858952
-0.00652663
-0.00991128
0.0014801
0.0339727
0.0686862
0.0569291
-0.0517611
-0.255119
-0.453004
-0.456262
-0.0696866
0.776663
1.91171
2.8927
3.09701
1.92049
-0.981393
-5.49458
-10.9513
-16.2418
-19.6098
-21.2562
-11.5517
4.14511e-06
2.28717e-07
-5.22385e-05
-7.06881e-05
0.000203644
0.000721495
0.000428519
-0.00208362
-0.00577759
-0.00488566
0.00789146
0.0314446
0.0469125
0.0214047
-0.0689185
-0.205985
-0.310639
-0.259996
0.0538935
0.645105
1.37343
1.93971
1.9529
1.05491
-0.936796
-3.91126
-7.45233
-10.6592
-13.4876
-11.2639
1.48016e-06
3.62762e-06
-1.74145e-05
-5.21438e-05
2.11656e-05
0.000309442
0.000489524
-0.000304171
-0.00244828
-0.00405867
-0.000805341
0.010412
0.0251405
0.0281203
-0.000502645
-0.068817
-0.155058
-0.201806
-0.133123
0.106536
0.506633
0.96075
1.27193
1.19927
0.534582
-0.81108
-2.76281
-4.94364
-7.29565
-7.84175
3.75899e-07
2.64086e-06
-3.63047e-06
-2.59911e-05
-2.13233e-05
9.81885e-05
0.000287768
0.000165766
-0.000750947
-0.00215855
-0.00218742
0.00179846
0.0102261
0.0179411
0.0141025
-0.0119343
-0.0601154
-0.11066
-0.124291
-0.056114
0.119672
0.384176
0.660173
0.820135
0.717347
0.234458
-0.677932
-1.90803
-3.43528
-4.59103
-2.68922e-08
1.27366e-06
9.87405e-07
-8.63403e-06
-2.11081e-05
6.63502e-06
0.000111359
0.000196119
-2.0321e-05
-0.000733003
-0.00150682
-0.00103743
0.00205576
0.00740514
0.0113017
0.0072697
-0.0101392
-0.03955
-0.0684049
-0.0739437
-0.0313732
0.0726502
0.22655
0.386955
0.483126
0.43435
0.170371
-0.319797
-1.04705
-1.97716
)
;

boundaryField
{
    fixedWall_Bottom
    {
        type            greyDiffusiveRadiation;
        refValue        uniform 18049.5;
        refGradient     uniform 0;
        valueFraction   uniform 1;
        source          uniform 0;
        value           uniform 18049.5;
    }
    fixedWall_Right
    {
        type            greyDiffusiveRadiation;
        refValue        uniform 0;
        refGradient     uniform 0;
        valueFraction   uniform 0;
        source          uniform 0;
        value           nonuniform List<scalar> 
30
(
18048.3
18053.9
18057.8
18033.5
17997.6
18026.6
18166.9
18340.6
18359.4
18020.6
17193.5
15846.7
14039.1
11899.4
9603.33
7344.39
5297.23
3585.27
2263.65
1322.52
705.8
335.886
134.974
38.3775
-0.566318
-11.5517
-11.2639
-7.84175
-4.59103
-1.97716
)
;
    }
    fixedWall_Left
    {
        type            greyDiffusiveRadiation;
        refValue        uniform 0;
        refGradient     uniform 0;
        valueFraction   uniform 1;
        source          uniform 0;
        value           uniform 0;
    }
    fixedWall_Top
    {
        type            greyDiffusiveRadiation;
        refValue        uniform 0;
        refGradient     uniform 0;
        valueFraction   uniform 0;
        source          uniform 0;
        value           nonuniform List<scalar> 
30
(
-2.68922e-08
1.27366e-06
9.87405e-07
-8.63403e-06
-2.11081e-05
6.63502e-06
0.000111359
0.000196119
-2.0321e-05
-0.000733003
-0.00150682
-0.00103743
0.00205576
0.00740514
0.0113017
0.0072697
-0.0101392
-0.03955
-0.0684049
-0.0739437
-0.0313732
0.0726502
0.22655
0.386955
0.483126
0.43435
0.170371
-0.319797
-1.04705
-1.97716
)
;
    }
    frontAndBack
    {
        type            empty;
    }
}


// ************************************************************************* //
