/*--------------------------------*- C++ -*----------------------------------*\
| =========                 |                                                 |
| \\      /  F ield         | OpenFOAM: The Open Source CFD Toolbox           |
|  \\    /   O peration     | Version:  2312                                  |
|   \\  /    A nd           | Website:  www.openfoam.com                      |
|    \\/     M anipulation  |                                                 |
\*---------------------------------------------------------------------------*/
FoamFile
{
    version     2.0;
    format      ascii;
    arch        "LSB;label=32;scalar=64";
    class       volScalarField;
    location    "0.03";
    object      ILambda_3_0;
}
// * * * * * * * * * * * * * * * * * * * * * * * * * * * * * * * * * * * * * //

dimensions      [1 0 -3 0 0 0 0];

internalField   nonuniform List<scalar> 
900
(
13830.4
18747.4
18352.3
18053.3
18034.9
18048.5
18050.5
18049.6
18049.4
18049.4
18049.4
18049.5
18049.5
18049.5
18049.5
18049.5
18049.5
18049.5
18049.5
18049.5
18049.5
18049.5
18049.5
18049.5
18049.5
18049.5
18049.5
18049.5
18049.5
18049.5
7693.94
17560.8
18967.4
18323.4
18037.4
18027.8
18047.5
18051.2
18050.3
18049.9
18049.8
18049.8
18049.8
18049.8
18049.8
18049.8
18049.8
18049.8
18049.8
18049.8
18049.8
18049.8
18049.8
18049.8
18049.8
18049.8
18049.8
18049.8
18049.8
18049.8
3753.49
14584.2
18860.7
18778.2
18180.1
18012.6
18029
18048.1
18050.8
18049.8
18049.5
18049.5
18049.4
18049.4
18049.4
18049.4
18049.4
18049.4
18049.4
18049.4
18049.4
18049.4
18049.4
18049.4
18049.4
18049.4
18049.4
18049.4
18049.4
18049.4
1445.48
10959.1
17686.6
19089.9
18496
18068.6
18004.3
18033.9
18048.2
18049
18048.1
18048
18048.1
18048
18048
18048
18048
18048
18048
18048
18048
18048
18048
18048
18048
18048
18048
18048
18048
18048
230.084
7493.84
15548
18909.1
18881.3
18252.9
18011.2
18012.4
18041.7
18049.6
18048.7
18048.1
18048.2
18048.3
18048.3
18048.3
18048.2
18048.2
18048.2
18048.2
18048.2
18048.2
18048.2
18048.2
18048.2
18048.2
18048.2
18048.2
18048.2
18048.2
-309.324
4615.45
12797.2
18026.9
19130
18559.4
18094.7
17999
18030.1
18051.6
18053.6
18051.8
18051.4
18051.8
18052
18052
18051.9
18051.9
18051.9
18051.9
18051.9
18051.9
18051.9
18051.9
18051.9
18051.9
18051.9
18051.9
18051.9
18051.9
-465.503
2466.57
9844.93
16424.9
19018.8
18901.8
18279.2
18015.8
18010.8
18047.3
18059
18057.1
18055
18054.9
18055.3
18055.5
18055.5
18055.5
18055.5
18055.4
18055.4
18055.4
18055.4
18055.4
18055.4
18055.4
18055.4
18055.4
18055.4
18055.4
-430.323
1015
7040.83
14245.5
18386.5
19139
18553.1
18089.5
17988
18025.4
18054.8
18058.3
18054.5
18052.6
18052.7
18053.1
18053.3
18053.3
18053.3
18053.3
18053.3
18053.3
18053.3
18053.3
18053.3
18053.3
18053.3
18053.3
18053.3
18053.3
-320.59
140.586
4621.24
11723.6
17175.6
19116.2
18865.7
18248.3
17985.5
17984.7
18032.1
18050.5
18048.8
18044.6
18043.2
18043.3
18043.7
18043.9
18043.9
18043.9
18043.9
18043.9
18043.9
18043.9
18043.9
18043.9
18043.9
18043.9
18043.9
18043.9
-200.795
-305.48
2704
9116.97
15433.2
18700.5
19125.9
18504.7
18046.3
17945.6
17991.5
18031.9
18040.6
18036.4
18032.8
18031.8
18032
18032.3
18032.4
18032.5
18032.5
18032.4
18032.4
18032.4
18032.4
18032.4
18032.4
18032.4
18032.4
18032.4
-101.254
-465.33
1308.67
6653.22
13289.5
17808.2
19209.9
18831.1
18213
17949.8
17949.3
18005.8
18033.6
18035.7
18031
18028.3
18027.7
18027.9
18028.1
18028.2
18028.2
18028.2
18028.2
18028.2
18028.2
18028.2
18028.2
18028.2
18028.2
18028.2
-31.6312
-456.628
386.224
4500
10925.4
16425.2
18984.4
19145.5
18497.4
18043.6
17936.5
17982
18030.4
18046.4
18044.9
18040.9
18039
18038.7
18038.8
18039
18039
18039.1
18039.1
18039
18039
18039
18039
18039
18039
18039
9.55643
-366.451
-151.055
2753.31
8536.59
14613.6
18342
19321.2
18858.2
18253.1
17988.2
17977.3
18032.7
18066.9
18074.4
18071.7
18068.7
18067.5
18067.3
18067.4
18067.5
18067.6
18067.6
18067.6
18067.6
18067.6
18067.6
18067.6
18067.6
18067.6
28.6667
-252.307
-404.359
1440.56
6299.87
12500.2
17234.5
19218.3
19198.7
18562.3
18127
18009.7
18043
18090.4
18111.4
18113.8
18111.1
18109.1
18108.4
18108.3
18108.4
18108.5
18108.5
18108.5
18108.5
18108.5
18108.5
18108.5
18108.5
18108.5
33.1176
-147.076
-469.806
534.274
4347.28
10250
15688.4
18724
19388.2
18905.9
18346.7
18090.1
18062.9
18107
18140.7
18152.1
18152.1
18150
18148.7
18148.3
18148.3
18148.3
18148.4
18148.4
18148.4
18148.4
18148.4
18148.4
18148.4
18148.4
29.3812
-65.5164
-427.216
-28.8159
2754.03
8031.86
13799
17783.6
19295.9
19180.2
18604.8
18212.1
18090.2
18105.5
18144
18165.2
18170.6
18169.8
18168.3
18167.5
18167.3
18167.3
18167.3
18167.3
18167.3
18167.4
18167.4
18167.4
18167.4
18167.4
22.2078
-10.685
-335.548
-328.122
1539.88
5989.45
11706.3
16413.5
18825
19267.3
18826.7
18346.9
18114.7
18074
18102
18129.8
18141.9
18144.1
18143.1
18142.1
18141.7
18141.6
18141.6
18141.6
18141.6
18141.6
18141.6
18141.6
18141.6
18141.6
14.5913
20.7392
-233.364
-443.209
680.332
4222.84
9565.19
14693.2
17934.9
19063.6
18920.9
18443.7
18114.7
17998.6
17997.6
18023.7
18041.5
18047.9
18048.5
18047.7
18047.1
18046.9
18046.8
18046.8
18046.9
18046.9
18046.9
18046.9
18046.9
18046.9
8.09695
34.6317
-142.283
-443.252
122.463
2782.92
7516.63
12744.8
16646.7
18502.6
18798.5
18438.7
18057.3
17862.6
17816
17829.1
17848.6
17859.1
17862.1
17862.1
17861.6
17861.2
17861.1
17861.1
17861.1
17861.1
17861.1
17861.1
17861.1
17861.1
3.2985
37.0594
-71.5874
-381.98
-199.439
1676.34
5669.05
10706.7
15034.1
17567.1
18392.6
18266.8
17902.4
17646
17545.2
17533.6
17548.4
17561.1
17566.8
17568.2
17568
17567.7
17567.5
17567.4
17567.4
17567.4
17567.4
17567.4
17567.4
17567.4
0.179806
33.0833
-22.6955
-296.925
-351.357
876.571
4089.8
8708.86
13205.3
16289
17670.7
17875.1
17609.1
17327.1
17175.3
17130.5
17133.1
17144.8
17152.5
17155.4
17155.9
17155.7
17155.5
17155.4
17155.4
17155.4
17155.4
17155.4
17155.4
17155.4
-1.55996
26.3602
7.20991
-211.386
-391.393
336.964
2806.15
6856.61
11280.7
14739.5
16639
17232.8
17143.2
16885.3
16698.4
16618.1
16602.1
16608.5
16616.4
16620.8
16622.2
16622.3
16622.2
16622.1
16622
16622
16622
16622
16622
16622
-2.30635
19.2062
22.6184
-137.648
-365.777
2.66302
1812.54
5221.66
9374.73
13013.4
15338.9
16336.2
16484.5
16304.7
16109.6
15999
15960.9
15957.7
15963.7
15968.6
15970.9
15971.5
15971.6
15971.5
15971.4
15971.4
15971.4
15971.4
15971.4
15971.4
-2.41828
12.8717
28.1192
-80.3913
-308.095
-180.386
1080.51
3841.45
7581.38
11212.6
13837.3
15208.4
15630
15577.7
15407.4
15279.4
15219.8
15204
15205.4
15209.7
15212.5
15213.7
15214
15214
15213.9
15213.9
15213.9
15213.9
15213.9
15213.9
-2.17946
7.86614
27.6004
-39.6495
-240.551
-259.73
568.841
2723.73
5967.8
9432.37
12214.8
13894.6
14595
14707
14595.6
14468.5
14392.6
14363.2
14357.9
14360.2
14363
14364.5
14365.1
14365.2
14365.2
14365.2
14365.2
14365.2
14365.1
14365.1
-1.78875
4.24599
23.9697
-13.0622
-176.236
-273.683
232.02
1853.76
4572.68
7750.77
10553.6
12453.7
13410.2
13705.9
13682.8
13577.5
13494.6
13453.2
13440
13438.9
13440.9
13442.6
13443.4
13443.7
13443.7
13443.7
13443.7
13443.7
13443.7
13443.7
-1.37058
1.83492
19.1846
2.59367
-121.667
-250.891
26.4385
1203.02
3410.57
6226.25
8931.15
10954.2
12122.3
12602.4
12688.4
12625.3
12547
12497.8
12476.7
12471.4
12471.8
12473.2
12474.1
12474.5
12474.6
12474.7
12474.6
12474.6
12474.6
12474.6
-0.990391
0.359799
14.387
10.536
-78.7202
-210.729
-86.2865
732.94
2468.28
4880.29
7389.9
9436.37
10754.3
11401.2
11605.8
11601.7
11541
11490.2
11463.2
11453.3
11451.5
11452.2
11453.1
11453.6
11453.8
11453.8
11453.8
11453.8
11453.8
11453.8
-0.692006
-0.408859
10.3965
13.394
-48.589
-168.814
-136.33
422.08
1769.99
3806.92
6088.76
8096.85
9511.05
10297.5
10617.1
10679.7
10645.1
10598.1
10567
10552.7
10548.3
10547.9
10548.5
10549
10549.3
10549.4
10549.4
10549.4
10549.4
10549.4
-0.376725
-0.887829
5.9404
13.2341
-19.6138
-112.13
-149.199
140.076
1018
2515.25
4365.64
6157.7
7560.96
8454.12
8904.7
9067
9087.78
9062.46
9035.39
9018.89
9011.67
9009.53
9009.36
9009.66
9009.9
9010.03
9010.08
9010.09
9010.09
9010.09
)
;

boundaryField
{
    fixedWall_Bottom
    {
        type            greyDiffusiveRadiation;
        refValue        uniform 18049.5;
        refGradient     uniform 0;
        valueFraction   uniform 1;
        source          uniform 0;
        value           uniform 18049.5;
    }
    fixedWall_Right
    {
        type            greyDiffusiveRadiation;
        refValue        uniform 0;
        refGradient     uniform 0;
        valueFraction   uniform 0;
        source          uniform 0;
        value           nonuniform List<scalar> 
30
(
18049.5
18049.8
18049.4
18048
18048.2
18051.9
18055.4
18053.3
18043.9
18032.4
18028.2
18039
18067.6
18108.5
18148.4
18167.4
18141.6
18046.9
17861.1
17567.4
17155.4
16622
15971.4
15213.9
14365.1
13443.7
12474.6
11453.8
10549.4
9010.09
)
;
    }
    fixedWall_Left
    {
        type            greyDiffusiveRadiation;
        refValue        uniform 0;
        refGradient     uniform 0;
        valueFraction   uniform 1;
        source          uniform 0;
        value           uniform 0;
    }
    fixedWall_Top
    {
        type            greyDiffusiveRadiation;
        refValue        uniform 0;
        refGradient     uniform 0;
        valueFraction   uniform 0;
        source          uniform 0;
        value           nonuniform List<scalar> 
30
(
-0.376725
-0.887829
5.9404
13.2341
-19.6138
-112.13
-149.199
140.076
1018
2515.25
4365.64
6157.7
7560.96
8454.12
8904.7
9067
9087.78
9062.46
9035.39
9018.89
9011.67
9009.53
9009.36
9009.66
9009.9
9010.03
9010.08
9010.09
9010.09
9010.09
)
;
    }
    frontAndBack
    {
        type            empty;
    }
}


// ************************************************************************* //
