/*--------------------------------*- C++ -*----------------------------------*\
| =========                 |                                                 |
| \\      /  F ield         | OpenFOAM: The Open Source CFD Toolbox           |
|  \\    /   O peration     | Version:  2312                                  |
|   \\  /    A nd           | Website:  www.openfoam.com                      |
|    \\/     M anipulation  |                                                 |
\*---------------------------------------------------------------------------*/
FoamFile
{
    version     2.0;
    format      ascii;
    arch        "LSB;label=32;scalar=64";
    class       volScalarField;
    location    "0.03";
    object      ILambda_51_0;
}
// * * * * * * * * * * * * * * * * * * * * * * * * * * * * * * * * * * * * * //

dimensions      [1 0 -3 0 0 0 0];

internalField   nonuniform List<scalar> 
900
(
18055.8
18056.1
18056.3
18056.6
18056.9
18057.1
18057
18056.5
18055.3
18053
18049.2
18043.7
18036.6
18028.4
18020.8
18016.8
18021.2
18040.2
18081.4
18150.9
18250.3
18370
18479.7
18514.9
18358.8
17819.4
16604
14296
10355.5
4219.08
18040.1
18039.1
18037.8
18035.8
18032.7
18028.5
18023
18016.4
18009.3
18003.1
18000.2
18004.3
18020.3
18054.2
18111.4
18195
18301.6
18416.4
18506.8
18515.4
18355.4
17909.2
17034.7
15582.8
13433.8
10555.5
7090.47
3465.34
488.645
-697.972
17987.2
17983.3
17980
17976.5
17973.7
17972.9
17976.3
17986.7
18008.1
18044.6
18100.4
18177.6
18274.2
18380.4
18474.3
18517.4
18451.7
18198
17660.9
16739.5
15345.4
13429.1
11009.7
8205.09
5252.2
2501.08
362.666
-811.096
-917.834
-302.81
18044.5
18049.1
18056.1
18069.4
18091.1
18124.3
18171.6
18234.6
18312.4
18399.3
18482.3
18537.8
18528.6
18402.1
18091
17518
16605.3
15290.3
13544.6
11393.5
8931.52
6325.8
3804.53
1625.43
23.1558
-859.759
-1040.79
-728.869
-273.807
-3.85163
18332.4
18364.6
18396.5
18439.4
18491.1
18548.5
18604
18643.4
18644.3
18573.4
18386.1
18027.1
17434
16544.8
15309.6
13705
11749
9513.28
7125.65
4760.37
2614.03
870.369
-338.896
-968.328
-1078.66
-831.298
-447.166
-130.957
12.2236
14.6329
18593
18631.5
18656.3
18671.2
18661.1
18606.1
18478.2
18240.8
17849.8
17255.4
16408.2
15266.4
13806.9
12037
10004.2
7802.05
5565.75
3457.5
1640.14
244.964
-657.764
-1075.87
-1093.44
-850.133
-506.533
-202.712
-20.2032
36.3293
21.8426
0.984161
18186
18123.1
18032.9
17871.4
17613.9
17225.2
16666.9
15899.6
14888.5
13610.6
12063.2
10272.4
8299.26
6240.77
4223.62
2388.63
867.414
-244.435
-910.085
-1161.61
-1092.03
-830.152
-506.899
-224.955
-40.7478
38.4946
43.4962
20.0056
2.3563
-0.97094
16534.3
16212.2
15877.9
15394.9
14749.5
13911
12858
11581.4
10090.8
8420.22
6631.42
4813.09
3074.06
1529.98
284.502
-591.533
-1077.5
-1210.43
-1077.86
-795.991
-479.45
-213.573
-39.9405
40.9872
55.0373
36.4516
13.6257
0.999786
-1.31905
-0.145
13582.3
12909.6
12291.7
11480.2
10498.5
9340.71
8022.48
6577.6
5060.75
3545.75
2119.77
873.055
-115.185
-792.087
-1144.08
-1202.89
-1041.08
-756.237
-447.303
-190.514
-24.0608
52.5307
65.2768
47.0234
23.1132
6.37298
-0.730767
-1.47403
-0.376052
0.0713959
9867.25
8910.71
8113.27
7140.71
6060
4892.92
3684.36
2491.22
1379.31
415.708
-341.044
-851.74
-1105.78
-1126.02
-966.695
-703.355
-416.325
-172.111
-8.92799
68.0406
79.6811
57.8362
29.8086
9.95984
0.614737
-1.79148
-1.30256
-0.384215
0.0331076
0.0281611
6202.65
5162.82
4376.78
3482.72
2573.06
1680.55
853.412
139.217
-420.254
-796.409
-980.225
-986.02
-850.901
-628.992
-380.924
-160.869
-4.82741
75.7783
92.5666
71.1693
38.6388
13.1331
0.383456
-2.79489
-2.01399
-0.838897
-0.222733
-0.00322177
0.0310936
0.00460962
3258.57
2354.73
1744.49
1100.52
511.65
2.05719
-398.329
-669.295
-803.135
-807.606
-706.146
-534.879
-336.453
-151.74
-11.441
69.8868
95.2087
81.0491
49.5276
19.6087
1.30898
-4.88482
-4.06527
-1.64952
-0.276839
0.0183135
-0.00631833
0.000120837
0.0115645
0.00116314
1318.02
680.453
309.45
-47.0334
-324.502
-515.773
-613.586
-621.511
-553.24
-431.365
-284
-139.844
-22.7078
53.0992
85.0343
81.3554
57.0525
28.0472
5.87367
-5.04995
-6.65878
-3.89789
-1.04173
0.200495
0.238102
0.0181856
-0.0360591
0.000124895
0.00904313
-0.000543023
291.824
-68.981
-234.36
-370.218
-440.885
-452.271
-411.063
-330.641
-228.458
-123.409
-32.4999
32.2868
66.097
71.5603
57.1633
34.0544
12.3348
-1.82296
-7.17012
-6.26402
-3.03503
-0.454815
0.500457
0.374274
0.0497504
-0.0598308
-0.020884
0.0102198
0.00465054
-0.00132749
-106.233
-260.107
-298.417
-313.451
-291.114
-241.79
-175.282
-103.391
-37.4344
13.6305
44.7815
55.6543
50.146
34.9345
17.3232
3.09804
-4.86438
-6.76935
-4.90194
-2.02745
-0.0255248
0.618673
0.41548
0.0711987
-0.0669353
-0.0394793
0.00427969
0.00891511
0.000259643
-0.000887415
-175.311
-212.323
-196.496
-169.478
-128.502
-82.0879
-37.0666
0.382224
26.1076
38.6025
39.1032
31.0393
18.9551
7.20025
-1.20246
-5.14507
-5.30095
-3.38481
-1.17893
0.215987
0.600917
0.384307
0.0765264
-0.0616517
-0.0489126
-0.00422825
0.00964884
0.00303691
-0.00115994
-0.000257113
-125.558
-115.501
-89.8626
-61.93
-32.7697
-7.02119
12.4276
23.9256
27.4509
24.4584
17.4209
9.13801
2.00494
-2.53806
-4.2079
-3.6838
-2.12031
-0.590131
0.303671
0.506671
0.314287
0.0687224
-0.0503753
-0.0488325
-0.0109457
0.00744958
0.00493059
-0.000239068
-0.000805013
3.5037e-05
-63.3424
-44.5248
-26.402
-9.8219
3.87461
13.1089
17.4726
17.3881
14.0254
8.97016
3.82036
-0.193316
-2.45318
-2.99553
-2.34601
-1.22408
-0.240193
0.294504
0.386527
0.234319
0.0542814
-0.0379402
-0.0423959
-0.0140636
0.00420018
0.00527685
0.000905006
-0.000777691
-0.000258351
7.25682e-05
-22.9154
-9.38459
-0.62168
6.09894
10.0824
11.2719
10.1433
7.48823
4.24367
1.26627
-0.851825
-1.88174
-1.94427
-1.39534
-0.657286
-0.0615098
0.240341
0.273047
0.162405
0.0389173
-0.0269008
-0.0332835
-0.0139501
0.00138728
0.00447833
0.0016314
-0.000399363
-0.000415815
-8.14827e-06
3.74017e-05
-4.35381
2.36934
5.18734
6.69216
6.69089
5.54627
3.75178
1.82492
0.200919
-0.853897
-1.27571
-1.17894
-0.784808
-0.329603
0.0139392
0.176007
0.181377
0.106116
0.0258864
-0.0181687
-0.0241871
-0.0118904
-0.000396525
0.00323174
0.00180252
1.73008e-05
-0.00038541
-0.000110361
3.78827e-05
1.02318e-05
1.42186
3.78622
4.03793
3.73012
2.87229
1.76794
0.689221
-0.154064
-0.650808
-0.797548
-0.677883
-0.421051
-0.154103
0.0360894
0.119318
0.114571
0.0660657
0.0162345
-0.0117697
-0.0165236
-0.00913094
-0.00121018
0.00204965
0.0015846
0.000290373
-0.000251957
-0.000156324
1.56717e-06
2.30155e-05
2.94368e-07
1.9583
2.3765
1.96377
1.41811
0.780897
0.204986
-0.21426
-0.434967
-0.470035
-0.37331
-0.216784
-0.066499
0.0352278
0.0762671
0.0694107
0.0395167
0.00971742
-0.00734639
-0.0107288
-0.00648778
-0.00137214
0.00115787
0.0012046
0.000391501
-0.000110727
-0.00014428
-3.11708e-05
1.69439e-05
7.65699e-06
-1.27741e-06
1.18734
1.02739
0.662277
0.32026
0.0239805
-0.176234
-0.267947
-0.264615
-0.198287
-0.107557
-0.0257703
0.0270515
0.0465237
0.0405995
0.0228576
0.00560387
-0.00443372
-0.00667506
-0.00433815
-0.00120155
0.000580133
0.000824292
0.000372381
-1.12051e-05
-0.000103392
-4.49407e-05
4.36206e-06
9.28999e-06
1.20209e-06
-7.64218e-07
0.506504
0.306019
0.115555
-0.0284847
-0.120967
-0.155832
-0.143548
-0.10211
-0.0515578
-0.00830758
0.0184216
0.0273161
0.0230481
0.012852
0.00313627
-0.00259506
-0.00400442
-0.00276188
-0.000919301
0.000249363
0.000519528
0.00029727
3.94603e-05
-6.02117e-05
-4.23401e-05
-5.56338e-06
6.55719e-06
2.96478e-06
-3.11635e-07
-2.67829e-07
0.152396
0.0352844
-0.0349791
-0.0750477
-0.0867728
-0.0754981
-0.0511762
-0.0239067
-0.00159243
0.0116291
0.0155344
0.012752
0.00705322
0.00171314
-0.00147696
-0.00232776
-0.00168831
-0.000644242
8.13174e-05
0.0003059
0.000211848
5.44461e-05
-2.78039e-05
-3.18857e-05
-9.95238e-06
2.70119e-06
3.07518e-06
4.83576e-07
-3.20726e-07
-5.67762e-08
0.0204969
-0.0279326
-0.0438667
-0.0465903
-0.0386838
-0.0250359
-0.0107206
0.000547451
0.00695629
0.0085972
0.00689924
0.00379056
0.000917392
-0.00081936
-0.00131631
-0.000997192
-0.000423632
7.32821e-06
0.000169748
0.000138991
5.01556e-05
-8.35758e-06
-2.04807e-05
-9.97836e-06
-1.8555e-07
2.17543e-06
8.96089e-07
-8.86689e-08
-1.4041e-07
-2.1504e-10
-0.0111992
-0.0253
-0.0242923
-0.0193534
-0.0119872
-0.00463987
0.000943014
0.00399348
0.0046474
0.00365998
0.00200018
0.0004833
-0.000443999
-0.000726405
-0.000571841
-0.000265171
-1.84123e-05
8.92098e-05
8.549e-05
3.87077e-05
1.05155e-06
-1.14856e-05
-7.87643e-06
-1.59412e-06
1.10084e-06
8.7286e-07
1.30856e-07
-1.04589e-07
-4.0687e-08
6.30758e-09
-0.0110733
-0.0128398
-0.0094475
-0.00562282
-0.0019309
0.000790486
0.00221822
0.0024609
0.00190782
0.00103843
0.000251124
-0.000235459
-0.000392208
-0.000319564
-0.000159489
-2.25341e-05
4.44695e-05
4.98755e-05
2.68122e-05
4.33871e-06
-5.60452e-06
-5.34992e-06
-1.88452e-06
3.07269e-07
6.25658e-07
2.27079e-07
-3.02347e-08
-4.73007e-08
-6.79431e-09
3.50466e-09
-0.00581101
-0.00475135
-0.0025755
-0.000775151
0.00053757
0.00119984
0.00128224
0.000982143
0.000533901
0.00013045
-0.000121905
-0.000207783
-0.000174956
-9.31601e-05
-1.90142e-05
2.09096e-05
2.78405e-05
1.7253e-05
4.61899e-06
-2.26536e-06
-3.24579e-06
-1.60493e-06
-1.20506e-07
3.51839e-07
2.17632e-07
2.65331e-08
-3.0873e-08
-1.44449e-08
6.43323e-10
1.25444e-09
-0.00190334
-0.000911276
-7.52578e-05
0.000431332
0.000647986
0.00061529
0.000434381
0.000211189
2.63486e-05
-8.05374e-05
-0.000109492
-8.61768e-05
-4.35352e-05
-7.00761e-06
1.20931e-05
1.50275e-05
9.39073e-06
2.69836e-06
-1.12854e-06
-1.85141e-06
-1.03914e-06
-1.69886e-07
1.84271e-07
1.54621e-07
3.91577e-08
-1.46533e-08
-1.34352e-08
-2.11792e-09
1.23085e-09
2.78627e-10
)
;

boundaryField
{
    fixedWall_Bottom
    {
        type            greyDiffusiveRadiation;
        refValue        uniform 18049.5;
        refGradient     uniform 0;
        valueFraction   uniform 1;
        source          uniform 0;
        value           uniform 18049.5;
    }
    fixedWall_Right
    {
        type            greyDiffusiveRadiation;
        refValue        uniform 0;
        refGradient     uniform 0;
        valueFraction   uniform 1;
        source          uniform 0;
        value           uniform 0;
    }
    fixedWall_Left
    {
        type            greyDiffusiveRadiation;
        refValue        uniform 0;
        refGradient     uniform 0;
        valueFraction   uniform 0;
        source          uniform 0;
        value           nonuniform List<scalar> 
30
(
18055.8
18040.1
17987.2
18044.5
18332.4
18593
18186
16534.3
13582.3
9867.25
6202.65
3258.57
1318.02
291.824
-106.233
-175.311
-125.558
-63.3424
-22.9154
-4.35381
1.42186
1.9583
1.18734
0.506504
0.152396
0.0204969
-0.0111992
-0.0110733
-0.00581101
-0.00190334
)
;
    }
    fixedWall_Top
    {
        type            greyDiffusiveRadiation;
        refValue        uniform 0;
        refGradient     uniform 0;
        valueFraction   uniform 0;
        source          uniform 0;
        value           nonuniform List<scalar> 
30
(
-0.00190334
-0.000911276
-7.52578e-05
0.000431332
0.000647986
0.00061529
0.000434381
0.000211189
2.63486e-05
-8.05374e-05
-0.000109492
-8.61768e-05
-4.35352e-05
-7.00761e-06
1.20931e-05
1.50275e-05
9.39073e-06
2.69836e-06
-1.12854e-06
-1.85141e-06
-1.03914e-06
-1.69886e-07
1.84271e-07
1.54621e-07
3.91577e-08
-1.46533e-08
-1.34352e-08
-2.11792e-09
1.23085e-09
2.78627e-10
)
;
    }
    frontAndBack
    {
        type            empty;
    }
}


// ************************************************************************* //
