/*--------------------------------*- C++ -*----------------------------------*\
| =========                 |                                                 |
| \\      /  F ield         | OpenFOAM: The Open Source CFD Toolbox           |
|  \\    /   O peration     | Version:  2312                                  |
|   \\  /    A nd           | Website:  www.openfoam.com                      |
|    \\/     M anipulation  |                                                 |
\*---------------------------------------------------------------------------*/
FoamFile
{
    version     2.0;
    format      ascii;
    arch        "LSB;label=32;scalar=64";
    class       volScalarField;
    location    "0.03";
    object      ILambda_52_0;
}
// * * * * * * * * * * * * * * * * * * * * * * * * * * * * * * * * * * * * * //

dimensions      [1 0 -3 0 0 0 0];

internalField   nonuniform List<scalar> 
900
(
18050.3
18050.2
18050.2
18050.2
18050.3
18050.4
18050.6
18051
18051.6
18052.5
18053.5
18054.4
18054.9
18054.2
18051.4
18045.3
18035.8
18024
18014.4
18016.1
18043.5
18113.5
18238
18405.2
18548.3
18494.4
17894.4
16141.3
12317.8
5319.15
18058
18058.2
18058.5
18058.9
18059.4
18060
18060.6
18060.9
18060.4
18058.5
18054.4
18047.2
18036.6
18023.5
18011.2
18006.5
18020.7
18068.1
18162
18303.8
18467.4
18576.4
18481.5
17947.8
16670.3
14343.1
10814.2
6344.05
1927.12
-574.639
18038.6
18038.8
18038.9
18038.7
18037.8
18035.9
18032.4
18026.8
18018.6
18008
17996.4
17987.3
17987.2
18005.6
18054.3
18143.9
18276.1
18431.7
18555.9
18542.9
18230.2
17410.4
15872.6
13477.2
10258
6523.68
2896.88
200.255
-900.403
-459.913
17994.8
17993.1
17990.9
17987.4
17982.5
17976
17968.7
17961.9
17958.9
17965
17987.6
18035.9
18118.3
18237.3
18381.9
18516.6
18570.2
18428.4
17937.5
16926.8
15252.9
12861.1
9850.29
6511.57
3310.52
782.22
-662.639
-963.513
-527.151
-46.8525
18022.9
18019.1
18015.7
18012.6
18011.2
18014.1
18025.3
18050.4
18095.8
18167.7
18268.7
18392.7
18518.1
18598.8
18557.5
18283.3
17640.1
16491.1
14738.3
12371.8
9513.32
6429.19
3497.11
1118.66
-405.723
-998.937
-864.289
-414.32
-61.1415
25.6316
18203
18205.8
18211.7
18224.7
18248.1
18286.2
18343.1
18420.4
18514.7
18612.5
18684.8
18681.1
18524.9
18115.7
17338.2
16084.6
14288
11961.1
9227.23
6326.32
3580.42
1319.28
-215.215
-950.024
-1010.76
-677.772
-273.206
-21.5581
36.9116
7.26393
18430
18453.6
18480.7
18520.4
18572.5
18634.5
18697.9
18744.1
18740.6
18637
18363
17831.7
16948.6
15630.2
13831
11572.7
8968.71
6227.67
3626.97
1452.54
-80.2668
-895.056
-1079.16
-848.584
-465.404
-143.088
19.3199
43.537
14.695
-1.42577
18401.4
18440.7
18474.3
18507.6
18527.2
18512.6
18431.1
18236.1
17866.5
17249.9
16310.9
14986
13243.7
11107.1
8672.38
6113.4
3663.51
1571.44
38.342
-843.585
-1123.02
-971.685
-619.082
-269.433
-40.9581
47.2795
44.2361
15.258
-0.543671
-0.987446
17773.7
17776
17753.7
17686.2
17544.1
17286.7
16863.2
16215.4
15284.7
14023.1
12408
10459.4
8253.6
5928.35
3672.29
1695.04
180.821
-762.721
-1140.96
-1074.25
-757.523
-390.754
-112.804
28.6003
60.1815
38.9713
12.0676
-0.66006
-1.61899
-0.038252
16339.6
16208.6
16038.2
15755.3
15325.3
14702.3
13841.5
12707
11281.7
9580.48
7659.91
5623.7
3617.3
1809.32
359.791
-618.745
-1095.44
-1135.69
-884.874
-522.13
-200.79
-3.12046
68.2016
60.9927
29.8528
6.85324
-1.54838
-1.68019
-0.298896
0.0817386
14119.2
13763.4
13378.7
12822.2
12076.2
11111.6
9915.45
8496.89
6895.33
5184.78
3472.02
1885.93
557.217
-408.767
-959.781
-1115.24
-966.019
-650.868
-314.557
-63.2672
62.4819
84.078
54.1423
19.5759
1.18448
-2.8341
-1.49851
-0.251439
0.0465118
0.0155644
11352
10744.6
10155.7
9374.8
8418.53
7287.88
6008.85
4631.46
3230.34
1899.11
738.293
-162.361
-744.07
-996.072
-962.853
-736.295
-432.102
-156.762
22.6788
92.5726
83.5348
43.6777
10.3008
-3.67522
-4.14871
-1.28297
0.0472009
0.0766705
-0.0159372
0.00259228
8413.37
7618.78
6916.01
6048.68
5069.16
4004.57
2905.2
1835.71
869.202
76.346
-488.106
-798.573
-867.569
-746.181
-513.773
-258.17
-51.9722
66.2616
97.7717
73.3838
32.5614
3.20524
-6.99762
-5.16026
-1.16642
0.421418
0.236488
-0.0493846
-0.0300279
0.00946914
5690.4
4837.06
4147.26
3351.31
2522.76
1698.6
929.998
268.925
-239.366
-565.665
-704.581
-678.2
-533.382
-332.032
-136.175
7.80464
79.9949
88.2549
59.1271
22.6234
-1.4184
-8.62333
-5.66006
-1.1614
0.700017
0.467205
-0.0225689
-0.0837464
0.000570065
0.00782402
3467.21
2689.67
2118.9
1503.81
918.826
394.442
-34.3637
-341.248
-513.366
-555.523
-490.903
-357.438
-199.951
-59.7632
35.1541
75.9544
72.175
44.5838
14.7337
-3.856
-8.80753
-5.60932
-1.2023
0.8043
0.669054
0.067675
-0.118197
-0.0332461
0.0155119
0.00214014
1864.44
1253.14
851.7
450.466
109.271
-155.905
-330.471
-410.906
-405.735
-335.033
-227.025
-112.338
-17.1938
42.4219
63.5804
55.01
31.9001
9.04154
-4.67209
-8.00704
-5.11317
-1.21662
0.749931
0.773114
0.180844
-0.110822
-0.0713044
0.00616129
0.0114924
-0.00102511
849.139
431.848
193.739
-23.2206
-179.571
-272.852
-303.395
-279.985
-218.183
-137.724
-58.5757
3.29467
39.2168
49.0406
39.7477
21.8923
5.25664
-4.47687
-6.6955
-4.34834
-1.16695
0.600297
0.765952
0.271456
-0.0685156
-0.0928087
-0.0143564
0.0142059
0.00386791
-0.00136691
292.795
46.5702
-68.2171
-159.261
-205.208
-211.413
-184.836
-136.735
-80.2405
-27.8774
10.972
31.8513
35.6634
27.5448
14.5361
2.9129
-3.77999
-5.24884
-3.48987
-1.05361
0.421379
0.674909
0.314959
-0.0135973
-0.0908896
-0.0341762
0.00854766
0.0083903
-0.000156226
-0.00072855
39.4607
-83.372
-122.861
-145.085
-140.901
-117.743
-82.9853
-45.0668
-11.5872
12.11
23.8673
24.797
18.4617
9.40453
1.54996
-2.93322
-3.90643
-2.66794
-0.89833
0.258746
0.541557
0.311015
0.033547
-0.0715548
-0.0448518
-0.00140552
0.00921653
0.00252352
-0.000988756
-0.000206637
-45.2977
-93.7343
-96.8678
-90.7901
-72.8054
-49.0145
-24.4572
-3.64508
10.4643
16.9009
16.6396
12.0431
5.96259
0.800326
-2.13781
-2.78492
-1.95713
-0.727753
0.133857
0.402038
0.273741
0.0627548
-0.0455536
-0.0448301
-0.0103745
0.00645453
0.00443083
-5.57278e-05
-0.000647019
7.14753e-06
-53.874
-65.2825
-56.292
-44.0031
-28.2711
-12.839
-0.200314
8.03196
11.4678
10.8472
7.68246
3.72139
0.407617
-1.48262
-1.91438
-1.38568
-0.563692
0.0501468
0.279057
0.220601
0.0735034
-0.0216759
-0.0373445
-0.0153532
0.00218888
0.00462568
0.00114216
-0.000536936
-0.000247013
4.47e-05
-38.0947
-35.3319
-25.7803
-16.0261
-6.51031
1.00667
5.73006
7.52279
6.90277
4.80997
2.29437
0.209929
-0.986832
-1.27523
-0.951241
-0.419764
0.00123176
0.182295
0.165609
0.070585
-0.00432061
-0.0268785
-0.0161018
-0.00155449
0.00346369
0.00186125
-7.14876e-05
-0.000350003
-4.7531e-05
2.89861e-05
-20.9681
-15.2752
-8.81465
-3.20657
1.21508
3.8832
4.80029
4.30364
2.96399
1.401
0.112931
-0.63412
-0.826345
-0.635428
-0.301915
-0.0226063
0.112425
0.117176
0.0600479
0.0058613
-0.0168706
-0.0139669
-0.00378672
0.00180884
0.00190431
0.000398799
-0.000252327
-0.000138276
1.12936e-05
1.17548e-05
-9.37489
-4.86628
-1.47825
1.03232
2.53341
2.99236
2.63615
1.80151
0.848856
0.0653714
-0.39503
-0.522435
-0.414222
-0.210543
-0.0306038
0.0654235
0.0787766
0.0468741
0.0102802
-0.00906275
-0.0105911
-0.00449133
0.000363821
0.00147853
0.000654305
-5.89557e-05
-0.000154744
-3.24357e-05
1.53958e-05
3.05344e-06
-3.25323
-0.621717
0.777526
1.59853
1.82923
1.58974
1.0818
0.510961
0.041133
-0.23928
-0.323006
-0.264111
-0.142807
-0.0299027
0.0357314
0.050603
0.0342401
0.0109482
-0.00383158
-0.00719679
-0.0041451
-0.000560477
0.000897028
0.000670302
0.000110527
-0.000105362
-6.03809e-05
1.07103e-06
8.33728e-06
1.57925e-07
-0.657439
0.579207
0.984256
1.0975
0.94586
0.64256
0.305796
0.0276886
-0.141219
-0.195653
-0.165016
-0.0944589
-0.0252973
0.0180662
0.031172
0.0236934
0.00964321
-0.000796106
-0.00442064
-0.00329647
-0.000967809
0.000386549
0.000534128
0.000198422
-3.39523e-05
-5.96786e-05
-1.50214e-05
5.77447e-06
3.08815e-06
-3.63686e-07
0.163508
0.624654
0.646311
0.555513
0.378042
0.181993
0.0193665
-0.0813143
-0.116273
-0.101184
-0.0610628
-0.0196234
0.00818963
0.0184515
0.0156589
0.00760814
0.000680556
-0.00244136
-0.00235252
-0.0010103
4.18457e-05
0.000349113
0.00020774
2.33168e-05
-3.97208e-05
-2.26122e-05
-5.2919e-07
3.60262e-06
7.68123e-07
-2.61832e-07
0.277866
0.393792
0.320549
0.220397
0.107746
0.01368
-0.0457063
-0.0678624
-0.0609566
-0.0386435
-0.0143243
0.00304856
0.0104986
0.00993892
0.00556148
0.00120001
-0.00117869
-0.00153558
-0.000859466
-0.000138343
0.000184622
0.000169714
5.27544e-05
-1.55648e-05
-2.07529e-05
-5.70453e-06
1.89707e-06
1.48992e-06
5.02949e-08
-1.18381e-07
0.195452
0.193065
0.126918
0.0640624
0.00987542
-0.0250389
-0.0390248
-0.0362635
-0.0241149
-0.0100738
0.000573138
0.00573292
0.00609975
0.00385493
0.00122701
-0.000449467
-0.000924872
-0.000647104
-0.000200731
6.83041e-05
0.000116311
5.80777e-05
2.90641e-06
-1.36951e-05
-7.60741e-06
-3.87117e-07
1.30414e-06
4.49211e-07
-7.56185e-08
-4.01737e-08
0.0911008
0.0624426
0.0267578
0.000544076
-0.0159531
-0.0217105
-0.0192499
-0.0123982
-0.00490394
0.000654058
0.00329998
0.00343498
0.00219317
0.00073405
-0.000228387
-0.000535392
-0.000404466
-0.00014926
2.43559e-05
7.09619e-05
4.39295e-05
8.05483e-06
-7.4856e-06
-6.34461e-06
-1.41794e-06
7.3596e-07
5.45422e-07
4.62741e-08
-5.99586e-08
-7.24514e-09
)
;

boundaryField
{
    fixedWall_Bottom
    {
        type            greyDiffusiveRadiation;
        refValue        uniform 18049.5;
        refGradient     uniform 0;
        valueFraction   uniform 1;
        source          uniform 0;
        value           uniform 18049.5;
    }
    fixedWall_Right
    {
        type            greyDiffusiveRadiation;
        refValue        uniform 0;
        refGradient     uniform 0;
        valueFraction   uniform 1;
        source          uniform 0;
        value           uniform 0;
    }
    fixedWall_Left
    {
        type            greyDiffusiveRadiation;
        refValue        uniform 0;
        refGradient     uniform 0;
        valueFraction   uniform 0;
        source          uniform 0;
        value           nonuniform List<scalar> 
30
(
18050.3
18058
18038.6
17994.8
18022.9
18203
18430
18401.4
17773.7
16339.6
14119.2
11352
8413.37
5690.4
3467.21
1864.44
849.139
292.795
39.4607
-45.2977
-53.874
-38.0947
-20.9681
-9.37489
-3.25323
-0.657439
0.163508
0.277866
0.195452
0.0911008
)
;
    }
    fixedWall_Top
    {
        type            greyDiffusiveRadiation;
        refValue        uniform 0;
        refGradient     uniform 0;
        valueFraction   uniform 0;
        source          uniform 0;
        value           nonuniform List<scalar> 
30
(
0.0911008
0.0624426
0.0267578
0.000544076
-0.0159531
-0.0217105
-0.0192499
-0.0123982
-0.00490394
0.000654058
0.00329998
0.00343498
0.00219317
0.00073405
-0.000228387
-0.000535392
-0.000404466
-0.00014926
2.43559e-05
7.09619e-05
4.39295e-05
8.05483e-06
-7.4856e-06
-6.34461e-06
-1.41794e-06
7.3596e-07
5.45422e-07
4.62741e-08
-5.99586e-08
-7.24514e-09
)
;
    }
    frontAndBack
    {
        type            empty;
    }
}


// ************************************************************************* //
