/*--------------------------------*- C++ -*----------------------------------*\
| =========                 |                                                 |
| \\      /  F ield         | OpenFOAM: The Open Source CFD Toolbox           |
|  \\    /   O peration     | Version:  2312                                  |
|   \\  /    A nd           | Website:  www.openfoam.com                      |
|    \\/     M anipulation  |                                                 |
\*---------------------------------------------------------------------------*/
FoamFile
{
    version     2.0;
    format      ascii;
    arch        "LSB;label=32;scalar=64";
    class       volScalarField;
    location    "0.03";
    object      ILambda_0_0;
}
// * * * * * * * * * * * * * * * * * * * * * * * * * * * * * * * * * * * * * //

dimensions      [1 0 -3 0 0 0 0];

internalField   nonuniform List<scalar> 
900
(
17396.2
18253.4
18056.2
18048.6
18049.4
18049.4
18049.4
18049.4
18049.4
18049.4
18049.4
18049.4
18049.4
18049.4
18049.4
18049.4
18049.4
18049.4
18049.4
18049.4
18049.4
18049.4
18049.4
18049.4
18049.4
18049.4
18049.4
18049.4
18049.4
18049.4
16145.8
18580.2
18096.8
18045.4
18048.9
18049.4
18049.4
18049.4
18049.4
18049.4
18049.4
18049.4
18049.4
18049.4
18049.4
18049.4
18049.4
18049.4
18049.4
18049.4
18049.4
18049.4
18049.4
18049.4
18049.4
18049.4
18049.4
18049.4
18049.4
18049.4
14962.4
18813.1
18165.4
18043
18047.9
18049.8
18049.8
18049.8
18049.8
18049.8
18049.8
18049.8
18049.8
18049.8
18049.8
18049.8
18049.8
18049.8
18049.8
18049.8
18049.8
18049.8
18049.8
18049.8
18049.8
18049.8
18049.8
18049.8
18049.8
18049.8
13846.3
18954.6
18255.6
18043
18045.7
18049.7
18049.9
18049.8
18049.8
18049.8
18049.8
18049.8
18049.8
18049.8
18049.8
18049.8
18049.8
18049.8
18049.8
18049.8
18049.8
18049.8
18049.8
18049.8
18049.8
18049.8
18049.8
18049.8
18049.8
18049.8
12795
19011
18360.6
18046.9
18041.7
18048.7
18049.1
18049
18049
18049
18049
18049
18049
18049
18049
18049
18049
18049
18049
18049
18049
18049
18049
18049
18049
18049
18049
18049
18049
18049
11806.1
18990.7
18475.2
18057.1
18036.9
18047.3
18048.4
18048.3
18048.2
18048.2
18048.2
18048.2
18048.2
18048.2
18048.2
18048.2
18048.2
18048.2
18048.2
18048.2
18048.2
18048.2
18048.2
18048.2
18048.2
18048.2
18048.2
18048.2
18048.2
18048.2
10877
18901.7
18595.4
18076.1
18033
18046.9
18049.1
18048.9
18048.8
18048.8
18048.8
18048.8
18048.8
18048.8
18048.8
18048.8
18048.8
18048.8
18048.8
18048.8
18048.8
18048.8
18048.8
18048.8
18048.8
18048.8
18048.8
18048.8
18048.8
18048.8
10005.1
18750.3
18715.9
18104.7
18030.7
18047.3
18051.1
18050.9
18050.8
18050.8
18050.8
18050.8
18050.8
18050.8
18050.8
18050.8
18050.8
18050.8
18050.8
18050.8
18050.8
18050.8
18050.8
18050.8
18050.8
18050.8
18050.8
18050.8
18050.8
18050.8
9187.11
18541
18830.4
18141.3
18028.9
18047
18052.8
18052.7
18052.5
18052.5
18052.5
18052.5
18052.5
18052.5
18052.5
18052.5
18052.5
18052.5
18052.5
18052.5
18052.5
18052.5
18052.5
18052.5
18052.5
18052.5
18052.5
18052.5
18052.5
18052.5
8420.31
18278.5
18933.1
18183.8
18026.4
18044.1
18052.4
18052.5
18052.3
18052.3
18052.3
18052.3
18052.3
18052.3
18052.3
18052.3
18052.3
18052.3
18052.3
18052.3
18052.3
18052.3
18052.3
18052.3
18052.3
18052.3
18052.3
18052.3
18052.3
18052.3
7702.26
17968.5
19020.2
18231.2
18022.9
18038.2
18049.3
18049.8
18049.4
18049.4
18049.4
18049.4
18049.4
18049.4
18049.4
18049.4
18049.4
18049.4
18049.4
18049.4
18049.4
18049.4
18049.4
18049.4
18049.4
18049.4
18049.4
18049.4
18049.4
18049.4
7030.77
17617.8
19090.5
18283.6
18019.8
18029.9
18044.2
18045.2
18044.8
18044.7
18044.7
18044.7
18044.7
18044.7
18044.7
18044.7
18044.7
18044.7
18044.7
18044.7
18044.7
18044.7
18044.7
18044.7
18044.7
18044.7
18044.7
18044.7
18044.7
18044.7
6403.74
17233.5
19144.4
18342.6
18019.6
18021.3
18039
18040.9
18040.4
18040.3
18040.3
18040.3
18040.3
18040.3
18040.3
18040.3
18040.3
18040.3
18040.3
18040.3
18040.3
18040.3
18040.3
18040.3
18040.3
18040.3
18040.3
18040.3
18040.3
18040.3
5819.07
16822
19183.1
18410.3
18025.5
18015.3
18036.5
18039.5
18038.9
18038.8
18038.8
18038.8
18038.8
18038.8
18038.8
18038.8
18038.8
18038.8
18038.8
18038.8
18038.8
18038.8
18038.8
18038.8
18038.8
18038.8
18038.8
18038.8
18038.8
18038.8
5274.62
16388.6
19207.4
18488.3
18040.4
18014.3
18038.8
18043.4
18042.8
18042.5
18042.5
18042.5
18042.5
18042.5
18042.5
18042.5
18042.5
18042.5
18042.5
18042.5
18042.5
18042.5
18042.5
18042.5
18042.5
18042.5
18042.5
18042.5
18042.5
18042.5
4768.25
15936.9
19216.7
18577.1
18066.2
18019.9
18047.2
18053.8
18053.2
18052.8
18052.8
18052.8
18052.8
18052.8
18052.8
18052.8
18052.8
18052.8
18052.8
18052.8
18052.8
18052.8
18052.8
18052.8
18052.8
18052.8
18052.8
18052.8
18052.8
18052.8
4297.85
15468.9
19208.3
18674.5
18103
18031.8
18061.2
18070.1
18069.6
18069.2
18069.1
18069.1
18069.1
18069.1
18069.1
18069.1
18069.1
18069.1
18069.1
18069.1
18069.1
18069.1
18069.1
18069.1
18069.1
18069.1
18069.1
18069.1
18069.1
18069.1
3861.4
14984.9
19176.9
18775.9
18148.4
18047.8
18078
18089.5
18089.4
18088.8
18088.7
18088.7
18088.8
18088.8
18088.8
18088.8
18088.8
18088.8
18088.8
18088.8
18088.8
18088.8
18088.8
18088.8
18088.8
18088.8
18088.8
18088.8
18088.8
18088.8
3457
14484
19115.3
18873.4
18197.2
18063.3
18092.6
18106.9
18107.3
18106.6
18106.5
18106.5
18106.5
18106.5
18106.5
18106.5
18106.5
18106.5
18106.5
18106.5
18106.5
18106.5
18106.5
18106.5
18106.5
18106.5
18106.5
18106.5
18106.5
18106.5
3082.94
13964.8
19014.7
18956.8
18242
18071.3
18097.7
18115
18116.1
18115.3
18115.1
18115.1
18115.1
18115.1
18115.1
18115.1
18115.1
18115.1
18115.1
18115.1
18115.1
18115.1
18115.1
18115.1
18115.1
18115.1
18115.1
18115.1
18115.1
18115.1
2737.65
13425.6
18865.4
19013.9
18273
18063.4
18084.6
18104.7
18106.7
18105.8
18105.6
18105.6
18105.6
18105.6
18105.6
18105.6
18105.6
18105.6
18105.6
18105.6
18105.6
18105.6
18105.6
18105.6
18105.6
18105.6
18105.6
18105.6
18105.6
18105.6
2419.75
12865.2
18658
19031.4
18279.3
18029.9
18043.5
18066.1
18069.2
18068.3
18068
18068
18068
18068
18068
18068
18068
18068
18068
18068
18068
18068
18068
18068
18068
18068
18068
18068
18068
18068
2128
12283.5
18384.1
18996.3
18249.2
17960.8
17964.4
17988.9
17993.3
17992.5
17992.1
17992.1
17992.1
17992.1
17992.1
17992.1
17992.1
17992.1
17992.1
17992.1
17992.1
17992.1
17992.1
17992.1
17992.1
17992.1
17992.1
17992.1
17992.1
17992.1
1861.26
11681
18037.5
18896.1
18171.3
17846.3
17837.7
17863.5
17869.2
17868.6
17868.1
17868.1
17868.1
17868.1
17868.1
17868.1
17868.1
17868.1
17868.1
17868.1
17868.1
17868.1
17868.1
17868.1
17868.1
17868.1
17868.1
17868.1
17868.1
17868.1
1618.49
11059.9
17614.6
18721
18035.5
17677.9
17655.5
17681.6
17688.6
17688.2
17687.8
17687.7
17687.7
17687.7
17687.7
17687.7
17687.7
17687.7
17687.7
17687.7
17687.7
17687.7
17687.7
17687.7
17687.7
17687.7
17687.7
17687.7
17687.7
17687.7
1398.47
10422.4
17112.5
18461.5
17831.7
17446.9
17409.3
17434.8
17443.1
17443.1
17442.6
17442.5
17442.5
17442.5
17442.5
17442.5
17442.5
17442.5
17442.5
17442.5
17442.5
17442.5
17442.5
17442.5
17442.5
17442.5
17442.5
17442.5
17442.5
17442.5
1201.02
9778.29
16542.3
18122.6
17562.9
17157.3
17103.7
17127.7
17137.3
17137.5
17137
17136.9
17136.9
17136.9
17136.9
17136.9
17136.9
17136.9
17136.9
17136.9
17136.9
17136.9
17136.9
17136.9
17136.9
17136.9
17136.9
17136.9
17136.9
17136.9
1020.67
9104.05
15864
17656.3
17181.2
16763
16693.5
16715
16725.4
16726.1
16725.6
16725.5
16725.5
16725.5
16725.5
16725.5
16725.5
16725.5
16725.5
16725.5
16725.5
16725.5
16725.5
16725.5
16725.5
16725.5
16725.5
16725.5
16725.5
16725.5
877.648
8541.09
15289.3
17269.8
16876.6
16449.6
16365.2
16383.8
16395
16396.2
16395.7
16395.5
16395.5
16395.5
16395.5
16395.5
16395.5
16395.5
16395.5
16395.5
16395.5
16395.5
16395.5
16395.5
16395.5
16395.5
16395.5
16395.5
16395.5
16395.5
668.334
7487.36
13963.5
16148.7
15909.3
15495.8
15392.9
15404.9
15416.5
15418.2
15417.8
15417.6
15417.6
15417.6
15417.6
15417.6
15417.6
15417.6
15417.6
15417.6
15417.6
15417.6
15417.6
15417.6
15417.6
15417.6
15417.6
15417.6
15417.6
15417.6
)
;

boundaryField
{
    fixedWall_Bottom
    {
        type            greyDiffusiveRadiation;
        refValue        uniform 18049.5;
        refGradient     uniform 0;
        valueFraction   uniform 1;
        source          uniform 0;
        value           uniform 18049.5;
    }
    fixedWall_Right
    {
        type            greyDiffusiveRadiation;
        refValue        uniform 0;
        refGradient     uniform 0;
        valueFraction   uniform 0;
        source          uniform 0;
        value           nonuniform List<scalar> 
30
(
18049.4
18049.4
18049.8
18049.8
18049
18048.2
18048.8
18050.8
18052.5
18052.3
18049.4
18044.7
18040.3
18038.8
18042.5
18052.8
18069.1
18088.8
18106.5
18115.1
18105.6
18068
17992.1
17868.1
17687.7
17442.5
17136.9
16725.5
16395.5
15417.6
)
;
    }
    fixedWall_Left
    {
        type            greyDiffusiveRadiation;
        refValue        uniform 0;
        refGradient     uniform 0;
        valueFraction   uniform 1;
        source          uniform 0;
        value           uniform 0;
    }
    fixedWall_Top
    {
        type            greyDiffusiveRadiation;
        refValue        uniform 0;
        refGradient     uniform 0;
        valueFraction   uniform 0;
        source          uniform 0;
        value           nonuniform List<scalar> 
30
(
668.334
7487.36
13963.5
16148.7
15909.3
15495.8
15392.9
15404.9
15416.5
15418.2
15417.8
15417.6
15417.6
15417.6
15417.6
15417.6
15417.6
15417.6
15417.6
15417.6
15417.6
15417.6
15417.6
15417.6
15417.6
15417.6
15417.6
15417.6
15417.6
15417.6
)
;
    }
    frontAndBack
    {
        type            empty;
    }
}


// ************************************************************************* //
