/*--------------------------------*- C++ -*----------------------------------*\
| =========                 |                                                 |
| \\      /  F ield         | OpenFOAM: The Open Source CFD Toolbox           |
|  \\    /   O peration     | Version:  2312                                  |
|   \\  /    A nd           | Website:  www.openfoam.com                      |
|    \\/     M anipulation  |                                                 |
\*---------------------------------------------------------------------------*/
FoamFile
{
    version     2.0;
    format      ascii;
    arch        "LSB;label=32;scalar=64";
    class       volScalarField;
    location    "0.03";
    object      ILambda_63_0;
}
// * * * * * * * * * * * * * * * * * * * * * * * * * * * * * * * * * * * * * //

dimensions      [1 0 -3 0 0 0 0];

internalField   nonuniform List<scalar> 
900
(
18049.4
18049.4
18049.4
18049.4
18049.4
18049.4
18049.4
18049.4
18049.4
18049.4
18049.4
18049.4
18049.4
18049.4
18049.4
18049.4
18049.4
18049.4
18049.4
18049.4
18049.4
18049.4
18049.4
18049.4
18049.4
18049.4
18048.6
18056.2
18253.4
17396.2
18049.4
18049.4
18049.4
18049.4
18049.4
18049.4
18049.4
18049.4
18049.4
18049.4
18049.4
18049.4
18049.4
18049.4
18049.4
18049.4
18049.4
18049.4
18049.4
18049.4
18049.4
18049.4
18049.4
18049.4
18049.4
18048.9
18045.4
18096.8
18580.2
16145.8
18049.8
18049.8
18049.8
18049.8
18049.8
18049.8
18049.8
18049.8
18049.8
18049.8
18049.8
18049.8
18049.8
18049.8
18049.8
18049.8
18049.8
18049.8
18049.8
18049.8
18049.8
18049.8
18049.8
18049.8
18049.8
18047.9
18043
18165.4
18813.1
14962.4
18049.8
18049.8
18049.8
18049.8
18049.8
18049.8
18049.8
18049.8
18049.8
18049.8
18049.8
18049.8
18049.8
18049.8
18049.8
18049.8
18049.8
18049.8
18049.8
18049.8
18049.8
18049.8
18049.8
18049.9
18049.7
18045.7
18043
18255.6
18954.6
13846.3
18049
18049
18049
18049
18049
18049
18049
18049
18049
18049
18049
18049
18049
18049
18049
18049
18049
18049
18049
18049
18049
18049
18049
18049.1
18048.7
18041.7
18046.9
18360.6
19011
12795
18048.2
18048.2
18048.2
18048.2
18048.2
18048.2
18048.2
18048.2
18048.2
18048.2
18048.2
18048.2
18048.2
18048.2
18048.2
18048.2
18048.2
18048.2
18048.2
18048.2
18048.2
18048.2
18048.3
18048.4
18047.3
18036.9
18057.1
18475.2
18990.7
11806.1
18048.8
18048.8
18048.8
18048.8
18048.8
18048.8
18048.8
18048.8
18048.8
18048.8
18048.8
18048.8
18048.8
18048.8
18048.8
18048.8
18048.8
18048.8
18048.8
18048.8
18048.8
18048.8
18048.9
18049.1
18046.9
18033
18076.1
18595.4
18901.7
10877
18050.8
18050.8
18050.8
18050.8
18050.8
18050.8
18050.8
18050.8
18050.8
18050.8
18050.8
18050.8
18050.8
18050.8
18050.8
18050.8
18050.8
18050.8
18050.8
18050.8
18050.8
18050.8
18050.9
18051.1
18047.3
18030.7
18104.7
18715.9
18750.3
10005.1
18052.5
18052.5
18052.5
18052.5
18052.5
18052.5
18052.5
18052.5
18052.5
18052.5
18052.5
18052.5
18052.5
18052.5
18052.5
18052.5
18052.5
18052.5
18052.5
18052.5
18052.5
18052.5
18052.7
18052.8
18047
18028.9
18141.3
18830.4
18541
9187.11
18052.3
18052.3
18052.3
18052.3
18052.3
18052.3
18052.3
18052.3
18052.3
18052.3
18052.3
18052.3
18052.3
18052.3
18052.3
18052.3
18052.3
18052.3
18052.3
18052.3
18052.3
18052.3
18052.5
18052.4
18044.1
18026.4
18183.8
18933.1
18278.5
8420.32
18049.4
18049.4
18049.4
18049.4
18049.4
18049.4
18049.4
18049.4
18049.4
18049.4
18049.4
18049.4
18049.4
18049.4
18049.4
18049.4
18049.4
18049.4
18049.4
18049.4
18049.4
18049.4
18049.8
18049.3
18038.2
18022.9
18231.2
19020.2
17968.5
7702.26
18044.7
18044.7
18044.7
18044.7
18044.7
18044.7
18044.7
18044.7
18044.7
18044.7
18044.7
18044.7
18044.7
18044.7
18044.7
18044.7
18044.7
18044.7
18044.7
18044.7
18044.7
18044.8
18045.2
18044.2
18029.9
18019.8
18283.6
19090.5
17617.8
7030.77
18040.3
18040.3
18040.3
18040.3
18040.3
18040.3
18040.3
18040.3
18040.3
18040.3
18040.3
18040.3
18040.3
18040.3
18040.3
18040.3
18040.3
18040.3
18040.3
18040.3
18040.3
18040.4
18040.9
18039
18021.3
18019.6
18342.6
19144.4
17233.5
6403.74
18038.8
18038.8
18038.8
18038.8
18038.8
18038.8
18038.8
18038.8
18038.8
18038.8
18038.8
18038.8
18038.8
18038.8
18038.8
18038.8
18038.8
18038.8
18038.8
18038.8
18038.8
18038.9
18039.5
18036.5
18015.3
18025.5
18410.3
19183.1
16822
5819.07
18042.5
18042.5
18042.5
18042.5
18042.5
18042.5
18042.5
18042.5
18042.5
18042.5
18042.5
18042.5
18042.5
18042.5
18042.5
18042.5
18042.5
18042.5
18042.5
18042.5
18042.5
18042.8
18043.4
18038.8
18014.3
18040.4
18488.3
19207.4
16388.6
5274.62
18052.8
18052.8
18052.8
18052.8
18052.8
18052.8
18052.8
18052.8
18052.8
18052.8
18052.8
18052.8
18052.8
18052.8
18052.8
18052.8
18052.8
18052.8
18052.8
18052.8
18052.8
18053.2
18053.8
18047.2
18019.9
18066.2
18577.1
19216.7
15936.9
4768.25
18069.1
18069.1
18069.1
18069.1
18069.1
18069.1
18069.1
18069.1
18069.1
18069.1
18069.1
18069.1
18069.1
18069.1
18069.1
18069.1
18069.1
18069.1
18069.1
18069.1
18069.2
18069.6
18070.1
18061.2
18031.8
18103
18674.5
19208.3
15468.9
4297.85
18088.8
18088.8
18088.8
18088.8
18088.8
18088.8
18088.8
18088.8
18088.8
18088.8
18088.8
18088.8
18088.8
18088.8
18088.8
18088.8
18088.8
18088.8
18088.7
18088.7
18088.8
18089.4
18089.5
18078
18047.8
18148.4
18775.9
19176.9
14984.9
3861.4
18106.5
18106.5
18106.5
18106.5
18106.5
18106.5
18106.5
18106.5
18106.5
18106.5
18106.5
18106.5
18106.5
18106.5
18106.5
18106.5
18106.5
18106.5
18106.5
18106.5
18106.6
18107.3
18106.9
18092.6
18063.3
18197.2
18873.4
19115.3
14484
3457
18115.1
18115.1
18115.1
18115.1
18115.1
18115.1
18115.1
18115.1
18115.1
18115.1
18115.1
18115.1
18115.1
18115.1
18115.1
18115.1
18115.1
18115.1
18115.1
18115.1
18115.3
18116.1
18115
18097.7
18071.3
18242
18956.8
19014.7
13964.8
3082.94
18105.6
18105.6
18105.6
18105.6
18105.6
18105.6
18105.6
18105.6
18105.6
18105.6
18105.6
18105.6
18105.6
18105.6
18105.6
18105.6
18105.6
18105.6
18105.6
18105.6
18105.8
18106.7
18104.7
18084.6
18063.4
18273
19013.9
18865.4
13425.6
2737.65
18068
18068
18068
18068
18068
18068
18068
18068
18068
18068
18068
18068
18068
18068
18068
18068
18068
18068
18068
18068
18068.3
18069.2
18066.1
18043.5
18029.9
18279.3
19031.4
18658
12865.2
2419.75
17992.1
17992.1
17992.1
17992.1
17992.1
17992.1
17992.1
17992.1
17992.1
17992.1
17992.1
17992.1
17992.1
17992.1
17992.1
17992.1
17992.1
17992.1
17992.1
17992.1
17992.5
17993.3
17988.9
17964.4
17960.8
18249.2
18996.2
18384.2
12283.5
2128
17868.1
17868.1
17868.1
17868.1
17868.1
17868.1
17868.1
17868.1
17868.1
17868.1
17868.1
17868.1
17868.1
17868.1
17868.1
17868.1
17868.1
17868.1
17868.1
17868.1
17868.6
17869.2
17863.5
17837.7
17846.3
18171.3
18896.1
18037.5
11681
1861.26
17687.7
17687.7
17687.7
17687.7
17687.7
17687.7
17687.7
17687.7
17687.7
17687.7
17687.7
17687.7
17687.7
17687.7
17687.7
17687.7
17687.7
17687.7
17687.7
17687.8
17688.2
17688.6
17681.6
17655.5
17677.9
18035.5
18721
17614.6
11059.9
1618.49
17442.5
17442.5
17442.5
17442.5
17442.5
17442.5
17442.5
17442.5
17442.5
17442.5
17442.5
17442.5
17442.5
17442.5
17442.5
17442.5
17442.5
17442.5
17442.5
17442.6
17443.1
17443.1
17434.8
17409.2
17446.9
17831.7
18461.5
17112.5
10422.4
1398.47
17136.9
17136.9
17136.9
17136.9
17136.9
17136.9
17136.9
17136.9
17136.9
17136.9
17136.9
17136.9
17136.9
17136.9
17136.9
17136.9
17136.9
17136.9
17136.9
17137
17137.5
17137.3
17127.7
17103.7
17157.3
17562.9
18122.6
16542.3
9778.33
1201.02
16725.5
16725.5
16725.5
16725.5
16725.5
16725.5
16725.5
16725.5
16725.5
16725.5
16725.5
16725.5
16725.5
16725.5
16725.5
16725.5
16725.5
16725.5
16725.5
16725.6
16726.1
16725.4
16715
16693.5
16763
17181.2
17656.3
15863.9
9104.08
1020.66
16395.5
16395.5
16395.5
16395.5
16395.5
16395.5
16395.5
16395.5
16395.5
16395.5
16395.5
16395.5
16395.5
16395.5
16395.5
16395.5
16395.5
16395.5
16395.5
16395.7
16396.2
16395
16383.8
16365.2
16449.6
16876.6
17269.8
15289.2
8541.13
877.648
15417.6
15417.6
15417.6
15417.6
15417.6
15417.6
15417.6
15417.6
15417.6
15417.6
15417.6
15417.6
15417.6
15417.6
15417.6
15417.6
15417.6
15417.6
15417.6
15417.8
15418.2
15416.5
15404.9
15392.9
15495.8
15909.4
16148.7
13963.4
7487.4
668.333
)
;

boundaryField
{
    fixedWall_Bottom
    {
        type            greyDiffusiveRadiation;
        refValue        uniform 18049.5;
        refGradient     uniform 0;
        valueFraction   uniform 1;
        source          uniform 0;
        value           uniform 18049.5;
    }
    fixedWall_Right
    {
        type            greyDiffusiveRadiation;
        refValue        uniform 0;
        refGradient     uniform 0;
        valueFraction   uniform 1;
        source          uniform 0;
        value           uniform 0;
    }
    fixedWall_Left
    {
        type            greyDiffusiveRadiation;
        refValue        uniform 0;
        refGradient     uniform 0;
        valueFraction   uniform 0;
        source          uniform 0;
        value           nonuniform List<scalar> 
30
(
18049.4
18049.4
18049.8
18049.8
18049
18048.2
18048.8
18050.8
18052.5
18052.3
18049.4
18044.7
18040.3
18038.8
18042.5
18052.8
18069.1
18088.8
18106.5
18115.1
18105.6
18068
17992.1
17868.1
17687.7
17442.5
17136.9
16725.5
16395.5
15417.6
)
;
    }
    fixedWall_Top
    {
        type            greyDiffusiveRadiation;
        refValue        uniform 0;
        refGradient     uniform 0;
        valueFraction   uniform 0;
        source          uniform 0;
        value           nonuniform List<scalar> 
30
(
15417.6
15417.6
15417.6
15417.6
15417.6
15417.6
15417.6
15417.6
15417.6
15417.6
15417.6
15417.6
15417.6
15417.6
15417.6
15417.6
15417.6
15417.6
15417.6
15417.8
15418.2
15416.5
15404.9
15392.9
15495.8
15909.4
16148.7
13963.4
7487.4
668.333
)
;
    }
    frontAndBack
    {
        type            empty;
    }
}


// ************************************************************************* //
