/*--------------------------------*- C++ -*----------------------------------*\
| =========                 |                                                 |
| \\      /  F ield         | OpenFOAM: The Open Source CFD Toolbox           |
|  \\    /   O peration     | Version:  2312                                  |
|   \\  /    A nd           | Website:  www.openfoam.com                      |
|    \\/     M anipulation  |                                                 |
\*---------------------------------------------------------------------------*/
FoamFile
{
    version     2.0;
    format      ascii;
    arch        "LSB;label=32;scalar=64";
    class       volScalarField;
    location    "0.03";
    object      ILambda_48_0;
}
// * * * * * * * * * * * * * * * * * * * * * * * * * * * * * * * * * * * * * //

dimensions      [1 0 -3 0 0 0 0];

internalField   nonuniform List<scalar> 
900
(
17402.5
17191.5
17044.3
16862.5
16663.2
16442
16198.2
15930.5
15637.6
15318.5
14971.7
14596.1
14190.1
13752.2
13280.6
12773.6
12228.9
11644.5
11018.1
10347.3
9629.76
8863
8044.64
7172.2
6243.05
5254.37
4203.3
3087.12
1903.67
653.234
9191.82
8567.21
8167.24
7698.24
7219.14
6722.69
6213.83
5695.79
5172.25
4646.92
4123.51
3605.66
3096.87
2600.58
2120.11
1658.84
1220.26
808.07
426.351
79.5985
-227.23
-488.737
-699.158
-852.45
-942.316
-962.138
-904.9
-763.335
-530.721
-203.954
1350.15
937.683
702.623
440.542
195.557
-36.6756
-251.936
-447.843
-622.212
-773.382
-900.205
-1002.05
-1078.76
-1130.62
-1158.23
-1162.5
-1144.56
-1105.73
-1047.57
-971.905
-880.967
-777.451
-664.622
-546.344
-427.053
-311.717
-205.858
-115.59
-47.3798
-6.76912
-1092.91
-1140.32
-1147.14
-1148.53
-1135.89
-1111.24
-1074.82
-1027.62
-970.902
-906.17
-835.113
-759.509
-681.146
-601.743
-522.895
-446.04
-372.452
-303.25
-239.427
-181.865
-131.34
-88.4929
-53.7627
-27.3014
-8.88639
2.13223
6.84679
6.80513
4.02258
0.842557
-612.589
-549.831
-505.435
-455.198
-404.029
-352.412
-301.463
-252.202
-205.573
-162.394
-123.315
-88.7912
-59.0783
-34.2352
-14.1481
1.43682
12.8745
20.5854
25.027
26.6795
26.0423
23.6389
20.0193
15.7486
11.3743
7.37633
4.11783
1.81166
0.49582
0.00844044
-64.1791
-35.3544
-19.8532
-3.79017
9.8859
21.3964
30.5366
37.2789
41.6863
43.918
44.2148
42.8786
40.2485
36.6741
32.4913
28.0021
23.4617
19.0738
14.9922
11.3286
8.16014
5.53514
3.47357
1.96284
0.95319
0.359267
0.0720711
-0.0219608
-0.0228581
-0.00330013
43.3053
44.1417
43.023
41.4032
38.9857
35.9705
32.4831
28.685
24.7414
20.8139
17.0483
13.5661
10.4569
7.7757
5.54327
3.75008
2.36342
1.33559
0.61198
0.137379
-0.140254
-0.26867
-0.291786
-0.250074
-0.179336
-0.107618
-0.0520297
-0.0181921
-0.00312933
0.000345329
15.9438
13.2459
11.3826
9.40353
7.50977
5.73989
4.14211
2.75261
1.5943
0.67569
-0.00901259
-0.47843
-0.76126
-0.892655
-0.910181
-0.849972
-0.743621
-0.616257
-0.485961
-0.364414
-0.258316
-0.171004
-0.103669
-0.0558935
-0.025646
-0.00929916
-0.00224645
-0.000118356
0.000136709
2.22757e-05
0.30702
-0.400963
-0.724711
-1.02059
-1.21981
-1.33437
-1.36896
-1.33396
-1.24274
-1.11073
-0.953964
-0.787699
-0.625125
-0.476413
-0.348194
-0.243556
-0.162507
-0.102795
-0.0608854
-0.032888
-0.0152272
-0.0049721
0.000156193
0.00195642
0.00190436
0.00116381
0.000478297
0.00011645
8.74245e-06
-1.60462e-06
-0.968541
-0.922842
-0.850643
-0.766511
-0.66968
-0.56687
-0.463164
-0.36363
-0.272564
-0.193218
-0.127589
-0.0763518
-0.0389454
-0.0138017
0.00131991
0.00894905
0.0115369
0.011168
0.0093954
0.00721397
0.00514953
0.00341343
0.00205804
0.00108072
0.000458185
0.000135469
1.78821e-05
-2.04787e-06
4.27582e-07
2.13066e-07
-0.199232
-0.144431
-0.10919
-0.0746319
-0.0445443
-0.0194779
0.000104016
0.0141414
0.0229562
0.027197
0.027753
0.0256431
0.0218963
0.0174396
0.0130115
0.00911302
0.00600159
0.00372562
0.00218724
0.00121588
0.000633431
0.000296482
0.000110037
1.83345e-05
-1.36984e-05
-1.39876e-05
-5.20823e-06
6.04178e-08
5.27245e-07
-8.21332e-08
0.0144043
0.022188
0.024466
0.0258454
0.0256311
0.0241695
0.0217311
0.0186429
0.0152382
0.0118271
0.00866792
0.00594727
0.00376947
0.00215824
0.00106913
0.000410361
6.76813e-05
-7.18355e-05
-0.000101694
-8.6571e-05
-6.21249e-05
-4.18902e-05
-2.72459e-05
-1.61202e-05
-7.57617e-06
-2.09939e-06
1.53045e-07
3.22264e-07
4.78791e-09
-3.87048e-08
0.0116084
0.0102329
0.00880964
0.0073079
0.00578005
0.00432427
0.00301008
0.00189174
0.00100096
0.00034618
-8.59651e-05
-0.000326453
-0.000417784
-0.00040691
-0.000338379
-0.000248845
-0.000163818
-9.70199e-05
-5.21181e-05
-2.60466e-05
-1.27907e-05
-6.51493e-06
-3.29581e-06
-1.34279e-06
-2.06721e-07
2.06761e-07
1.60181e-07
1.84708e-08
-2.45737e-08
-2.53094e-09
0.00127454
0.000684109
0.00033976
3.48596e-05
-0.000196134
-0.000353875
-0.000442196
-0.000469837
-0.00044923
-0.00039486
-0.0003215
-0.000242526
-0.000168563
-0.000106673
-6.01701e-05
-2.90682e-05
-1.0993e-05
-2.33824e-06
6.22853e-07
9.13322e-07
4.59279e-07
1.28071e-07
6.34723e-08
1.07461e-07
1.14261e-07
6.32587e-08
9.09335e-09
-9.98269e-09
-4.18891e-09
1.05365e-09
-0.000241425
-0.000282823
-0.000278898
-0.00026524
-0.000238765
-0.000204134
-0.000165211
-0.000125784
-8.90888e-05
-5.75337e-05
-3.25395e-05
-1.45211e-05
-3.00862e-06
3.11745e-06
5.32563e-06
5.1258e-06
3.81412e-06
2.31445e-06
1.13494e-06
4.28213e-07
1.17131e-07
3.50178e-08
3.37209e-08
3.36923e-08
1.8962e-08
2.86277e-09
-3.61031e-09
-2.20376e-09
9.6002e-11
2.70334e-10
-8.09803e-05
-6.56056e-05
-5.18612e-05
-3.84685e-05
-2.60559e-05
-1.53441e-05
-6.73338e-06
-4.03556e-07
3.70211e-06
5.84091e-06
6.41404e-06
5.89555e-06
4.75897e-06
3.41361e-06
2.16076e-06
1.17574e-06
5.16075e-07
1.5026e-07
-2.72884e-09
-3.46142e-08
-1.94316e-08
-7.20924e-10
6.46836e-09
4.46019e-09
4.55679e-10
-1.29247e-09
-8.61246e-10
-5.93551e-11
1.48738e-10
1.55664e-11
-4.38289e-06
-5.66784e-07
1.41024e-06
2.93608e-06
3.8516e-06
4.22005e-06
4.13288e-06
3.70724e-06
3.07131e-06
2.34834e-06
1.64293e-06
1.03126e-06
5.56601e-07
2.30523e-07
3.89432e-08
-4.8542e-08
-6.83778e-08
-5.40961e-08
-3.04327e-08
-1.12704e-08
-1.01502e-09
1.92203e-09
1.25726e-09
3.43467e-11
-4.55258e-10
-3.0382e-10
-3.92483e-11
5.39635e-11
2.27999e-11
-4.83602e-12
1.73546e-06
1.83932e-06
1.69884e-06
1.50437e-06
1.25299e-06
9.78681e-07
7.08411e-07
4.64581e-07
2.62752e-07
1.10818e-07
9.28e-09
-4.74706e-08
-6.91456e-08
-6.7221e-08
-5.27236e-08
-3.45408e-08
-1.8512e-08
-7.35918e-09
-1.307e-09
9.11041e-10
1.02119e-09
4.51146e-10
-7.43341e-12
-1.50091e-10
-9.55412e-11
-1.35592e-11
1.77552e-11
1.04837e-11
-1.85852e-13
-1.22137e-12
3.70776e-07
2.76512e-07
1.9753e-07
1.25771e-07
6.43401e-08
1.62259e-08
-1.77128e-08
-3.80664e-08
-4.6694e-08
-4.63045e-08
-3.9975e-08
-3.06764e-08
-2.08837e-08
-1.23305e-08
-5.93341e-09
-1.87849e-09
1.75079e-10
8.37977e-10
7.50917e-10
4.16123e-10
1.25559e-10
-2.23102e-11
-5.16299e-11
-2.81518e-11
-2.95969e-12
6.00931e-12
3.85369e-12
3.32928e-13
-5.78906e-13
-8.74063e-14
9.4441e-09
-7.30423e-09
-1.50775e-08
-2.01236e-08
-2.21105e-08
-2.15795e-08
-1.92014e-08
-1.5699e-08
-1.17615e-08
-7.96575e-09
-4.72319e-09
-2.25833e-09
-6.19317e-10
2.84973e-10
6.3148e-10
6.26003e-10
4.54885e-10
2.54098e-10
9.89641e-11
1.19178e-11
-1.87489e-11
-1.79091e-11
-7.69248e-12
-1.88482e-13
2.02207e-12
1.24739e-12
1.67465e-13
-1.8704e-13
-8.55273e-14
1.23237e-14
-7.38943e-09
-7.51393e-09
-6.65255e-09
-5.59559e-09
-4.37524e-09
-3.14611e-09
-2.02381e-09
-1.0903e-09
-3.88797e-10
7.4884e-11
3.25812e-10
4.09831e-10
3.81916e-10
2.95258e-10
1.92963e-10
1.03579e-10
4.06254e-11
5.4168e-12
-8.27113e-12
-9.31656e-12
-5.51866e-12
-1.72052e-12
2.77545e-13
6.75026e-13
3.67623e-13
4.92323e-14
-5.82358e-14
-3.5e-14
-1.42654e-15
3.62602e-15
-1.26063e-09
-8.92548e-10
-5.85637e-10
-3.2125e-10
-1.07549e-10
4.72043e-11
1.43861e-10
1.89079e-10
1.93754e-10
1.70847e-10
1.33224e-10
9.1872e-11
5.4728e-11
2.62573e-11
7.73402e-12
-1.95082e-12
-5.22988e-12
-4.83592e-12
-3.04516e-12
-1.30308e-12
-2.17476e-13
2.0076e-13
2.14615e-13
9.85591e-14
9.34644e-15
-1.82948e-14
-1.16812e-14
-1.5831e-15
1.34683e-15
3.30982e-16
-2.60502e-11
2.98303e-11
5.50415e-11
6.9347e-11
7.29362e-11
6.81757e-11
5.78534e-11
4.47236e-11
3.11964e-11
1.90911e-11
9.51733e-12
2.88465e-12
-9.77146e-13
-2.62566e-12
-2.78995e-12
-2.17819e-12
-1.34427e-12
-6.28846e-13
-1.69431e-13
4.28127e-14
8.94861e-14
6.16449e-14
2.27657e-14
-5.40579e-17
-5.80313e-15
-3.48992e-15
-6.1448e-16
3.79651e-16
2.2131e-16
-9.75551e-18
2.09196e-11
2.15112e-11
1.88103e-11
1.54808e-11
1.17256e-11
8.04276e-12
4.79434e-12
2.2087e-12
3.77537e-13
-7.27901e-13
-1.2253e-12
-1.28186e-12
-1.07491e-12
-7.59716e-13
-4.49307e-13
-2.07765e-13
-5.55047e-14
1.77053e-14
3.71332e-14
2.96071e-14
1.51055e-14
4.05765e-15
-1.00032e-15
-1.7962e-15
-9.59026e-16
-1.72146e-16
1.06357e-16
7.92417e-17
1.12092e-17
-6.44365e-18
3.45667e-12
2.47662e-12
1.60211e-12
8.64945e-13
2.79607e-13
-1.3307e-13
-3.79786e-13
-4.84434e-13
-4.81868e-13
-4.10835e-13
-3.07563e-13
-2.01032e-13
-1.10452e-13
-4.50384e-14
-5.66681e-15
1.23324e-14
1.60971e-14
1.26418e-14
7.22687e-15
2.80156e-15
3.09567e-16
-5.48961e-16
-5.18298e-16
-2.38583e-16
-3.58094e-17
3.13493e-17
2.42029e-17
5.57351e-18
-1.56238e-18
-8.12886e-19
1.26454e-13
-2.47223e-14
-1.00562e-13
-1.44168e-13
-1.58788e-13
-1.50887e-13
-1.28214e-13
-9.82283e-14
-6.72447e-14
-3.98385e-14
-1.86251e-14
-4.3987e-15
3.45975e-15
6.42957e-15
6.2895e-15
4.66368e-15
2.74446e-15
1.20571e-15
2.70612e-16
-1.33141e-16
-2.03589e-16
-1.3488e-16
-5.20613e-17
-4.1187e-18
9.56384e-18
6.80956e-18
1.84905e-18
-3.05456e-19
-3.72456e-19
-3.49479e-20
-3.94562e-14
-4.44175e-14
-4.0164e-14
-3.37759e-14
-2.60118e-14
-1.81185e-14
-1.10371e-14
-5.35618e-15
-1.31808e-15
1.13111e-15
2.25581e-15
2.43077e-15
2.04651e-15
1.4369e-15
8.37705e-16
3.77193e-16
9.22088e-17
-4.11139e-17
-7.39272e-17
-5.79342e-17
-3.01667e-17
-9.21146e-18
7.33416e-19
2.85978e-18
1.78913e-18
5.03145e-19
-6.46292e-20
-1.1437e-19
-3.35475e-20
4.85271e-21
-7.66341e-15
-5.92485e-15
-4.06897e-15
-2.46536e-15
-1.151e-15
-1.8789e-16
4.24956e-16
7.3118e-16
8.01214e-16
7.15666e-16
5.50647e-16
3.67271e-16
2.06332e-16
8.80585e-17
1.57808e-17
-1.82187e-17
-2.65337e-17
-2.163e-17
-1.28324e-17
-5.37576e-18
-1.00584e-18
6.66324e-19
8.03576e-19
4.36026e-19
1.16578e-19
-1.80718e-20
-3.1892e-20
-1.23381e-20
-4.09402e-22
1.11216e-21
-5.04679e-16
-1.77908e-16
2.28112e-17
1.51606e-16
2.18094e-16
2.33599e-16
2.13238e-16
1.72198e-16
1.23732e-16
7.77963e-17
4.05058e-17
1.43449e-17
-1.06018e-18
-7.87913e-18
-9.0033e-18
-7.18132e-18
-4.48959e-18
-2.15327e-18
-6.43449e-19
7.37659e-20
2.62204e-19
2.05194e-19
9.66567e-20
2.24909e-20
-6.17373e-21
-8.50603e-21
-3.66124e-21
-4.29692e-22
3.12723e-22
1.09647e-22
4.62667e-17
6.47119e-17
6.36431e-17
5.66619e-17
4.58166e-17
3.35586e-17
2.18676e-17
1.20553e-17
4.76705e-18
7.31573e-20
-2.37274e-18
-3.14734e-18
-2.88352e-18
-2.13759e-18
-1.31307e-18
-6.40929e-19
-2.0349e-19
1.7347e-20
8.75983e-20
7.93098e-20
4.64285e-20
1.79037e-20
2.39865e-21
-2.51988e-21
-2.29538e-21
-9.55147e-22
-1.3248e-22
8.29361e-23
5.03173e-23
3.91178e-24
)
;

boundaryField
{
    fixedWall_Bottom
    {
        type            greyDiffusiveRadiation;
        refValue        uniform 18049.5;
        refGradient     uniform 0;
        valueFraction   uniform 1;
        source          uniform 0;
        value           uniform 18049.5;
    }
    fixedWall_Right
    {
        type            greyDiffusiveRadiation;
        refValue        uniform 0;
        refGradient     uniform 0;
        valueFraction   uniform 1;
        source          uniform 0;
        value           uniform 0;
    }
    fixedWall_Left
    {
        type            greyDiffusiveRadiation;
        refValue        uniform 0;
        refGradient     uniform 0;
        valueFraction   uniform 0;
        source          uniform 0;
        value           nonuniform List<scalar> 
30
(
17402.5
9191.82
1350.15
-1092.91
-612.589
-64.1791
43.3053
15.9438
0.30702
-0.968541
-0.199232
0.0144043
0.0116084
0.00127454
-0.000241425
-8.09803e-05
-4.38289e-06
1.73546e-06
3.70776e-07
9.4441e-09
-7.38943e-09
-1.26063e-09
-2.60502e-11
2.09196e-11
3.45667e-12
1.26454e-13
-3.94562e-14
-7.66341e-15
-5.04679e-16
4.62667e-17
)
;
    }
    fixedWall_Top
    {
        type            greyDiffusiveRadiation;
        refValue        uniform 0;
        refGradient     uniform 0;
        valueFraction   uniform 0;
        source          uniform 0;
        value           nonuniform List<scalar> 
30
(
4.62667e-17
6.47119e-17
6.36431e-17
5.66619e-17
4.58166e-17
3.35586e-17
2.18676e-17
1.20553e-17
4.76705e-18
7.31573e-20
-2.37274e-18
-3.14734e-18
-2.88352e-18
-2.13759e-18
-1.31307e-18
-6.40929e-19
-2.0349e-19
1.7347e-20
8.75983e-20
7.93098e-20
4.64285e-20
1.79037e-20
2.39865e-21
-2.51988e-21
-2.29538e-21
-9.55147e-22
-1.3248e-22
8.29361e-23
5.03173e-23
3.91178e-24
)
;
    }
    frontAndBack
    {
        type            empty;
    }
}


// ************************************************************************* //
