/*--------------------------------*- C++ -*----------------------------------*\
| =========                 |                                                 |
| \\      /  F ield         | OpenFOAM: The Open Source CFD Toolbox           |
|  \\    /   O peration     | Version:  2312                                  |
|   \\  /    A nd           | Website:  www.openfoam.com                      |
|    \\/     M anipulation  |                                                 |
\*---------------------------------------------------------------------------*/
FoamFile
{
    version     2.0;
    format      ascii;
    arch        "LSB;label=32;scalar=64";
    class       volScalarField;
    location    "0.03";
    object      ILambda_9_0;
}
// * * * * * * * * * * * * * * * * * * * * * * * * * * * * * * * * * * * * * //

dimensions      [1 0 -3 0 0 0 0];

internalField   nonuniform List<scalar> 
900
(
7452.63
15298.6
18151.3
18669
18453.5
18186.4
18044.2
18007.3
18018.2
18037.4
18049.5
18053.2
18052.4
18050.3
18048.7
18047.9
18047.8
18048
18048.2
18048.4
18048.5
18048.6
18048.6
18048.6
18048.6
18048.6
18048.6
18048.6
18048.6
18048.6
162.418
5738.65
12035.8
16296.9
18249.4
18707
18532.1
18252.3
18070.9
18004.5
18005.5
18027.7
18046.7
18055.8
18057.3
18055.1
18052.3
18050.2
18049.1
18048.8
18048.8
18048.9
18049.1
18049.2
18049.3
18049.4
18049.4
18049.4
18049.4
18049.4
-703.157
349.277
4511.85
9900.42
14471.4
17298
18508
18706.9
18489.2
18225.2
18059.6
17999.6
18002.8
18027.2
18049.4
18061.8
18065.7
18064.8
18062.2
18059.8
18058.1
18057.2
18056.8
18056.7
18056.8
18056.9
18056.9
18057
18057
18057
-261.507
-837.814
195.046
3500.13
8180.03
12742.5
16111.3
17989.3
18670.1
18664.4
18412.5
18171
18030.1
17982.9
17990.1
18015.7
18039.4
18054.3
18060.8
18062
18060.7
18058.8
18057.2
18056.1
18055.5
18055.3
18055.2
18055.2
18055.2
18055.2
-0.852155
-468.473
-866.818
-38.6165
2633.9
6718.88
11124.8
14807.2
17230.3
18416.3
18724.9
18585.2
18322.3
18107.1
17988.7
17950.7
17958
17981.3
18003.8
18019.3
18027.5
18030.6
18030.9
18030.1
18029.1
18028.2
18027.7
18027.3
18027.2
18027.1
35.7075
-76.3894
-535.696
-890.728
-275.054
1892.34
5452.2
9618.72
13450.8
16294.9
17963.9
18650.3
18717.1
18509.2
18257.4
18069.9
17968.6
17934.2
17937.4
17954.9
17973.3
17987
17995.4
17999.5
18001
18001.1
18000.8
18000.3
17999.9
17999.6
12.4282
44.3345
-117.019
-554.244
-906.751
-485.559
1260.38
4347.88
8228.18
12087.8
15234.6
17335.8
18429.2
18781.5
18715.8
18492.8
18269.3
18110.3
18023.2
17989.6
17986.8
17997
18009.7
18020.2
18027.2
18031.3
18033.2
18033.9
18034
18033.9
-1.35947
31.5876
42.7601
-132.681
-545.909
-911.789
-661.828
728.144
3390.78
6958.69
10748.3
14081.3
16537.6
18028.3
18715.8
18871.4
18755.1
18553.3
18368.7
18239.3
18165.8
18133.5
18125.7
18129.4
18136.7
18143.5
18148.6
18151.8
18153.5
18154.6
-2.5835
5.33127
42.2983
42.8692
-130.41
-522.236
-907.189
-801.891
290.499
2573.31
5813.18
9448.18
12848.5
15556.4
17391.9
18420.4
18846.3
18904.2
18788.3
18626.3
18484
18384
18324.8
18295.9
18285.6
18284.8
18287.8
18291.6
18294.6
18297.3
-0.681344
-3.36828
11.0878
49.4891
47.6751
-117.112
-492.464
-895.32
-904.064
-54.2918
1891.21
4793.48
8199.41
11548.4
14384.6
16473.2
17800.6
18502.1
18771.2
18791.2
18699.7
18581.8
18479.4
18406.4
18361.5
18337.6
18327.2
18324.2
18324.6
18326.5
0.229549
-2.11586
-3.36244
15.2262
56.4715
56.7833
-100.222
-463.611
-876.362
-965.287
-306.732
1341.41
3902.98
7018.91
10207.7
13043.8
15269.3
16814.6
17753.2
18232.1
18410.4
18421.8
18360.3
18281.6
18212.8
18162.6
18130.6
18112.4
18103.6
18099.1
0.190635
0.0394879
-3.5619
-3.85259
19.235
65.0641
67.05
-86.4514
-439.001
-847.942
-983.078
-469.726
918.559
3144.63
5928.27
8868.46
11587.3
13829
15490.7
16597
17250.2
17579
17703.5
17716.7
17681.1
17632.9
17589.5
17557
17535.9
17520.2
-0.0201969
0.602522
-0.516169
-5.69104
-4.20408
24.9
74.6463
74.0681
-79.9094
-418.267
-807.162
-958.437
-551.681
611.563
2516.31
4946.7
7577.54
10086.6
12237.6
13913.3
15104.5
15875.3
16323.7
16550.3
16640.4
16656.4
16639.3
16612.2
16587.2
16562.8
-0.0930702
0.28869
0.936734
-1.90471
-8.20168
-2.95131
32.6335
82.6725
74.3182
-81.263
-398.794
-752.668
-896.995
-566.788
403.029
2008.52
4085.14
6375.15
8612.94
10591.6
12194
13390.5
14215.8
14740.1
15043.5
15199.2
15265
15281.9
15276.3
15259.4
-0.0616769
-0.0445608
0.827062
0.730126
-4.16707
-9.95519
0.823584
41.1138
86.3084
66.6378
-88.3332
-377.475
-685.467
-807.986
-532.741
271.675
1605.65
3344.74
5288.7
7224.78
8979.3
10444.5
11580.9
12402.9
12957.9
13306.5
13508.6
13614.4
13661.3
13680.4
-0.0148496
-0.150121
0.293952
1.24406
-0.343298
-6.61987
-9.82977
6.75412
48.1528
83.928
52.3304
-97.5461
-352.03
-608.633
-702.196
-467.607
195.802
1289.13
2718.82
4331.93
5962.2
7468.81
8758.35
9789.08
10562.4
11108.6
11471.7
11698.8
11828.6
11916.2
0.00951646
-0.112815
-0.0499539
0.767601
1.13448
-2.07639
-8.27783
-7.48532
13.4414
51.8838
75.6651
34.2465
-105.416
-321.625
-526.47
-590.012
-387.302
156.161
1040.59
2195.98
3507.27
4847.22
6104.95
7203.06
8102.33
8796.97
9304.86
9657.73
9884.88
10065
0.013431
-0.0482139
-0.141652
0.23993
1.06796
0.38742
-3.84434
-8.47334
-3.49285
19.2386
51.4948
63.0682
15.5868
-109.508
-286.843
-443.585
-480.096
-304.192
137.532
843.984
1763.02
2809.17
3886.88
4910.98
5819.59
6578.53
7178.65
7630.8
7946.99
8224.97
0.00893824
-0.00702493
-0.107494
-0.033968
0.561514
0.975335
-0.743195
-5.00882
-7.16242
1.06591
22.9496
47.3071
48.3395
-1.01642
-108.762
-249.274
-364.135
-378.758
-226.727
129.094
686.495
1406.79
2227.26
3077.28
3892.82
4625.91
5248.1
5751.05
6127.36
6486.91
0.00395626
0.00799576
-0.0516073
-0.100794
0.16688
0.7264
0.5011
-1.83388
-5.24217
-4.82146
5.12594
24.1295
40.4101
33.6103
-13.9377
-103.327
-210.955
-291.336
-289.882
-159.795
123.988
558.542
1115.31
1748.73
2407.39
3044.06
3622.27
4121.23
4517.62
4925.72
0.000995188
0.00889651
-0.0145959
-0.0776494
-0.0154868
0.35001
0.648258
-0.157944
-2.53862
-4.59853
-2.13555
7.98989
23.0107
32.1703
20.4856
-22.5826
-94.1576
-173.878
-227.27
-215.218
-105.439
118.477
453.307
878.079
1360.04
1862.26
2350.25
2798.98
3175.94
3592.73
-0.000175195
0.00556814
0.00121443
-0.0397443
-0.0589109
0.103176
0.424281
0.37313
-0.761889
-2.72028
-3.38716
0.291577
9.42251
20.2354
23.8337
9.88383
-27.1632
-82.5795
-139.661
-172.915
-154.863
-63.6892
111.016
366.062
686.147
1047.96
1425.07
1794.77
2122.52
2511.52
-0.000401355
0.00252276
0.00478743
-0.0139811
-0.0466412
-0.00368922
0.194444
0.367943
0.022257
-1.14599
-2.44101
-1.98753
2.09119
9.56004
16.5689
16.3061
2.09573
-28.3862
-69.9347
-109.389
-128.32
-107.783
-33.3269
101.419
293.525
531.922
799.955
1080.88
1343.6
1678.9
-0.000300918
0.000791757
0.00378496
-0.00200327
-0.025055
-0.0296012
0.0582
0.222257
0.221012
-0.284745
-1.26148
-1.87456
-0.709817
3.14675
8.74632
12.6916
10.0973
-3.04767
-27.1633
-57.3572
-83.6053
-92.8579
-72.2859
-12.5077
90.2151
233.355
408.771
606.416
801.576
1070.47
-0.000161705
7.54206e-05
0.00206734
0.00168193
-0.00993936
-0.0244425
0.0012685
0.0990183
0.187123
0.0477927
-0.477157
-1.15251
-1.2123
0.265432
3.52934
7.37967
9.09456
5.37337
-5.98221
-24.3975
-45.6712
-62.3857
-65.4771
-46.4069
0.791953
78.2156
183.603
312.493
447.213
648.87
-6.81599e-05
-0.000117899
0.000866918
0.00189416
-0.00247527
-0.013709
-0.0131253
0.030464
0.107254
0.114114
-0.0976248
-0.541023
-0.907615
-0.60225
0.88336
3.40915
5.81012
6.05982
2.05622
-7.24615
-20.8562
-35.3793
-45.4635
-44.9261
-28.1805
8.50376
66.0853
143.826
230.256
372.171
-2.1449e-05
-0.000115701
0.000261299
0.00121048
0.000211157
-0.00590109
-0.0115068
0.00230216
0.0470918
0.0876974
0.0338387
-0.187449
-0.50211
-0.616733
-0.12763
1.17765
2.98
4.2913
3.69278
-0.0710637
-7.36514
-17.1177
-26.7071
-32.3578
-29.9246
-15.8011
12.1899
55.2603
106.628
200.523
-3.18792e-06
-7.08883e-05
2.73869e-05
0.000591973
0.000737539
-0.00184668
-0.00673198
-0.00520288
0.0149676
0.0485232
0.0535793
-0.0310508
-0.219137
-0.40227
-0.346455
0.18653
1.22622
2.41027
2.97269
1.97451
-1.2773
-6.78237
-13.5611
-19.661
-22.4739
-19.2585
-7.80292
13.7591
41.787
100.172
1.83854e-06
-3.43387e-05
-3.29266e-05
0.000231607
0.000570555
-0.000242855
-0.00310287
-0.00495435
0.00193047
0.021344
0.0386587
0.0180247
-0.071509
-0.20767
-0.282529
-0.131765
0.361175
1.12915
1.83734
1.92713
0.807237
-1.86403
-5.91345
-10.515
-14.2448
-15.3138
-11.9797
-2.45575
11.4856
45.871
2.49574e-06
-1.13111e-05
-3.62217e-05
4.27894e-05
0.000297301
0.000292222
-0.000851348
-0.00287522
-0.00248738
0.00504086
0.0187749
0.0248037
-0.000183888
-0.0682657
-0.152385
-0.175559
-0.0394282
0.308319
0.798378
1.20367
1.17983
0.385564
-1.3536
-3.89933
-6.73166
-8.98421
-9.62138
-7.3641
-2.81777
13.0507
)
;

boundaryField
{
    fixedWall_Bottom
    {
        type            greyDiffusiveRadiation;
        refValue        uniform 18049.5;
        refGradient     uniform 0;
        valueFraction   uniform 1;
        source          uniform 0;
        value           uniform 18049.5;
    }
    fixedWall_Right
    {
        type            greyDiffusiveRadiation;
        refValue        uniform 0;
        refGradient     uniform 0;
        valueFraction   uniform 0;
        source          uniform 0;
        value           nonuniform List<scalar> 
30
(
18048.6
18049.4
18057
18055.2
18027.1
17999.6
18033.9
18154.6
18297.3
18326.5
18099.1
17520.2
16562.8
15259.4
13680.4
11916.2
10065
8224.97
6486.91
4925.72
3592.73
2511.52
1678.9
1070.47
648.87
372.171
200.523
100.172
45.871
13.0507
)
;
    }
    fixedWall_Left
    {
        type            greyDiffusiveRadiation;
        refValue        uniform 0;
        refGradient     uniform 0;
        valueFraction   uniform 1;
        source          uniform 0;
        value           uniform 0;
    }
    fixedWall_Top
    {
        type            greyDiffusiveRadiation;
        refValue        uniform 0;
        refGradient     uniform 0;
        valueFraction   uniform 0;
        source          uniform 0;
        value           nonuniform List<scalar> 
30
(
2.49574e-06
-1.13111e-05
-3.62217e-05
4.27894e-05
0.000297301
0.000292222
-0.000851348
-0.00287522
-0.00248738
0.00504086
0.0187749
0.0248037
-0.000183888
-0.0682657
-0.152385
-0.175559
-0.0394282
0.308319
0.798378
1.20367
1.17983
0.385564
-1.3536
-3.89933
-6.73166
-8.98421
-9.62138
-7.3641
-2.81777
13.0507
)
;
    }
    frontAndBack
    {
        type            empty;
    }
}


// ************************************************************************* //
