/*--------------------------------*- C++ -*----------------------------------*\
| =========                 |                                                 |
| \\      /  F ield         | OpenFOAM: The Open Source CFD Toolbox           |
|  \\    /   O peration     | Version:  2312                                  |
|   \\  /    A nd           | Website:  www.openfoam.com                      |
|    \\/     M anipulation  |                                                 |
\*---------------------------------------------------------------------------*/
FoamFile
{
    version     2.0;
    format      ascii;
    arch        "LSB;label=32;scalar=64";
    class       volScalarField;
    location    "0.03";
    object      ILambda_13_0;
}
// * * * * * * * * * * * * * * * * * * * * * * * * * * * * * * * * * * * * * //

dimensions      [1 0 -3 0 0 0 0];

internalField   nonuniform List<scalar> 
900
(
3083.65
8015.31
11668
14255.4
16016.6
17161.6
17861.5
18250.9
18432.7
18483
18456.5
18391.3
18312.3
18234.8
18167.2
18113
18072.8
18045.2
18028
18018.8
18015.2
18015.4
18017.8
18021.4
18025.2
18028.9
18032.3
18035.1
18037.2
18039.6
-673.382
-494.036
987.299
3252.73
5846.85
8441.86
10828.7
12892.2
14586.1
15911.2
16897.6
17591.7
18046.5
18315.4
18447.5
18485.1
18462.7
18406.7
18336.1
18263.6
18196.7
18139.6
18093.5
18058
18032.1
18014
18002.1
17994.7
17990.8
17988.2
-163.257
-679.075
-1036.15
-944.405
-281.703
932.913
2591.7
4545.5
6638.93
8732.67
10715
12505.4
14054.3
15339.7
16362.2
17139.9
17702.1
18084.5
18323.8
18455.2
18509.4
18512.2
18483.7
18438.7
18387.7
18337.3
18291.5
18251.9
18221.1
18186.2
8.92835
-88.4895
-346.612
-697.249
-1003.79
-1118.93
-926.606
-362.647
582.648
1873.35
3441.04
5197.97
7048.87
8901.25
10673.8
12302.5
13743.1
14972.3
15984.5
16789
17405.5
17859.7
18179.7
18393.4
18526.1
18599.9
18632.7
18638.7
18629.3
18603.3
5.18481
22.2861
5.22057
-93.32
-292.5
-568.625
-859.98
-1083.51
-1153.75
-997.594
-563.74
171.955
1204.35
2500.35
4003.79
5643.29
7341.48
9023.89
10626.1
12098.4
13407.5
14536.4
15481.9
16252.2
16862.7
17333.7
17686.9
17945.7
18119.6
18287.9
-0.385486
6.48768
23.4712
37.8217
23.5511
-47.0153
-189.995
-401.799
-657.655
-914.464
-1115.81
-1198.76
-1102.63
-778.47
-197.373
644.68
1726.4
3004.99
4422.85
5915.53
7419.39
8877.7
10244.8
11487.8
12587.1
13534.8
14331.7
14992.2
15494.7
16068.6
-0.220466
-0.516575
3.08025
14.5659
32.7575
48.2987
45.243
5.56344
-85.9674
-237.312
-444.823
-689.645
-936.626
-1137.26
-1236.6
-1182.4
-934.091
-469.354
212.964
1093.68
2137.14
3296.87
4521.78
5761.78
6972.19
8116.88
9167.8
10117.5
10896.3
11880.4
0.0301437
-0.329389
-0.973962
-0.0878511
5.25969
17.0274
34.2275
51.9625
61.1203
48.6266
-0.845657
-100.921
-257.959
-465.901
-703.773
-937.033
-1122.53
-1215.63
-1177.56
-981.347
-615.269
-83.4847
595.717
1393.38
2274.08
3200.52
4135.02
5057.55
5867.26
6999.06
0.0165466
0.0201547
-0.291008
-0.992257
-1.41907
-0.154906
4.56879
14.4117
30.1708
50.2945
69.0545
75.7009
55.8554
-4.72801
-115.2
-275.256
-472.951
-685.372
-881.924
-1029.22
-1096.33
-1059.24
-903.78
-626.754
-235.393
254.759
820.375
1447.55
2041.95
2984.41
-0.00101361
0.0269474
0.0230536
-0.169088
-0.645697
-1.3163
-1.84453
-1.42937
1.54206
9.40263
24.1124
45.3409
68.7076
85.3363
83.3046
50.6794
-20.8592
-132.999
-279.289
-445.501
-611.659
-755.122
-853.969
-889.996
-850.871
-730.961
-532.912
-256.034
38.6055
609.446
-0.00197981
0.0046868
0.0245834
0.022053
-0.0517185
-0.244303
-0.670924
-1.51598
-2.72664
-3.46889
-1.8285
4.73613
18.1325
38.0751
61.0096
80.13
86.625
71.7972
29.3966
-42.5148
-140.648
-256.684
-378.458
-491.768
-582.428
-637.967
-650.032
-608.726
-540.045
-310.646
-0.000821099
-0.000547708
0.00716181
0.0143063
0.0105653
0.011857
0.0213739
-0.093327
-0.649512
-1.93577
-3.76325
-5.08034
-4.01232
1.5258
12.8282
29.4294
48.6026
65.5742
74.4265
69.4267
46.4026
3.80453
-56.782
-130.746
-211.112
-289.477
-357.666
-405.779
-438.427
-408.991
-0.000203075
-0.00102769
0.00168172
0.00626017
0.00221413
-0.0057529
0.0236129
0.123282
0.208543
0.012753
-0.805635
-2.3776
-4.31101
-5.56845
-4.67569
-0.233612
8.44864
20.8466
35.0408
47.9457
55.8876
55.3738
43.8494
20.2672
-14.6499
-58.4326
-107.422
-156.29
-202.28
-241.237
3.95144e-05
-0.000648009
-0.0002758
0.00302942
0.00393103
-0.00653695
-0.0188222
0.00910159
0.118775
0.274763
0.307605
-0.0483897
-1.003
-2.50784
-4.11814
-5.01574
-4.21846
-0.915693
5.18609
13.6304
23.1723
31.9518
37.8331
38.8213
33.4547
21.1072
2.06294
-22.3789
-49.3838
-87.3078
6.88295e-05
-0.000195422
-0.000629067
0.000532073
0.00332952
0.00193569
-0.0101784
-0.0244864
-0.00859659
0.0743295
0.219259
0.337922
0.263674
-0.179052
-1.06274
-2.25535
-3.38553
-3.90447
-3.23434
-0.957738
3.01289
8.3404
14.272
19.7513
23.6023
24.7479
22.4026
16.1054
7.115
-12.1484
3.17777e-05
1.4349e-05
-0.000315047
-0.000387091
0.000988926
0.00299116
0.000881153
-0.00977506
-0.0233504
-0.0186465
0.0313557
0.134271
0.252197
0.295639
0.150313
-0.26823
-0.95411
-1.77303
-2.46773
-2.71149
-2.19617
-0.72854
1.69365
4.84806
8.3055
11.4947
13.8079
14.5972
14.1165
8.44749
5.60061e-06
4.03242e-05
-5.60625e-05
-0.000304901
-0.000143523
0.00107462
0.00240222
0.000548926
-0.00738266
-0.0183777
-0.0201358
0.00468982
0.0659091
0.150977
0.217836
0.203031
0.0453989
-0.282579
-0.748527
-1.25094
-1.63302
-1.71748
-1.35303
-0.459568
0.940305
2.71105
4.62614
6.34433
7.81137
7.71627
-1.73089e-06
1.79362e-05
2.00615e-05
-8.94481e-05
-0.000231616
7.03185e-06
0.000928193
0.00178686
0.000525154
-0.00468293
-0.0125108
-0.0164939
-0.00659864
0.0249725
0.0760754
0.129406
0.153789
0.11327
-0.018359
-0.242792
-0.528039
-0.809018
-0.99886
-1.00837
-0.76858
-0.250966
0.524106
1.46375
2.50675
3.47883
-1.55427e-06
3.3042e-06
1.71155e-05
-5.60612e-08
-8.8041e-05
-0.000152236
6.64457e-05
0.000694673
0.00124674
0.000532624
-0.00254998
-0.0075512
-0.0113579
-0.00864702
0.00562508
0.0325041
0.0659171
0.0920955
0.0925712
0.0502636
-0.0432326
-0.181732
-0.342194
-0.487266
-0.572301
-0.555416
-0.40645
-0.120589
0.282267
0.918284
-5.30807e-07
-5.92784e-07
5.49481e-06
1.11527e-05
-1.06914e-05
-6.96419e-05
-9.14565e-05
7.09305e-05
0.00046768
0.000818314
0.000477009
-0.00119013
-0.00410416
-0.00688329
-0.00690553
-0.00130076
0.0113684
0.0294541
0.0474742
0.0568764
0.0483471
0.0150608
-0.0441599
-0.122859
-0.206886
-0.276558
-0.310143
-0.288688
-0.212091
0.0254702
-7.82814e-08
-6.33516e-07
5.85997e-07
5.05867e-06
5.46156e-06
-1.30452e-05
-4.83076e-05
-5.21361e-05
5.36398e-05
0.000288935
0.00050557
0.000371467
-0.000460151
-0.00202886
-0.00376922
-0.00447148
-0.00264719
0.00275488
0.0115469
0.0217846
0.0298452
0.0312086
0.0217843
-0.000591289
-0.0349501
-0.0767085
-0.118056
-0.14855
-0.165083
-0.118515
1.75732e-08
-2.25882e-07
-3.08123e-07
1.07876e-06
3.5857e-06
1.86875e-06
-1.10867e-05
-3.06536e-05
-2.89328e-05
3.37548e-05
0.000165903
0.000294535
0.000256743
-0.000128255
-0.000916705
-0.00189685
-0.00254264
-0.00213648
-5.76166e-05
0.00385476
0.00901187
0.0140036
0.0168233
0.0153661
0.00807761
-0.00543492
-0.0240417
-0.044597
-0.0656403
-0.0725883
1.53378e-08
-4.04509e-08
-1.94176e-07
-2.46839e-08
1.03004e-06
2.16026e-06
1.65279e-07
-7.9012e-06
-1.82198e-05
-1.58527e-05
1.86619e-05
8.93725e-05
0.000162371
0.000160996
-4.87834e-06
-0.000377948
-0.000887213
-0.00131629
-0.00133948
-0.00063181
0.000975738
0.00335212
0.00599565
0.00808066
0.00862828
0.00676702
0.00199162
-0.00542509
-0.0152712
-0.0257718
5.30719e-09
2.46676e-09
-5.73628e-08
-1.11972e-07
1.09765e-07
7.63778e-07
1.15914e-06
-4.03517e-07
-5.03543e-06
-1.02886e-05
-8.61169e-06
9.28429e-06
4.55127e-05
8.50899e-05
9.3254e-05
2.68622e-05
-0.000140374
-0.000388412
-0.00063295
-0.000733635
-0.000533791
7.64971e-05
0.00109423
0.00235972
0.00355638
0.00426371
0.00404435
0.00261808
-0.000153748
-0.00523197
1.05924e-09
4.56521e-09
-8.19357e-09
-4.67883e-08
-4.53449e-08
1.34172e-07
4.88927e-07
5.69006e-07
-4.56845e-07
-2.96187e-06
-5.56929e-06
-4.62798e-06
4.1948e-06
2.20462e-05
4.25949e-05
5.05948e-05
2.61341e-05
-4.52063e-05
-0.000159673
-0.000286219
-0.000367097
-0.000331337
-0.000119241
0.000289058
0.000850797
0.00145346
0.0019249
0.00207637
0.00179253
0.00027334
3.71659e-11
1.80087e-09
1.21355e-09
-1.08664e-08
-2.92101e-08
-8.74911e-09
1.09158e-07
2.83506e-07
2.59927e-07
-3.44922e-07
-1.63805e-06
-2.90729e-06
-2.4493e-06
1.71602e-06
1.02092e-05
2.04632e-05
2.599e-05
1.7895e-05
-1.11424e-05
-6.15764e-05
-0.000122671
-0.000171658
-0.000177975
-0.000112362
4.13858e-05
0.000275867
0.000553644
0.000808347
0.000995153
0.000775006
-6.65893e-11
4.269e-10
1.18568e-09
-9.02955e-10
-8.91087e-09
-1.50921e-08
5.5741e-09
7.38214e-08
1.53029e-07
1.11767e-07
-2.19184e-07
-8.62117e-07
-1.46995e-06
-1.27123e-06
6.22211e-07
4.53751e-06
9.47446e-06
1.27469e-05
1.04962e-05
-7.88144e-07
-2.21185e-05
-5.00646e-05
-7.60092e-05
-8.73408e-05
-7.06973e-05
-1.6542e-05
7.60942e-05
0.000194749
0.000330781
0.000389887
-3.21258e-11
4.89203e-11
4.21004e-10
4.62911e-10
-1.52439e-09
-5.82368e-09
-6.56933e-09
8.37667e-09
4.4587e-08
7.82488e-08
4.5602e-08
-1.25618e-07
-4.35459e-07
-7.2226e-07
-6.45311e-07
1.86921e-07
1.94123e-06
4.24315e-06
6.00834e-06
5.60641e-06
1.42761e-06
-7.26487e-06
-1.94956e-05
-3.21343e-05
-4.01715e-05
-3.78112e-05
-2.01703e-05
1.39363e-05
6.58858e-05
0.00012307
-9.22483e-12
-1.016e-11
9.37876e-11
2.68667e-10
2.82376e-11
-1.33612e-09
-3.28631e-09
-2.31446e-09
6.89816e-09
2.49154e-08
3.83449e-08
1.76488e-08
-6.72405e-08
-2.1271e-07
-3.45964e-07
-3.19602e-07
3.62122e-08
8.03411e-07
1.84702e-06
2.73862e-06
2.80463e-06
1.33296e-06
-2.09613e-06
-7.2594e-06
-1.30657e-05
-1.75887e-05
-1.8389e-05
-1.34447e-05
-8.20466e-07
2.33168e-05
-1.50051e-12
-8.75063e-12
5.84499e-12
7.90036e-11
1.4551e-10
-7.11848e-11
-8.47055e-10
-1.75821e-09
-1.05373e-09
3.63138e-09
1.24059e-08
1.93621e-08
1.16648e-08
-2.44353e-08
-9.01761e-08
-1.5946e-07
-1.74061e-07
-5.98174e-08
2.33767e-07
6.82149e-07
1.14688e-06
1.37708e-06
1.06918e-06
-1.91521e-08
-1.93081e-06
-4.39667e-06
-6.78648e-06
-8.24812e-06
-7.93695e-06
-2.32778e-06
)
;

boundaryField
{
    fixedWall_Bottom
    {
        type            greyDiffusiveRadiation;
        refValue        uniform 18049.5;
        refGradient     uniform 0;
        valueFraction   uniform 1;
        source          uniform 0;
        value           uniform 18049.5;
    }
    fixedWall_Right
    {
        type            greyDiffusiveRadiation;
        refValue        uniform 0;
        refGradient     uniform 0;
        valueFraction   uniform 0;
        source          uniform 0;
        value           nonuniform List<scalar> 
30
(
18039.6
17988.2
18186.2
18603.3
18287.9
16068.6
11880.4
6999.06
2984.41
609.446
-310.646
-408.991
-241.237
-87.3078
-12.1484
8.44749
7.71627
3.47883
0.918284
0.0254702
-0.118515
-0.0725883
-0.0257718
-0.00523197
0.00027334
0.000775006
0.000389887
0.00012307
2.33168e-05
-2.32778e-06
)
;
    }
    fixedWall_Left
    {
        type            greyDiffusiveRadiation;
        refValue        uniform 0;
        refGradient     uniform 0;
        valueFraction   uniform 1;
        source          uniform 0;
        value           uniform 0;
    }
    fixedWall_Top
    {
        type            greyDiffusiveRadiation;
        refValue        uniform 0;
        refGradient     uniform 0;
        valueFraction   uniform 0;
        source          uniform 0;
        value           nonuniform List<scalar> 
30
(
-1.50051e-12
-8.75063e-12
5.84499e-12
7.90036e-11
1.4551e-10
-7.11848e-11
-8.47055e-10
-1.75821e-09
-1.05373e-09
3.63138e-09
1.24059e-08
1.93621e-08
1.16648e-08
-2.44353e-08
-9.01761e-08
-1.5946e-07
-1.74061e-07
-5.98174e-08
2.33767e-07
6.82149e-07
1.14688e-06
1.37708e-06
1.06918e-06
-1.91521e-08
-1.93081e-06
-4.39667e-06
-6.78648e-06
-8.24812e-06
-7.93695e-06
-2.32778e-06
)
;
    }
    frontAndBack
    {
        type            empty;
    }
}


// ************************************************************************* //
