/*--------------------------------*- C++ -*----------------------------------*\
| =========                 |                                                 |
| \\      /  F ield         | OpenFOAM: The Open Source CFD Toolbox           |
|  \\    /   O peration     | Version:  2312                                  |
|   \\  /    A nd           | Website:  www.openfoam.com                      |
|    \\/     M anipulation  |                                                 |
\*---------------------------------------------------------------------------*/
FoamFile
{
    version     2.0;
    format      ascii;
    arch        "LSB;label=32;scalar=64";
    class       volScalarField;
    location    "0.03";
    object      ILambda_15_0;
}
// * * * * * * * * * * * * * * * * * * * * * * * * * * * * * * * * * * * * * //

dimensions      [1 0 -3 0 0 0 0];

internalField   nonuniform List<scalar> 
900
(
653.234
1903.67
3087.12
4203.3
5254.37
6243.05
7172.2
8044.64
8863
9629.76
10347.3
11018.1
11644.5
12228.9
12773.6
13280.6
13752.2
14190.1
14596.1
14971.7
15318.5
15637.6
15930.5
16198.2
16442
16663.2
16862.4
17044.3
17191.5
17402.5
-203.954
-530.721
-763.335
-904.9
-962.138
-942.316
-852.45
-699.158
-488.737
-227.23
79.5984
426.351
808.07
1220.26
1658.84
2120.11
2600.58
3096.87
3605.66
4123.51
4646.92
5172.25
5695.79
6213.83
6722.69
7219.14
7698.24
8167.24
8567.21
9191.82
-6.76912
-47.3798
-115.59
-205.858
-311.717
-427.053
-546.344
-664.622
-777.451
-880.967
-971.905
-1047.57
-1105.73
-1144.56
-1162.5
-1158.23
-1130.62
-1078.76
-1002.05
-900.204
-773.381
-622.21
-447.84
-251.933
-36.6725
195.559
440.543
702.621
937.68
1350.13
0.842557
4.02258
6.80513
6.84679
2.13223
-8.88639
-27.3014
-53.7627
-88.493
-131.34
-181.865
-239.427
-303.25
-372.452
-446.041
-522.895
-601.744
-681.146
-759.509
-835.111
-906.167
-970.898
-1027.62
-1074.81
-1111.24
-1135.9
-1148.55
-1147.17
-1140.37
-1093
0.00844041
0.49582
1.81166
4.11783
7.37633
11.3743
15.7486
20.0193
23.6389
26.0422
26.6795
25.027
20.5854
12.8746
1.43689
-14.1481
-34.2353
-59.0785
-88.7914
-123.315
-162.394
-205.573
-252.201
-301.462
-352.411
-404.028
-455.199
-505.438
-549.838
-612.601
-0.00330014
-0.022858
-0.0219606
0.0720706
0.359265
0.953191
1.96285
3.47358
5.53514
8.16012
11.3286
14.9922
19.0738
23.4618
28.0022
32.4914
36.6741
40.2484
42.8782
44.2141
43.9171
41.6854
37.2784
30.537
21.3987
9.89117
-3.78061
-19.8368
-35.3328
-64.136
0.00034533
-0.00312935
-0.0181921
-0.0520295
-0.107618
-0.179337
-0.250074
-0.291785
-0.268668
-0.140253
0.137376
0.611974
1.33559
2.36343
3.7501
5.54329
7.77573
10.4569
13.566
17.0482
20.8137
24.7412
28.6847
32.483
35.9706
38.9865
41.4049
43.0266
44.1473
43.3174
2.22759e-05
0.000136697
-0.000118348
-0.00224634
-0.00929912
-0.0256463
-0.055894
-0.103669
-0.171002
-0.258314
-0.364412
-0.485963
-0.616263
-0.743631
-0.849982
-0.910184
-0.892641
-0.761221
-0.478358
-0.00890999
0.675808
1.59439
2.7526
4.14188
5.73927
7.50853
9.40142
11.3792
13.2415
15.9355
-1.60443e-06
8.74148e-06
0.000116445
0.000478309
0.00116385
0.00190435
0.0019563
0.000156064
-0.004972
-0.0152267
-0.0328875
-0.0608854
-0.102795
-0.162509
-0.243558
-0.348195
-0.476412
-0.62512
-0.787687
-0.953942
-1.1107
-1.2427
-1.33393
-1.36897
-1.33447
-1.22009
-1.02119
-0.725889
-0.402634
0.303149
2.13168e-07
4.28043e-07
-2.05085e-06
1.78786e-05
0.000135482
0.000458214
0.00108072
0.00205797
0.00341332
0.00514948
0.00721408
0.0093957
0.0111684
0.0115374
0.00894932
0.00131954
-0.0138035
-0.0389495
-0.0763588
-0.127598
-0.193227
-0.272566
-0.363615
-0.463115
-0.566767
-0.669501
-0.766234
-0.850259
-0.922355
-0.967921
-8.21256e-08
5.27428e-07
6.00828e-08
-5.20987e-06
-1.39872e-05
-1.36918e-05
1.83412e-05
0.000110029
0.000296455
0.000633404
0.00121588
0.0021873
0.00372573
0.00600171
0.00911312
0.0130115
0.0174394
0.0218956
0.0256415
0.0277499
0.0271924
0.022951
0.0141386
0.000109948
-0.0194522
-0.0444821
-0.0745109
-0.108973
-0.144124
-0.198611
-3.87099e-08
4.82159e-09
3.22367e-07
1.52733e-07
-2.10024e-06
-7.57608e-06
-1.61178e-05
-2.72428e-05
-4.18901e-05
-6.21294e-05
-8.65782e-05
-0.000101702
-7.18473e-05
6.76626e-05
0.000410347
0.00106917
0.00215841
0.00376984
0.00594783
0.0086685
0.0118272
0.0152371
0.0186394
0.0217242
0.0241584
0.0256163
0.0258283
0.0244532
0.0221775
0.014443
-2.53236e-09
-2.45743e-08
1.85089e-08
1.60184e-07
2.06553e-07
-2.06968e-07
-1.3425e-06
-3.29479e-06
-6.51405e-06
-1.27912e-05
-2.60488e-05
-5.21211e-05
-9.70231e-05
-0.000163823
-0.000248853
-0.000338386
-0.000406895
-0.000417705
-0.000326256
-8.56171e-05
0.000346629
0.00100129
0.00189146
0.00300835
0.00431985
0.00577129
0.00729281
0.00878603
0.0102001
0.011556
1.05351e-09
-4.19087e-09
-9.97804e-09
9.11173e-09
6.32531e-08
1.14194e-07
1.07398e-07
6.35327e-08
1.2823e-07
4.59337e-07
9.13216e-07
6.22987e-07
-2.33724e-06
-1.09914e-05
-2.90682e-05
-6.01764e-05
-0.00010669
-0.00016859
-0.000242549
-0.000321489
-0.000394769
-0.000449008
-0.000469457
-0.00044169
-0.000353386
-0.000195969
3.41984e-05
0.000337357
0.00067984
0.0012628
2.70347e-10
9.55932e-11
-2.20409e-09
-3.60626e-09
2.86886e-09
1.89548e-08
3.36667e-08
3.37038e-08
3.50407e-08
1.17177e-07
4.2823e-07
1.13494e-06
2.31462e-06
3.81472e-06
5.12671e-06
5.32574e-06
3.11433e-06
-3.0182e-06
-1.45391e-05
-3.2563e-05
-5.755e-05
-8.90709e-05
-0.000125687
-0.000164974
-0.000203684
-0.000238029
-0.000264156
-0.000277473
-0.000280996
-0.000239578
1.55749e-11
1.48723e-10
-5.9612e-11
-8.61114e-10
-1.29101e-09
4.56729e-10
4.4576e-09
6.464e-09
-7.18978e-10
-1.94219e-08
-3.46161e-08
-2.77202e-09
1.50185e-07
5.16071e-07
1.176e-06
2.16145e-06
3.41457e-06
4.75945e-06
5.89404e-06
6.40855e-06
5.82988e-06
3.68605e-06
-4.19751e-07
-6.73783e-06
-1.53155e-05
-2.5962e-05
-3.82651e-05
-5.1493e-05
-6.50412e-05
-7.99616e-05
-4.83438e-12
2.28086e-11
5.3917e-11
-3.9349e-11
-3.03688e-10
-4.54782e-10
3.45274e-11
1.25654e-09
1.92142e-09
-1.01353e-09
-1.12682e-08
-3.04385e-08
-5.41217e-08
-6.84194e-08
-4.85551e-08
3.90564e-08
2.30884e-07
5.57263e-07
1.03205e-06
1.64328e-06
2.34713e-06
3.06686e-06
3.69755e-06
4.11608e-06
4.19517e-06
3.81958e-06
2.90064e-06
1.38082e-06
-5.87401e-07
-4.32977e-06
-1.22128e-12
-1.8372e-13
1.04822e-11
1.77323e-11
-1.35752e-11
-9.54819e-11
-1.50004e-10
-7.52067e-12
4.50875e-10
1.02133e-09
9.12422e-10
-1.30491e-09
-7.35999e-09
-1.85219e-08
-3.4563e-08
-5.2749e-08
-6.72181e-08
-6.90595e-08
-4.72404e-08
9.67711e-09
1.11295e-07
2.63024e-07
4.64075e-07
7.06209e-07
9.73517e-07
1.24334e-06
1.48856e-06
1.67562e-06
1.80719e-06
1.69353e-06
-8.74291e-14
-5.78698e-13
3.33911e-13
3.85179e-12
6.00231e-12
-2.96018e-12
-2.81359e-11
-5.16258e-11
-2.23666e-11
1.2549e-10
4.16296e-10
7.51649e-10
8.39097e-10
1.75204e-10
-1.88218e-09
-5.94399e-09
-1.2348e-08
-2.09005e-08
-3.06724e-08
-3.99158e-08
-4.61459e-08
-4.63962e-08
-3.76178e-08
-1.71625e-08
1.67308e-08
6.45213e-08
1.25193e-07
1.95579e-07
2.72724e-07
3.6231e-07
1.23168e-14
-8.55364e-14
-1.86823e-13
1.67652e-13
1.24647e-12
2.02077e-12
-1.86597e-13
-7.68784e-12
-1.79146e-11
-1.87803e-11
1.18804e-11
9.90143e-11
2.54374e-10
4.55412e-10
6.2643e-10
6.30863e-10
2.81876e-10
-6.26103e-10
-2.26829e-09
-4.73192e-09
-7.96263e-09
-1.1728e-08
-1.56089e-08
-1.90231e-08
-2.12819e-08
-2.16721e-08
-1.95431e-08
-1.43973e-08
-6.53824e-09
9.8697e-09
3.62516e-15
-1.43271e-15
-3.49814e-14
-5.81568e-14
4.92174e-14
3.67371e-13
6.75032e-13
2.78629e-13
-1.7195e-12
-5.52281e-12
-9.33141e-12
-8.2903e-12
5.42644e-12
4.07235e-11
1.03814e-10
1.93289e-10
2.95423e-10
3.8139e-10
4.07843e-10
3.21617e-10
6.82797e-11
-3.96684e-10
-1.0961e-09
-2.02105e-09
-3.12469e-09
-4.32152e-09
-5.49302e-09
-6.48507e-09
-7.2638e-09
-7.02743e-09
3.30949e-16
1.34589e-15
-1.58414e-15
-1.16707e-14
-1.828e-14
9.31896e-15
9.85033e-14
2.14735e-13
2.01258e-13
-2.17096e-13
-1.3046e-12
-3.05076e-12
-4.84463e-12
-5.2324e-12
-1.92657e-12
7.81104e-12
2.63977e-11
5.48902e-11
9.19166e-11
1.32877e-10
1.69698e-10
1.91312e-10
1.84911e-10
1.37814e-10
3.96887e-11
-1.15258e-10
-3.26718e-10
-5.85078e-10
-8.82343e-10
-1.22291e-09
-9.7458e-18
2.21255e-16
3.79108e-16
-6.14142e-16
-3.48695e-15
-5.80359e-15
-6.76009e-17
2.27586e-14
6.17185e-14
8.96996e-14
4.30012e-14
-1.69868e-13
-6.30805e-13
-1.34807e-12
-2.18193e-12
-2.78773e-12
-2.60727e-12
-9.31025e-13
2.9633e-12
9.61318e-12
1.91517e-11
3.11164e-11
4.43355e-11
5.69333e-11
6.64687e-11
7.02049e-11
6.54393e-11
5.00178e-11
2.36856e-11
-3.13906e-11
-6.44127e-18
1.12147e-17
7.9165e-17
1.06237e-16
-1.71846e-16
-9.58517e-16
-1.79784e-15
-1.0057e-15
4.05717e-15
1.51346e-14
2.96871e-14
3.72228e-14
1.76271e-14
-5.60715e-14
-2.09111e-13
-4.51253e-13
-7.60965e-13
-1.07242e-12
-1.27071e-12
-1.19954e-12
-6.82904e-13
4.41106e-13
2.27963e-12
4.84529e-12
8.02562e-12
1.15697e-11
1.50947e-11
1.80959e-11
2.03542e-11
1.91424e-11
-8.12602e-19
-1.5606e-18
5.56924e-18
2.41768e-17
3.13553e-17
-3.56892e-17
-2.38594e-16
-5.19218e-16
-5.5104e-16
3.09269e-16
2.81105e-15
7.25493e-15
1.26828e-14
1.61073e-14
1.22135e-14
-6.04915e-15
-4.57691e-14
-1.11398e-13
-2.01613e-13
-3.06522e-13
-4.06126e-13
-4.70802e-13
-4.64193e-13
-3.48384e-13
-9.07019e-14
3.2898e-13
9.1195e-13
1.63098e-12
2.46904e-12
3.3384e-12
-3.49319e-20
-3.72233e-19
-3.05015e-19
1.84639e-18
6.80574e-18
9.57884e-18
-4.08067e-18
-5.2107e-17
-1.35251e-16
-2.0435e-16
-1.33447e-16
2.73181e-16
1.2145e-15
2.76031e-15
4.67826e-15
6.27756e-15
6.34549e-15
3.24634e-15
-4.78118e-15
-1.91461e-14
-4.03251e-14
-6.73057e-14
-9.71993e-14
-1.25157e-13
-1.44672e-13
-1.48277e-13
-1.28508e-13
-7.96552e-14
1.51221e-15
1.50832e-13
4.85161e-21
-3.35335e-20
-1.14236e-19
-6.47127e-20
5.02318e-19
1.78979e-18
2.8676e-18
7.45361e-19
-9.23188e-18
-3.02938e-17
-5.8203e-17
-7.41404e-17
-4.0615e-17
9.45367e-17
3.82318e-16
8.44918e-16
1.44144e-15
2.03712e-15
2.38859e-15
2.15675e-15
9.53425e-16
-1.57984e-15
-5.67177e-15
-1.13186e-14
-1.82011e-14
-2.56434e-14
-3.26221e-14
-3.78546e-14
-4.04965e-14
-3.34233e-14
1.11175e-21
-4.09856e-22
-1.23218e-20
-3.18703e-20
-1.81705e-20
1.16415e-19
4.36733e-19
8.06655e-19
6.70293e-19
-1.01193e-18
-5.41446e-18
-1.29214e-17
-2.17351e-17
-2.64998e-17
-1.77227e-17
1.71702e-17
9.06182e-17
2.09661e-16
3.69547e-16
5.47869e-16
7.01224e-16
7.66259e-16
6.66224e-16
3.22972e-16
-3.26936e-16
-1.31469e-15
-2.62307e-15
-4.16919e-15
-5.89814e-15
-7.29046e-15
1.09588e-22
3.12484e-22
-4.28688e-22
-3.65647e-21
-8.51206e-21
-6.21739e-21
2.24741e-20
9.69753e-20
2.06261e-19
2.63607e-19
7.25761e-20
-6.53705e-19
-2.17984e-18
-4.53045e-18
-7.20708e-18
-8.93686e-18
-7.58772e-18
-3.81649e-19
1.55194e-17
4.20814e-17
7.92677e-17
1.23965e-16
1.69276e-16
2.04466e-16
2.15767e-16
1.88058e-16
1.07239e-16
-3.57487e-17
-2.49402e-16
-5.65536e-16
3.90638e-24
5.02807e-23
8.2893e-23
-1.31917e-22
-9.54641e-22
-2.30076e-21
-2.53657e-21
2.39529e-21
1.80082e-20
4.67782e-20
7.98712e-20
8.77205e-20
1.52981e-20
-2.10397e-19
-6.54727e-19
-1.33131e-18
-2.14742e-18
-2.85548e-18
-3.03249e-18
-2.10826e-18
5.44691e-19
5.46179e-18
1.28969e-17
2.26284e-17
3.38067e-17
4.48878e-17
5.36767e-17
5.76217e-17
5.44232e-17
3.10147e-17
)
;

boundaryField
{
    fixedWall_Bottom
    {
        type            greyDiffusiveRadiation;
        refValue        uniform 18049.5;
        refGradient     uniform 0;
        valueFraction   uniform 1;
        source          uniform 0;
        value           uniform 18049.5;
    }
    fixedWall_Right
    {
        type            greyDiffusiveRadiation;
        refValue        uniform 0;
        refGradient     uniform 0;
        valueFraction   uniform 0;
        source          uniform 0;
        value           nonuniform List<scalar> 
30
(
17402.5
9191.82
1350.13
-1093
-612.601
-64.136
43.3174
15.9355
0.303149
-0.967921
-0.198611
0.014443
0.011556
0.0012628
-0.000239578
-7.99616e-05
-4.32977e-06
1.69353e-06
3.6231e-07
9.8697e-09
-7.02743e-09
-1.22291e-09
-3.13906e-11
1.91424e-11
3.3384e-12
1.50832e-13
-3.34233e-14
-7.29046e-15
-5.65536e-16
3.10147e-17
)
;
    }
    fixedWall_Left
    {
        type            greyDiffusiveRadiation;
        refValue        uniform 0;
        refGradient     uniform 0;
        valueFraction   uniform 1;
        source          uniform 0;
        value           uniform 0;
    }
    fixedWall_Top
    {
        type            greyDiffusiveRadiation;
        refValue        uniform 0;
        refGradient     uniform 0;
        valueFraction   uniform 0;
        source          uniform 0;
        value           nonuniform List<scalar> 
30
(
3.90638e-24
5.02807e-23
8.2893e-23
-1.31917e-22
-9.54641e-22
-2.30076e-21
-2.53657e-21
2.39529e-21
1.80082e-20
4.67782e-20
7.98712e-20
8.77205e-20
1.52981e-20
-2.10397e-19
-6.54727e-19
-1.33131e-18
-2.14742e-18
-2.85548e-18
-3.03249e-18
-2.10826e-18
5.44691e-19
5.46179e-18
1.28969e-17
2.26284e-17
3.38067e-17
4.48878e-17
5.36767e-17
5.76217e-17
5.44232e-17
3.10147e-17
)
;
    }
    frontAndBack
    {
        type            empty;
    }
}


// ************************************************************************* //
