/*--------------------------------*- C++ -*----------------------------------*\
| =========                 |                                                 |
| \\      /  F ield         | OpenFOAM: The Open Source CFD Toolbox           |
|  \\    /   O peration     | Version:  2312                                  |
|   \\  /    A nd           | Website:  www.openfoam.com                      |
|    \\/     M anipulation  |                                                 |
\*---------------------------------------------------------------------------*/
FoamFile
{
    version     2.0;
    format      ascii;
    arch        "LSB;label=32;scalar=64";
    class       volScalarField;
    location    "0.03";
    object      qr;
}
// * * * * * * * * * * * * * * * * * * * * * * * * * * * * * * * * * * * * * //

dimensions      [1 0 -3 0 0 0 0];

internalField   uniform 0;

boundaryField
{
    fixedWall_Bottom
    {
        type            calculated;
        value           nonuniform List<scalar> 
30
(
-52099.9
-50730.1
-49907.8
-49250.5
-48727.9
-48298.9
-47944.1
-47650
-47407.2
-47208.8
-47050
-46927
-46836.9
-46777.9
-46748.7
-46748.7
-46777.9
-46836.9
-46926.9
-47049.9
-47208.7
-47407
-47649.8
-47943.9
-48298.6
-48727.6
-49250.2
-49907.7
-50729.9
-52099.7
)
;
    }
    fixedWall_Right
    {
        type            calculated;
        value           nonuniform List<scalar> 
30
(
32986.2
29724.4
27433.5
25435.4
23606.6
21846.1
20175.3
18587.7
17063.4
15594.4
14183.4
12835.1
11554.3
10345.7
9213.74
8161.89
7192.14
6304.95
5499.31
4772.99
4122.64
3544.1
3032.54
2582.73
2189.16
1846.14
1548.19
1287.36
1070.39
801.935
)
;
    }
    fixedWall_Left
    {
        type            calculated;
        value           nonuniform List<scalar> 
30
(
32986.1
29724.4
27433.4
25435.3
23606.5
21846.1
20175.2
18587.1
17062.6
15594.1
14184.1
12836.4
11555.3
10345.4
9211.53
8157.94
7187.08
6299.55
5494.28
4768.77
4119.44
3541.92
3031.28
2582.24
2189.27
1846.7
1549.07
1288.45
1071.58
803.188
)
;
    }
    fixedWall_Top
    {
        type            calculated;
        value           nonuniform List<scalar> 
30
(
2618.51
2999.5
3350.09
3596.51
3810.56
4027.95
4227.6
4397.02
4540.83
4663.66
4765.71
4846.44
4906.26
4945.87
4965.65
4965.69
4945.99
4906.42
4846.58
4765.74
4663.49
4540.36
4396.21
4226.47
4026.59
3809.1
3595.01
3348.51
2997.85
2616.9
)
;
    }
    frontAndBack
    {
        type            empty;
    }
}


// ************************************************************************* //
