/*--------------------------------*- C++ -*----------------------------------*\
| =========                 |                                                 |
| \\      /  F ield         | OpenFOAM: The Open Source CFD Toolbox           |
|  \\    /   O peration     | Version:  2306                                  |
|   \\  /    A nd           | Website:  www.openfoam.com                      |
|    \\/     M anipulation  |                                                 |
\*---------------------------------------------------------------------------*/
FoamFile
{
    version     2.0;
    format      ascii;
    arch        "LSB;label=32;scalar=64";
    class       volScalarField;
    location    "12";
    object      Keff;
}
// * * * * * * * * * * * * * * * * * * * * * * * * * * * * * * * * * * * * * //

dimensions      [1 1 -3 -1 0 0 0];

internalField   nonuniform List<scalar> 
32768
(
67.2037
67.2017
67.1977
67.1915
67.1832
67.1729
67.1605
67.146
67.1294
67.1107
67.0898
67.0668
67.0416
67.0142
66.9846
66.9527
66.9186
66.8822
66.8436
66.8026
66.7592
66.7136
66.6655
66.6151
66.5622
66.507
66.4493
66.3892
66.3267
66.2617
66.1944
66.1246
66.0525
65.978
65.9011
65.822
65.7406
65.657
65.5712
65.4833
65.3934
65.3015
65.2078
65.1122
65.0149
64.9161
64.8157
64.714
64.6109
64.5067
64.4015
64.2953
64.1884
64.0807
63.9726
63.8641
63.7553
63.6463
63.5373
63.4285
63.3199
63.2116
63.1038
62.9965
62.89
62.7842
62.6793
62.5753
62.4724
62.3706
62.2699
62.1705
62.0724
61.9756
61.8802
61.7862
61.6936
61.6025
61.5128
61.4246
61.3379
61.2526
61.1689
61.0865
61.0057
60.9262
60.8481
60.7714
60.6961
60.622
60.5492
60.4776
60.4073
60.3381
60.27
60.203
60.1371
60.0722
60.0082
59.9451
59.883
59.8217
59.7612
59.7015
59.6426
59.5844
59.5269
59.4701
59.4139
59.3584
59.3035
59.2492
59.1955
59.1424
59.0899
59.0379
58.9866
58.9358
58.8855
58.8359
58.7869
58.7384
58.6906
58.6435
58.597
58.5512
58.5061
58.4617
58.4181
58.3752
58.3332
58.292
58.2517
58.2124
58.1739
58.1365
58.1001
58.0648
58.0305
57.9974
57.9655
57.9347
57.9053
57.8771
57.8503
57.8248
57.8008
57.7782
57.7571
57.7375
57.7195
57.7031
57.6883
57.6752
57.6638
57.6541
57.6462
57.64
57.6358
57.6333
57.6328
57.6341
57.6374
57.6427
57.65
57.6592
57.6705
57.6839
57.6993
57.7168
57.7365
57.7582
57.7821
57.8082
57.8364
57.8668
57.8995
57.9343
57.9713
58.0105
58.052
58.0957
58.1416
58.1898
58.2401
58.2927
58.3476
58.4046
58.4639
58.5254
58.589
58.6549
58.7229
58.793
58.8653
58.9397
59.0162
59.0947
59.1752
59.2578
59.3423
59.4287
59.5171
59.6072
59.6992
59.793
59.8884
59.9855
60.0842
60.1845
60.2863
60.3895
60.4941
60.6
60.7071
60.8155
60.9249
61.0354
61.1468
61.2592
61.3724
61.4863
61.6009
61.7161
61.8319
61.9481
62.0647
62.1815
62.2987
62.416
62.5333
62.6507
62.7681
62.8853
63.0023
63.1191
63.2356
63.3517
63.4674
63.5826
63.6972
63.8113
63.9247
64.0374
64.1494
64.2606
64.371
64.4806
64.589
64.6971
64.8029
64.9109
65.0106
65.1258
65.2028
65.3686
67.2037
67.2017
67.1977
67.1915
67.1833
67.1729
67.1605
67.146
67.1294
67.1107
67.0898
67.0668
67.0416
67.0142
66.9846
66.9528
66.9187
66.8823
66.8436
66.8026
66.7593
66.7136
66.6656
66.6151
66.5623
66.507
66.4493
66.3892
66.3266
66.2616
66.1942
66.1244
66.0522
65.9777
65.9007
65.8215
65.74
65.6563
65.5705
65.4825
65.3924
65.3005
65.2066
65.1109
65.0135
64.9145
64.814
64.7121
64.6089
64.5046
64.3992
64.2929
64.1858
64.078
63.9697
63.861
63.7521
63.643
63.5339
63.4249
63.3161
63.2077
63.0998
62.9925
62.8858
62.7799
62.6749
62.5709
62.4679
62.366
62.2653
62.1658
62.0677
61.9708
61.8754
61.7814
61.6888
61.5976
61.5079
61.4198
61.333
61.2478
61.164
61.0817
61.0009
60.9214
60.8434
60.7667
60.6914
60.6174
60.5446
60.4731
60.4028
60.3336
60.2656
60.1986
60.1327
60.0678
60.0039
59.9409
59.8787
59.8175
59.757
59.6974
59.6385
59.5803
59.5228
59.466
59.4099
59.3544
59.2995
59.2452
59.1915
59.1384
59.0859
59.0339
58.9825
58.9317
58.8815
58.8318
58.7828
58.7343
58.6865
58.6393
58.5928
58.547
58.5018
58.4574
58.4137
58.3709
58.3288
58.2876
58.2473
58.2079
58.1694
58.1319
58.0955
58.0601
58.0258
57.9927
57.9607
57.9299
57.9004
57.8722
57.8454
57.8199
57.7958
57.7732
57.752
57.7324
57.7144
57.6979
57.6831
57.6699
57.6585
57.6488
57.6408
57.6347
57.6304
57.6279
57.6273
57.6287
57.632
57.6372
57.6444
57.6537
57.665
57.6783
57.6937
57.7112
57.7308
57.7526
57.7765
57.8025
57.8307
57.8611
57.8937
57.9286
57.9656
58.0048
58.0463
58.09
58.1359
58.184
58.2344
58.287
58.3419
58.3989
58.4582
58.5197
58.5834
58.6492
58.7172
58.7874
58.8597
58.9341
59.0106
59.0892
59.1697
59.2523
59.3369
59.4233
59.5117
59.6019
59.6939
59.7877
59.8832
59.9804
60.0792
60.1795
60.2814
60.3846
60.4893
60.5953
60.7025
60.8109
60.9204
61.0309
61.1425
61.2549
61.3682
61.4822
61.5969
61.7122
61.828
61.9443
62.061
62.178
62.2952
62.4125
62.53
62.6475
62.7649
62.8822
62.9994
63.1162
63.2328
63.349
63.4648
63.58
63.6947
63.8089
63.9224
64.0352
64.1472
64.2585
64.3689
64.4786
64.5871
64.6953
64.8011
64.9091
65.0089
65.1242
65.2011
65.3671
67.2037
67.2017
67.1977
67.1915
67.1833
67.173
67.1606
67.1461
67.1295
67.1108
67.0899
67.0669
67.0417
67.0144
66.9848
66.9529
66.9188
66.8825
66.8438
66.8028
66.7595
66.7138
66.6657
66.6152
66.5623
66.507
66.4493
66.3891
66.3265
66.2614
66.1939
66.124
66.0517
65.977
65.9
65.8206
65.7389
65.655
65.569
65.4808
65.3906
65.2983
65.2042
65.1083
65.0106
64.9114
64.8106
64.7084
64.6049
64.5003
64.3946
64.2879
64.1805
64.0725
63.9639
63.8549
63.7457
63.6363
63.5269
63.4177
63.3087
63.2001
63.0919
62.9843
62.8775
62.7714
62.6662
62.562
62.4589
62.3569
62.256
62.1565
62.0582
61.9613
61.8658
61.7717
61.6791
61.5879
61.4982
61.41
61.3233
61.2381
61.1544
61.0721
60.9913
60.9119
60.8339
60.7573
60.682
60.6081
60.5354
60.4639
60.3937
60.3246
60.2566
60.1898
60.1239
60.0591
59.9952
59.9323
59.8702
59.809
59.7486
59.689
59.6302
59.572
59.5146
59.4579
59.4017
59.3463
59.2914
59.2371
59.1834
59.1303
59.0778
59.0258
58.9744
58.9236
58.8733
58.8237
58.7746
58.7261
58.6782
58.631
58.5844
58.5385
58.4933
58.4489
58.4051
58.3622
58.3201
58.2788
58.2384
58.1989
58.1604
58.1228
58.0863
58.0508
58.0165
57.9832
57.9512
57.9204
57.8908
57.8625
57.8356
57.81
57.7858
57.7631
57.7419
57.7222
57.7041
57.6876
57.6727
57.6595
57.648
57.6382
57.6302
57.624
57.6196
57.6171
57.6165
57.6178
57.621
57.6262
57.6334
57.6426
57.6538
57.6671
57.6825
57.7
57.7196
57.7413
57.7652
57.7912
57.8194
57.8498
57.8823
57.9171
57.9541
57.9934
58.0348
58.0785
58.1244
58.1726
58.223
58.2756
58.3304
58.3875
58.4468
58.5083
58.572
58.6379
58.706
58.7762
58.8485
58.923
58.9995
59.0781
59.1588
59.2414
59.326
59.4126
59.501
59.5913
59.6834
59.7773
59.8729
59.9702
60.0691
60.1696
60.2715
60.3749
60.4797
60.5858
60.6932
60.8017
60.9114
61.0221
61.1338
61.2464
61.3598
61.474
61.5889
61.7043
61.8203
61.9368
62.0536
62.1708
62.2882
62.4057
62.5234
62.641
62.7586
62.8761
62.9934
63.1105
63.2272
63.3435
63.4595
63.5749
63.6898
63.804
63.9177
64.0306
64.1428
64.2542
64.3648
64.4746
64.5832
64.6915
64.7975
64.9056
65.0055
65.1209
65.1979
65.364
67.2037
67.2017
67.1977
67.1915
67.1833
67.173
67.1606
67.1462
67.1296
67.1109
67.0901
67.0671
67.0419
67.0146
66.985
66.9532
66.9191
66.8827
66.8441
66.8031
66.7597
66.714
66.6659
66.6154
66.5625
66.5071
66.4493
66.389
66.3263
66.2611
66.1935
66.1234
66.0509
65.9761
65.8988
65.8192
65.7373
65.6531
65.5668
65.4783
65.3877
65.2952
65.2007
65.1044
65.0063
64.9066
64.8054
64.7028
64.5989
64.4938
64.3877
64.2806
64.1727
64.0642
63.9552
63.8458
63.7361
63.6263
63.5165
63.4069
63.2975
63.1885
63.08
62.9721
62.8649
62.7586
62.6531
62.5487
62.4453
62.3431
62.2421
62.1424
62.044
61.947
61.8514
61.7573
61.6646
61.5734
61.4837
61.3955
61.3088
61.2236
61.1399
61.0577
60.977
60.8976
60.8197
60.7432
60.668
60.5942
60.5216
60.4502
60.3801
60.3111
60.2433
60.1765
60.1108
60.0461
59.9823
59.9195
59.8575
59.7964
59.7361
59.6766
59.6178
59.5597
59.5023
59.4456
59.3896
59.3341
59.2793
59.225
59.1714
59.1183
59.0657
59.0137
58.9623
58.9115
58.8612
58.8115
58.7623
58.7138
58.6659
58.6186
58.5719
58.5259
58.4806
58.4361
58.3923
58.3492
58.307
58.2656
58.2251
58.1855
58.1469
58.1092
58.0726
58.037
58.0025
57.9691
57.937
57.906
57.8763
57.8479
57.8208
57.7952
57.7709
57.7481
57.7267
57.707
57.6887
57.6721
57.6571
57.6438
57.6322
57.6223
57.6142
57.6079
57.6035
57.6009
57.6002
57.6014
57.6046
57.6097
57.6168
57.626
57.6372
57.6504
57.6657
57.6831
57.7027
57.7244
57.7482
57.7742
57.8024
57.8327
57.8653
57.9
57.937
57.9762
58.0177
58.0614
58.1073
58.1554
58.2058
58.2585
58.3133
58.3704
58.4297
58.4913
58.555
58.6209
58.6891
58.7593
58.8317
58.9062
58.9829
59.0616
59.1423
59.225
59.3098
59.3964
59.485
59.5754
59.6677
59.7617
59.8575
59.9549
60.054
60.1546
60.2568
60.3604
60.4653
60.5717
60.6792
60.788
60.8979
61.0088
61.1208
61.2336
61.3473
61.4617
61.5768
61.6926
61.8088
61.9256
62.0427
62.1601
62.2777
62.3955
62.5134
62.6314
62.7492
62.867
62.9845
63.1018
63.2188
63.3354
63.4515
63.5672
63.6823
63.7968
63.9107
64.0238
64.1362
64.2478
64.3586
64.4686
64.5774
64.6859
64.792
64.9003
65.0003
65.116
65.193
65.3594
67.2037
67.2017
67.1977
67.1916
67.1833
67.1731
67.1607
67.1463
67.1297
67.1111
67.0903
67.0673
67.0422
67.0148
66.9853
66.9535
66.9194
66.8831
66.8444
66.8034
66.7601
66.7143
66.6662
66.6156
66.5626
66.5072
66.4493
66.3889
66.3261
66.2607
66.1929
66.1227
66.05
65.9748
65.8973
65.8174
65.7352
65.6507
65.5639
65.475
65.384
65.291
65.196
65.0992
65.0006
64.9004
64.7986
64.6954
64.5909
64.4852
64.3785
64.2708
64.1623
64.0532
63.9436
63.8336
63.7233
63.613
63.5026
63.3925
63.2826
63.1731
63.0641
62.9558
62.8482
62.7415
62.6357
62.5309
62.4273
62.3248
62.2236
62.1236
62.0251
61.9279
61.8322
61.738
61.6452
61.554
61.4643
61.3761
61.2894
61.2043
61.1206
61.0385
60.9578
60.8786
60.8008
60.7244
60.6494
60.5756
60.5032
60.432
60.362
60.2932
60.2255
60.1589
60.0933
60.0287
59.9651
59.9024
59.8406
59.7796
59.7194
59.66
59.6013
59.5433
59.486
59.4294
59.3734
59.318
59.2632
59.209
59.1553
59.1022
59.0497
58.9977
58.9462
58.8954
58.845
58.7952
58.746
58.6974
58.6494
58.602
58.5553
58.5092
58.4638
58.4191
58.3752
58.332
58.2896
58.2481
58.2074
58.1677
58.1289
58.0911
58.0543
58.0185
57.9839
57.9504
57.918
57.8869
57.8571
57.8285
57.8013
57.7754
57.751
57.7281
57.7066
57.6866
57.6683
57.6515
57.6364
57.6229
57.6112
57.6012
57.593
57.5866
57.582
57.5793
57.5785
57.5797
57.5827
57.5878
57.5948
57.6039
57.615
57.6281
57.6434
57.6608
57.6802
57.7019
57.7256
57.7516
57.7797
57.81
57.8425
57.8773
57.9142
57.9534
57.9949
58.0385
58.0844
58.1326
58.183
58.2357
58.2906
58.3477
58.407
58.4686
58.5324
58.5984
58.6666
58.7369
58.8094
58.884
58.9607
59.0395
59.1204
59.2033
59.2881
59.3749
59.4637
59.5543
59.6467
59.741
59.8369
59.9346
60.0339
60.1347
60.2371
60.341
60.4462
60.5528
60.6607
60.7697
60.8799
60.9912
61.1034
61.2166
61.3306
61.4454
61.5608
61.6769
61.7935
61.9106
62.028
62.1458
62.2638
62.382
62.5002
62.6185
62.7367
62.8548
62.9727
63.0903
63.2076
63.3245
63.441
63.557
63.6724
63.7872
63.9013
64.0148
64.1274
64.2393
64.3503
64.4606
64.5697
64.6784
64.7847
64.8933
64.9935
65.1094
65.1866
65.3532
67.2037
67.2017
67.1977
67.1916
67.1834
67.1731
67.1608
67.1464
67.1299
67.1113
67.0905
67.0676
67.0425
67.0152
66.9857
66.9539
66.9199
66.8836
66.8449
66.8039
66.7605
66.7148
66.6666
66.616
66.5629
66.5074
66.4494
66.3888
66.3258
66.2603
66.1923
66.1218
66.0488
65.9733
65.8955
65.8152
65.7325
65.6476
65.5604
65.471
65.3794
65.2858
65.1902
65.0928
64.9935
64.8926
64.7901
64.6862
64.581
64.4745
64.367
64.2586
64.1494
64.0395
63.9291
63.8183
63.7074
63.5963
63.4853
63.3744
63.2639
63.1538
63.0443
62.9354
62.8273
62.7201
62.6138
62.5087
62.4047
62.3019
62.2003
62.1002
62.0014
61.9041
61.8082
61.7138
61.621
61.5297
61.44
61.3518
61.2652
61.1801
61.0965
61.0145
60.9339
60.8549
60.7772
60.701
60.6261
60.5525
60.4803
60.4093
60.3395
60.2709
60.2033
60.1369
60.0715
60.0071
59.9437
59.8812
59.8195
59.7587
59.6986
59.6393
59.5808
59.5229
59.4657
59.4092
59.3533
59.2979
59.2432
59.189
59.1354
59.0823
59.0297
58.9777
58.9262
58.8753
58.8249
58.7751
58.7258
58.6771
58.6289
58.5814
58.5346
58.4883
58.4428
58.398
58.3538
58.3105
58.268
58.2263
58.1854
58.1455
58.1065
58.0685
58.0315
57.9955
57.9607
57.927
57.8944
57.8631
57.8331
57.8043
57.7769
57.7509
57.7263
57.7031
57.6815
57.6613
57.6428
57.6259
57.6106
57.597
57.5851
57.5749
57.5666
57.56
57.5553
57.5525
57.5515
57.5525
57.5555
57.5604
57.5674
57.5763
57.5873
57.6004
57.6156
57.6329
57.6523
57.6738
57.6975
57.7234
57.7515
57.7817
57.8142
57.8489
57.8859
57.925
57.9664
58.0101
58.056
58.1042
58.1546
58.2072
58.2621
58.3193
58.3787
58.4403
58.5042
58.5702
58.6385
58.7089
58.7815
58.8563
58.9331
59.012
59.093
59.1761
59.2611
59.3481
59.4371
59.5279
59.6206
59.715
59.8112
59.9092
60.0087
60.1099
60.2126
60.3168
60.4224
60.5293
60.6375
60.7469
60.8575
60.9691
61.0818
61.1954
61.3098
61.425
61.5408
61.6573
61.7744
61.8919
62.0098
62.128
62.2464
62.365
62.4837
62.6024
62.7211
62.8396
62.9579
63.0759
63.1937
63.311
63.4279
63.5442
63.66
63.7752
63.8897
64.0035
64.1165
64.2288
64.3401
64.4507
64.56
64.6691
64.7757
64.8845
64.985
65.1012
65.1786
65.3456
67.2037
67.2017
67.1977
67.1916
67.1835
67.1732
67.1609
67.1466
67.1301
67.1115
67.0908
67.0679
67.0429
67.0156
66.9862
66.9545
66.9205
66.8841
66.8455
66.8045
66.7611
66.7154
66.6671
66.6165
66.5633
66.5077
66.4495
66.3888
66.3256
66.2599
66.1916
66.1208
66.0475
65.9717
65.8934
65.8126
65.7295
65.644
65.5562
65.4662
65.374
65.2797
65.1833
65.0851
64.9851
64.8833
64.78
64.6752
64.5691
64.4617
64.3533
64.2439
64.1338
64.023
63.9117
63.8
63.6882
63.5762
63.4644
63.3527
63.2414
63.1306
63.0204
62.9108
62.8021
62.6944
62.5876
62.4819
62.3775
62.2743
62.1724
62.072
61.9729
61.8754
61.7794
61.6849
61.592
61.5006
61.4109
61.3227
61.2361
61.1511
61.0676
60.9857
60.9053
60.8264
60.7489
60.6729
60.5982
60.5249
60.4528
60.3821
60.3125
60.2441
60.1768
60.1106
60.0455
59.9813
59.9181
59.8558
59.7943
59.7336
59.6738
59.6147
59.5563
59.4986
59.4415
59.385
59.3292
59.274
59.2193
59.1651
59.1115
59.0585
59.0059
58.9539
58.9023
58.8514
58.8009
58.751
58.7016
58.6528
58.6045
58.5569
58.5098
58.4634
58.4177
58.3727
58.3284
58.2849
58.2421
58.2002
58.1591
58.119
58.0797
58.0415
58.0043
57.9681
57.933
57.899
57.8663
57.8347
57.8044
57.7754
57.7478
57.7215
57.6967
57.6733
57.6514
57.6311
57.6123
57.5952
57.5797
57.5659
57.5538
57.5435
57.535
57.5282
57.5234
57.5204
57.5193
57.5201
57.5229
57.5277
57.5345
57.5434
57.5543
57.5672
57.5823
57.5995
57.6188
57.6403
57.6639
57.6897
57.7177
57.7479
57.7803
57.815
57.8519
57.891
57.9324
57.9761
58.022
58.0701
58.1205
58.1732
58.2282
58.2854
58.3448
58.4065
58.4704
58.5366
58.6049
58.6755
58.7482
58.823
58.9
58.9791
59.0603
59.1435
59.2288
59.316
59.4052
59.4963
59.5892
59.684
59.7805
59.8787
59.9787
60.0802
60.1832
60.2878
60.3938
60.5011
60.6098
60.7196
60.8307
60.9428
61.0559
61.1699
61.2848
61.4005
61.5169
61.6339
61.7515
61.8695
61.9879
62.1067
62.2256
62.3448
62.464
62.5832
62.7024
62.8214
62.9402
63.0588
63.177
63.2948
63.4122
63.529
63.6453
63.7609
63.8758
63.9901
64.1035
64.2161
64.3279
64.4388
64.5485
64.6579
64.7649
64.8741
64.9749
65.0914
65.169
65.3365
67.2037
67.2017
67.1978
67.1917
67.1835
67.1733
67.1611
67.1468
67.1304
67.1118
67.0912
67.0684
67.0434
67.0162
66.9868
66.9551
66.9212
66.8849
66.8463
66.8053
66.7619
66.7161
66.6678
66.6171
66.5639
66.5081
66.4498
66.3889
66.3255
66.2595
66.1909
66.1198
66.0461
65.9698
65.891
65.8098
65.7261
65.6399
65.5515
65.4607
65.3677
65.2726
65.1754
65.0763
64.9753
64.8726
64.7683
64.6624
64.5552
64.4468
64.3373
64.2268
64.1156
64.0037
63.8914
63.7786
63.6658
63.5528
63.44
63.3274
63.2152
63.1035
62.9924
62.8821
62.7727
62.6643
62.5569
62.4507
62.3457
62.2421
62.1398
62.039
61.9397
61.8419
61.7457
61.6511
61.5581
61.4667
61.3769
61.2887
61.2022
61.1173
61.034
60.9522
60.872
60.7932
60.716
60.6402
60.5657
60.4927
60.4209
60.3504
60.2811
60.213
60.146
60.0801
60.0152
59.9513
59.8883
59.8263
59.765
59.7046
59.645
59.5861
59.5278
59.4703
59.4134
59.3571
59.3013
59.2462
59.1916
59.1375
59.0839
59.0308
58.9783
58.9262
58.8747
58.8236
58.7731
58.723
58.6735
58.6246
58.5762
58.5284
58.4812
58.4346
58.3887
58.3434
58.2989
58.2551
58.2121
58.17
58.1286
58.0882
58.0487
58.0102
57.9727
57.9362
57.9008
57.8666
57.8336
57.8017
57.7712
57.7419
57.714
57.6874
57.6623
57.6387
57.6166
57.596
57.577
57.5596
57.5439
57.5298
57.5175
57.507
57.4982
57.4913
57.4863
57.4831
57.4818
57.4825
57.4851
57.4898
57.4964
57.5051
57.5159
57.5287
57.5437
57.5607
57.5799
57.6013
57.6248
57.6505
57.6785
57.7086
57.741
57.7756
57.8124
57.8515
57.8929
57.9365
57.9824
58.0306
58.081
58.1337
58.1887
58.2459
58.3054
58.3672
58.4312
58.4974
58.5659
58.6365
58.7094
58.7844
58.8616
58.9408
59.0222
59.1057
59.1912
59.2787
59.3681
59.4595
59.5527
59.6478
59.7447
59.8433
59.9436
60.0456
60.1491
60.2541
60.3605
60.4683
60.5775
60.6878
60.7994
60.912
61.0257
61.1403
61.2558
61.3721
61.4891
61.6067
61.7248
61.8435
61.9625
62.0819
62.2015
62.3212
62.441
62.5609
62.6807
62.8003
62.9197
63.0388
63.1576
63.276
63.3939
63.5113
63.6281
63.7443
63.8597
63.9744
64.0884
64.2015
64.3137
64.4251
64.5352
64.645
64.7524
64.862
64.9631
65.0801
65.1579
65.326
67.2037
67.2017
67.1978
67.1917
67.1836
67.1735
67.1613
67.147
67.1307
67.1122
67.0916
67.0689
67.044
67.0169
66.9875
66.9559
66.922
66.8858
66.8472
66.8062
66.7629
66.717
66.6687
66.6179
66.5646
66.5087
66.4502
66.3891
66.3255
66.2592
66.1903
66.1187
66.0446
65.9679
65.8885
65.8067
65.7223
65.6355
65.5462
65.4546
65.3608
65.2647
65.1665
65.0664
64.9643
64.8604
64.7549
64.6479
64.5395
64.4298
64.3191
64.2074
64.0949
63.9817
63.8681
63.7542
63.6401
63.526
63.412
63.2984
63.1851
63.0724
62.9604
62.8493
62.739
62.6298
62.5217
62.4149
62.3094
62.2052
62.1025
62.0013
61.9017
61.8036
61.7072
61.6124
61.5193
61.4278
61.3381
61.2499
61.1635
61.0787
60.9955
60.9139
60.8339
60.7554
60.6784
60.6029
60.5288
60.456
60.3845
60.3144
60.2454
60.1776
60.111
60.0454
59.9808
59.9172
59.8545
59.7928
59.7318
59.6717
59.6123
59.5536
59.4956
59.4382
59.3815
59.3253
59.2697
59.2147
59.1601
59.1061
59.0526
58.9995
58.947
58.8949
58.8433
58.7922
58.7415
58.6914
58.6417
58.5926
58.5441
58.4961
58.4487
58.4019
58.3557
58.3102
58.2654
58.2214
58.1781
58.1357
58.094
58.0533
58.0135
57.9747
57.9368
57.9
57.8644
57.8298
57.7964
57.7643
57.7334
57.7038
57.6756
57.6487
57.6233
57.5994
57.5769
57.5561
57.5368
57.5191
57.5031
57.4888
57.4763
57.4655
57.4565
57.4494
57.4441
57.4407
57.4392
57.4397
57.4422
57.4466
57.4531
57.4616
57.4722
57.4849
57.4997
57.5167
57.5357
57.557
57.5804
57.606
57.6339
57.6639
57.6962
57.7308
57.7675
57.8066
57.8479
57.8915
57.9374
57.9855
58.036
58.0887
58.1437
58.201
58.2606
58.3224
58.3865
58.4528
58.5214
58.5922
58.6652
58.7404
58.8177
58.8972
58.9789
59.0626
59.1483
59.2361
59.3259
59.4176
59.5112
59.6067
59.7039
59.803
59.9037
60.0061
60.1101
60.2156
60.3226
60.4309
60.5406
60.6516
60.7638
60.877
60.9913
61.1066
61.2227
61.3397
61.4573
61.5756
61.6945
61.8138
61.9336
62.0536
62.1739
62.2944
62.4149
62.5355
62.6559
62.7762
62.8963
63.0162
63.1356
63.2546
63.3732
63.4912
63.6086
63.7254
63.8414
63.9567
64.0712
64.1848
64.2975
64.4094
64.5201
64.6304
64.7382
64.8482
64.9498
65.0672
65.1453
65.314
67.2037
67.2018
67.1978
67.1918
67.1837
67.1736
67.1615
67.1473
67.131
67.1127
67.0922
67.0695
67.0447
67.0176
66.9884
66.9569
66.923
66.8869
66.8483
66.8074
66.764
66.7182
66.6698
66.619
66.5655
66.5095
66.4508
66.3896
66.3256
66.259
66.1897
66.1178
66.0431
65.9659
65.8859
65.8034
65.7183
65.6306
65.5405
65.448
65.3531
65.256
65.1567
65.0553
64.952
64.8469
64.7401
64.6317
64.5219
64.4108
64.2986
64.1855
64.0716
63.957
63.842
63.7267
63.6112
63.4958
63.3806
63.2656
63.1512
63.0374
62.9244
62.8122
62.701
62.5909
62.4821
62.3745
62.2684
62.1636
62.0604
61.9588
61.8588
61.7605
61.6638
61.5689
61.4756
61.3842
61.2944
61.2063
61.12
61.0353
60.9523
60.871
60.7912
60.713
60.6363
60.5611
60.4873
60.4149
60.3438
60.274
60.2054
60.138
60.0717
60.0065
59.9423
59.8791
59.8168
59.7553
59.6947
59.6349
59.5757
59.5173
59.4596
59.4024
59.3459
59.2899
59.2345
59.1795
59.1251
59.0712
59.0177
58.9647
58.9121
58.86
58.8083
58.7571
58.7064
58.6561
58.6063
58.557
58.5083
58.4601
58.4124
58.3654
58.319
58.2732
58.2281
58.1838
58.1402
58.0974
58.0554
58.0144
57.9742
57.935
57.8968
57.8597
57.8236
57.7887
57.755
57.7224
57.6912
57.6612
57.6327
57.6055
57.5797
57.5554
57.5327
57.5115
57.4919
57.4739
57.4576
57.443
57.4302
57.4191
57.4099
57.4025
57.397
57.3933
57.3916
57.3919
57.3941
57.3984
57.4047
57.413
57.4234
57.436
57.4506
57.4674
57.4863
57.5074
57.5307
57.5563
57.584
57.6139
57.6462
57.6806
57.7173
57.7563
57.7976
57.8412
57.887
57.9352
57.9856
58.0384
58.0934
58.1507
58.2104
58.2723
58.3364
58.4029
58.4716
58.5425
58.6157
58.6911
58.7687
58.8484
58.9303
59.0142
59.1003
59.1884
59.2785
59.3706
59.4646
59.5605
59.6582
59.7577
59.8589
59.9619
60.0664
60.1725
60.28
60.389
60.4993
60.611
60.7238
60.8377
60.9528
61.0687
61.1856
61.3033
61.4217
61.5408
61.6605
61.7806
61.9011
62.022
62.1431
62.2643
62.3857
62.507
62.6282
62.7493
62.8702
62.9908
63.111
63.2307
63.35
63.4687
63.5868
63.7042
63.8209
63.9369
64.052
64.1662
64.2795
64.392
64.5032
64.614
64.7223
64.8329
64.9349
65.0528
65.1313
65.3006
67.2037
67.2018
67.1978
67.1919
67.1839
67.1738
67.1618
67.1476
67.1315
67.1132
67.0928
67.0702
67.0455
67.0186
66.9894
66.958
66.9242
66.8882
66.8497
66.8088
66.7654
66.7196
66.6712
66.6203
66.5668
66.5106
66.4518
66.3902
66.326
66.2591
66.1894
66.117
66.0418
65.9639
65.8833
65.8
65.7141
65.6255
65.5344
65.4409
65.3449
65.2465
65.146
65.0433
64.9386
64.8321
64.7237
64.6138
64.5025
64.3898
64.276
64.1612
64.0457
63.9295
63.8129
63.6961
63.5791
63.4622
63.3455
63.2292
63.1134
62.9984
62.8841
62.7709
62.6587
62.5476
62.4379
62.3296
62.2227
62.1173
62.0136
61.9115
61.8111
61.7125
61.6156
61.5205
61.4271
61.3356
61.2459
61.1579
61.0717
60.9872
60.9044
60.8233
60.7438
60.666
60.5896
60.5148
60.4414
60.3694
60.2987
60.2294
60.1612
60.0943
60.0284
59.9636
59.8999
59.837
59.7751
59.7141
59.6538
59.5943
59.5355
59.4774
59.4199
59.363
59.3067
59.251
59.1957
59.1409
59.0866
59.0327
58.9793
58.9263
58.8737
58.8216
58.7699
58.7186
58.6677
58.6173
58.5674
58.5179
58.4689
58.4205
58.3726
58.3253
58.2785
58.2325
58.1871
58.1424
58.0984
58.0553
58.0129
57.9715
57.9309
57.8913
57.8527
57.8152
57.7787
57.7434
57.7093
57.6764
57.6447
57.6144
57.5854
57.5578
57.5317
57.507
57.4839
57.4623
57.4424
57.4241
57.4075
57.3926
57.3794
57.368
57.3585
57.3508
57.345
57.3411
57.3391
57.3391
57.3412
57.3452
57.3513
57.3594
57.3696
57.382
57.3964
57.413
57.4318
57.4528
57.476
57.5013
57.529
57.5588
57.5909
57.6253
57.6619
57.7009
57.7421
57.7856
57.8314
57.8796
57.93
57.9828
58.0378
58.0952
58.1549
58.2169
58.2812
58.3477
58.4166
58.4877
58.561
58.6366
58.7144
58.7944
58.8765
58.9608
59.0472
59.1356
59.2261
59.3186
59.413
59.5094
59.6076
59.7076
59.8094
59.9129
60.018
60.1247
60.2329
60.3426
60.4536
60.566
60.6796
60.7943
60.9101
61.0269
61.1446
61.2631
61.3824
61.5023
61.6228
61.7438
61.8653
61.987
62.109
62.2311
62.3533
62.4755
62.5976
62.7196
62.8413
62.9627
63.0837
63.2043
63.3244
63.4439
63.5628
63.6809
63.7984
63.915
64.0308
64.1457
64.2596
64.3727
64.4845
64.5959
64.7048
64.8159
64.9184
65.0369
65.1158
65.2859
67.2037
67.2018
67.1979
67.192
67.184
67.174
67.162
67.148
67.1319
67.1138
67.0935
67.0711
67.0465
67.0197
66.9906
66.9593
66.9257
66.8897
66.8513
66.8105
66.7672
66.7213
66.6729
66.622
66.5683
66.512
66.453
66.3912
66.3267
66.2594
66.1893
66.1164
66.0406
65.9621
65.8808
65.7966
65.7098
65.6203
65.5281
65.4334
65.3361
65.2365
65.1345
65.0304
64.9241
64.8159
64.706
64.5943
64.4812
64.3668
64.2512
64.1347
64.0173
63.8994
63.781
63.6624
63.5437
63.4251
63.3068
63.189
63.0718
62.9553
62.8398
62.7253
62.6119
62.4999
62.3892
62.28
62.1723
62.0663
61.962
61.8594
61.7586
61.6596
61.5625
61.4672
61.3738
61.2822
61.1925
61.1047
61.0186
60.9344
60.8519
60.7711
60.6919
60.6144
60.5385
60.4641
60.3912
60.3196
60.2495
60.1806
60.1129
60.0465
59.9811
59.9168
59.8535
59.7912
59.7297
59.6691
59.6092
59.5501
59.4917
59.434
59.3768
59.3202
59.2641
59.2086
59.1535
59.0989
59.0447
58.991
58.9376
58.8846
58.8321
58.7799
58.7281
58.6767
58.6257
58.5752
58.525
58.4754
58.4261
58.3774
58.3293
58.2816
58.2346
58.1882
58.1424
58.0973
58.053
58.0094
57.9667
57.9248
57.8838
57.8438
57.8048
57.7668
57.7299
57.6941
57.6595
57.6262
57.5941
57.5633
57.5339
57.5059
57.4793
57.4543
57.4307
57.4088
57.3885
57.3698
57.3528
57.3375
57.324
57.3123
57.3024
57.2944
57.2883
57.2841
57.2819
57.2816
57.2834
57.2872
57.293
57.3009
57.3109
57.3231
57.3373
57.3538
57.3724
57.3932
57.4162
57.4414
57.4689
57.4987
57.5307
57.5649
57.6015
57.6403
57.6815
57.725
57.7708
57.8189
57.8693
57.9221
57.9772
58.0346
58.0943
58.1564
58.2208
58.2875
58.3564
58.4277
58.5012
58.577
58.6551
58.7353
58.8177
58.9023
58.9891
59.0779
59.1688
59.2617
59.3566
59.4535
59.5522
59.6528
59.7552
59.8593
59.9651
60.0724
60.1814
60.2918
60.4036
60.5167
60.6311
60.7467
60.8633
60.981
61.0996
61.2191
61.3393
61.4602
61.5816
61.7036
61.826
61.9487
62.0717
62.1948
62.3179
62.4411
62.5642
62.6871
62.8097
62.9321
63.054
63.1755
63.2965
63.4168
63.5365
63.6555
63.7737
63.8911
64.0077
64.1233
64.238
64.3517
64.4642
64.5763
64.6858
64.7975
64.9005
65.0196
65.0989
65.2698
67.2037
67.2018
67.1979
67.1921
67.1842
67.1743
67.1624
67.1485
67.1325
67.1145
67.0943
67.072
67.0476
67.0209
66.992
66.9609
66.9274
66.8915
66.8532
66.8125
66.7692
66.7234
66.675
66.624
66.5703
66.5138
66.4546
66.3926
66.3278
66.2601
66.1895
66.1161
66.0397
65.9605
65.8784
65.7934
65.7055
65.6149
65.5216
65.4256
65.327
65.2259
65.1223
65.0166
64.9086
64.7987
64.6868
64.5733
64.4583
64.3419
64.2243
64.1057
63.9864
63.8664
63.7461
63.6255
63.505
63.3846
63.2645
63.145
63.0262
62.9082
62.7912
62.6753
62.5608
62.4475
62.3358
62.2257
62.1172
62.0105
61.9055
61.8024
61.7012
61.6019
61.5045
61.4091
61.3156
61.224
61.1344
61.0467
60.9608
60.8768
60.7946
60.7142
60.6355
60.5584
60.483
60.4091
60.3367
60.2657
60.196
60.1277
60.0606
59.9947
59.9299
59.8662
59.8035
59.7416
59.6807
59.6205
59.5612
59.5025
59.4445
59.3871
59.3303
59.274
59.2183
59.163
59.1081
59.0537
58.9997
58.946
58.8927
58.8398
58.7872
58.735
58.6832
58.6317
58.5806
58.5298
58.4795
58.4296
58.3801
58.3312
58.2827
58.2347
58.1873
58.1405
58.0943
58.0489
58.0041
57.9601
57.9169
57.8746
57.8331
57.7926
57.7531
57.7146
57.6772
57.641
57.6059
57.572
57.5395
57.5082
57.4783
57.4499
57.4229
57.3973
57.3734
57.351
57.3302
57.3112
57.2938
57.2781
57.2642
57.2522
57.242
57.2336
57.2272
57.2227
57.2201
57.2196
57.221
57.2246
57.2301
57.2378
57.2476
57.2595
57.2736
57.2898
57.3082
57.3288
57.3517
57.3768
57.4041
57.4337
57.4656
57.4997
57.5362
57.575
57.616
57.6595
57.7052
57.7533
57.8037
57.8565
57.9116
57.969
58.0288
58.091
58.1554
58.2222
58.2914
58.3628
58.4365
58.5125
58.5908
58.6713
58.7541
58.839
58.9261
59.0153
59.1067
59.2
59.2954
59.3928
59.4921
59.5933
59.6963
59.8011
59.9076
60.0157
60.1254
60.2366
60.3493
60.4633
60.5785
60.695
60.8126
60.9313
61.0508
61.1713
61.2925
61.4144
61.537
61.66
61.7834
61.9072
62.0312
62.1554
62.2796
62.4038
62.528
62.6519
62.7756
62.8989
63.0219
63.1443
63.2662
63.3875
63.5081
63.628
63.7471
63.8654
63.9827
64.0992
64.2146
64.3291
64.4423
64.555
64.6652
64.7776
64.8812
65.001
65.0807
65.2524
67.2037
67.2018
67.198
67.1922
67.1843
67.1746
67.1628
67.149
67.1332
67.1153
67.0953
67.0732
67.0489
67.0224
66.9937
66.9627
66.9293
66.8936
66.8555
66.8148
66.7717
66.7259
66.6775
66.6265
66.5727
66.5161
66.4568
66.3945
66.3294
66.2613
66.1902
66.1162
66.0392
65.9592
65.8763
65.7903
65.7014
65.6096
65.515
65.4176
65.3175
65.2148
65.1096
65.002
64.8922
64.7803
64.6664
64.5508
64.4336
64.3151
64.1953
64.0745
63.9529
63.8308
63.7083
63.5856
63.463
63.3405
63.2186
63.0972
62.9766
62.8569
62.7384
62.621
62.5051
62.3907
62.2778
62.1667
62.0573
61.9498
61.8442
61.7405
61.6389
61.5392
61.4416
61.346
61.2525
61.161
61.0715
60.984
60.8984
60.8147
60.7329
60.6528
60.5746
60.498
60.4231
60.3498
60.278
60.2076
60.1386
60.0709
60.0045
59.9392
59.875
59.8119
59.7498
59.6885
59.6282
59.5686
59.5097
59.4515
59.394
59.3371
59.2807
59.2248
59.1693
59.1143
59.0597
59.0055
58.9516
58.8981
58.8449
58.792
58.7395
58.6872
58.6353
58.5837
58.5324
58.4815
58.431
58.3808
58.3311
58.2818
58.233
58.1846
58.1369
58.0897
58.0431
57.9971
57.9519
57.9074
57.8637
57.8209
57.7789
57.7379
57.6979
57.6589
57.6209
57.5841
57.5485
57.5142
57.4811
57.4493
57.4189
57.39
57.3624
57.3365
57.312
57.2892
57.268
57.2484
57.2306
57.2146
57.2003
57.1878
57.1772
57.1685
57.1617
57.1569
57.154
57.1532
57.1543
57.1576
57.1629
57.1703
57.1798
57.1915
57.2053
57.2213
57.2395
57.26
57.2826
57.3075
57.3347
57.3642
57.3959
57.4299
57.4663
57.505
57.546
57.5893
57.635
57.683
57.7334
57.7862
57.8413
57.8988
57.9586
58.0208
58.0854
58.1523
58.2216
58.2932
58.3671
58.4433
58.5219
58.6027
58.6857
58.771
58.8585
58.9481
59.0399
59.1338
59.2297
59.3277
59.4276
59.5294
59.6331
59.7386
59.8458
59.9547
60.0652
60.1773
60.2908
60.4057
60.522
60.6394
60.7581
60.8777
60.9984
61.1199
61.2422
61.3653
61.4889
61.6131
61.7376
61.8626
61.9877
62.1131
62.2384
62.3638
62.4891
62.6141
62.7389
62.8634
62.9874
63.1109
63.2338
63.3561
63.4777
63.5986
63.7186
63.8378
63.956
64.0733
64.1895
64.3049
64.4188
64.5323
64.6432
64.7563
64.8606
64.981
65.0612
65.2339
67.2037
67.2018
67.1981
67.1923
67.1846
67.1749
67.1632
67.1496
67.1339
67.1162
67.0964
67.0745
67.0504
67.0241
66.9956
66.9648
66.9316
66.8961
66.8581
66.8176
66.7745
66.7289
66.6806
66.6295
66.5757
66.519
66.4595
66.397
66.3315
66.263
66.1915
66.1169
66.0392
65.9584
65.8746
65.7876
65.6976
65.6045
65.5085
65.4096
65.3079
65.2034
65.0964
64.9868
64.875
64.7609
64.6448
64.5269
64.4074
64.2864
64.1642
64.041
63.917
63.7925
63.6676
63.5426
63.4176
63.293
63.1689
63.0455
62.923
62.8015
62.6812
62.5623
62.4449
62.3292
62.2151
62.1029
61.9926
61.8843
61.778
61.6738
61.5717
61.4717
61.3739
61.2782
61.1846
61.0932
61.0038
60.9165
60.8312
60.7479
60.6666
60.587
60.5093
60.4334
60.3591
60.2864
60.2152
60.1456
60.0773
60.0103
59.9446
59.88
59.8165
59.7541
59.6926
59.6321
59.5723
59.5134
59.4551
59.3975
59.3405
59.284
59.228
59.1725
59.1175
59.0628