/*--------------------------------*- C++ -*----------------------------------*\
| =========                 |                                                 |
| \\      /  F ield         | OpenFOAM: The Open Source CFD Toolbox           |
|  \\    /   O peration     | Version:  2306                                  |
|   \\  /    A nd           | Website:  www.openfoam.com                      |
|    \\/     M anipulation  |                                                 |
\*---------------------------------------------------------------------------*/
FoamFile
{
    version     2.0;
    format      ascii;
    arch        "LSB;label=32;scalar=64";
    class       volScalarField;
    location    "12";
    object      p;
}
// * * * * * * * * * * * * * * * * * * * * * * * * * * * * * * * * * * * * * //

dimensions      [0 2 -2 0 0 0 0];

internalField   nonuniform List<scalar> 
32768
(
0.327292
0.327159
0.32687
0.326415
0.325795
0.325012
0.324065
0.322954
0.321675
0.320228
0.31861
0.31682
0.314854
0.31271
0.310387
0.30788
0.305187
0.302304
0.29923
0.29596
0.292491
0.28882
0.284943
0.280857
0.27656
0.272047
0.267315
0.262363
0.257186
0.251783
0.246151
0.240288
0.234193
0.227865
0.221302
0.214504
0.207473
0.200207
0.19271
0.184982
0.177026
0.168846
0.160445
0.151828
0.143001
0.133969
0.124739
0.115319
0.105717
0.0959419
0.0860025
0.0759092
0.0656726
0.0553037
0.044814
0.0342154
0.0235201
0.0127405
0.00188911
-0.00902128
-0.019978
-0.0309683
-0.0419797
-0.0529997
-0.0640164
-0.0750178
-0.0859925
-0.0969295
-0.107818
-0.118649
-0.129412
-0.140099
-0.150701
-0.161211
-0.171622
-0.181927
-0.192122
-0.202201
-0.21216
-0.221996
-0.231706
-0.241288
-0.250739
-0.26006
-0.269249
-0.278306
-0.287232
-0.296029
-0.304697
-0.313238
-0.321654
-0.329948
-0.338122
-0.34618
-0.354124
-0.361957
-0.369683
-0.377306
-0.384828
-0.392253
-0.399585
-0.406827
-0.413982
-0.421054
-0.428045
-0.434958
-0.441796
-0.448561
-0.455256
-0.461882
-0.468442
-0.474936
-0.481366
-0.487733
-0.494038
-0.50028
-0.50646
-0.512577
-0.518632
-0.524622
-0.530547
-0.536405
-0.542195
-0.547914
-0.55356
-0.559131
-0.564623
-0.570034
-0.57536
-0.580598
-0.585744
-0.590795
-0.595745
-0.600591
-0.605329
-0.609954
-0.614461
-0.618846
-0.623105
-0.627231
-0.631221
-0.63507
-0.638773
-0.642324
-0.64572
-0.648954
-0.652024
-0.654923
-0.657648
-0.660194
-0.662556
-0.66473
-0.666712
-0.668498
-0.670084
-0.671466
-0.672641
-0.673605
-0.674355
-0.674888
-0.6752
-0.67529
-0.675154
-0.67479
-0.674196
-0.67337
-0.67231
-0.671015
-0.669483
-0.667713
-0.665704
-0.663455
-0.660966
-0.658236
-0.655266
-0.652056
-0.648605
-0.644914
-0.640985
-0.636819
-0.632416
-0.627778
-0.622907
-0.617805
-0.612474
-0.606917
-0.601137
-0.595137
-0.588919
-0.582489
-0.575848
-0.569002
-0.561956
-0.554713
-0.547278
-0.539658
-0.531856
-0.523879
-0.515734
-0.507425
-0.49896
-0.490345
-0.481588
-0.472694
-0.463673
-0.45453
-0.445274
-0.435912
-0.426453
-0.416905
-0.407275
-0.397573
-0.387805
-0.377982
-0.368111
-0.3582
-0.348258
-0.338293
-0.328313
-0.318327
-0.308343
-0.298368
-0.288409
-0.278476
-0.268574
-0.258711
-0.248895
-0.23913
-0.229425
-0.219784
-0.210215
-0.200721
-0.191309
-0.181983
-0.172748
-0.163608
-0.154567
-0.145628
-0.136796
-0.128072
-0.11946
-0.110963
-0.102581
-0.0943175
-0.0861735
-0.0781507
-0.0702494
-0.0624724
-0.054816
-0.0472907
-0.0398738
-0.0326179
-0.025403
-0.0184978
-0.0112588
-0.00499576
0.327452
0.32732
0.327031
0.326576
0.325957
0.325174
0.324228
0.323118
0.32184
0.320394
0.318777
0.316987
0.315023
0.312881
0.310558
0.308052
0.30536
0.302479
0.299406
0.296137
0.292669
0.288998
0.285122
0.281037
0.276739
0.272226
0.267494
0.26254
0.257363
0.251958
0.246324
0.240458
0.23436
0.228028
0.221462
0.21466
0.207623
0.200352
0.192848
0.185113
0.177149
0.168961
0.160551
0.151925
0.143088
0.134045
0.124805
0.115373
0.105759
0.0959716
0.0860197
0.0759137
0.0656642
0.0552823
0.0447795
0.0341679
0.0234597
0.0126673
0.00180339
-0.00911922
-0.0200878
-0.0310895
-0.0421119
-0.0531424
-0.0641689
-0.0751796
-0.0861629
-0.0971079
-0.108004
-0.118841
-0.12961
-0.140302
-0.150909
-0.161422
-0.171836
-0.182144
-0.19234
-0.20242
-0.21238
-0.222216
-0.231925
-0.241505
-0.250954
-0.260272
-0.269458
-0.278512
-0.287435
-0.296228
-0.304891
-0.313428
-0.32184
-0.330129
-0.338298
-0.346351
-0.354289
-0.362118
-0.369839
-0.377457
-0.384974
-0.392395
-0.399722
-0.406959
-0.41411
-0.421178
-0.428164
-0.435074
-0.441908
-0.448671
-0.455362
-0.461986
-0.468544
-0.475036
-0.481464
-0.48783
-0.494134
-0.500375
-0.506555
-0.512672
-0.518726
-0.524717
-0.530643
-0.536502
-0.542293
-0.548014
-0.553662
-0.559234
-0.564729
-0.570142
-0.575471
-0.580712
-0.585861
-0.590915
-0.595868
-0.600718
-0.605459
-0.610088
-0.614599
-0.618988
-0.62325
-0.627381
-0.631375
-0.635227
-0.638934
-0.642489
-0.645888
-0.649127
-0.652201
-0.655104
-0.657832
-0.660382
-0.662747
-0.664925
-0.66691
-0.6687
-0.670289
-0.671674
-0.672852
-0.673819
-0.674572
-0.675108
-0.675423
-0.675515
-0.675382
-0.67502
-0.674429
-0.673605
-0.672547
-0.671254
-0.669724
-0.667956
-0.665948
-0.663701
-0.661214
-0.658486
-0.655517
-0.652308
-0.648858
-0.645169
-0.641241
-0.637075
-0.632672
-0.628035
-0.623164
-0.618063
-0.612732
-0.607176
-0.601395
-0.595395
-0.589177
-0.582746
-0.576105
-0.569258
-0.56221
-0.554966
-0.54753
-0.539908
-0.532104
-0.524126
-0.515978
-0.507667
-0.499199
-0.490581
-0.481821
-0.472924
-0.463899
-0.454752
-0.445492
-0.436127
-0.426663
-0.417111
-0.407476
-0.397769
-0.387997
-0.378168
-0.368292
-0.358376
-0.348428
-0.338458
-0.328473
-0.318481
-0.308491
-0.29851
-0.288546
-0.278607
-0.268699
-0.258831
-0.249009
-0.239239
-0.229528
-0.219882
-0.210307
-0.200808
-0.19139
-0.18206
-0.17282
-0.163675
-0.154629
-0.145686
-0.13685
-0.128122
-0.119506
-0.111004
-0.102619
-0.0943519
-0.0862045
-0.0781784
-0.070274
-0.062494
-0.0548346
-0.0473068
-0.0398866
-0.0326292
-0.0254082
-0.0185062
-0.0112484
-0.0050191
0.327773
0.327641
0.327353
0.326899
0.32628
0.325499
0.324555
0.323446
0.32217
0.320726
0.319111
0.317324
0.315361
0.313221
0.310901
0.308398
0.305709
0.30283
0.299758
0.296491
0.293025
0.289356
0.285481
0.281396
0.277099
0.272585
0.267852
0.262897
0.257717
0.252308
0.24667
0.2408
0.234696
0.228357
0.221782
0.214971
0.207924
0.200641
0.193124
0.185375
0.177396
0.169191
0.160764
0.152119
0.143262
0.134198
0.124935
0.115481
0.105843
0.0960311
0.0860542
0.0759226
0.0656471
0.0552391
0.0447102
0.0340724
0.0233382
0.0125202
0.00163118
-0.00931597
-0.0203083
-0.0313331
-0.0423774
-0.0534289
-0.0644752
-0.0755045
-0.0865052
-0.0974662
-0.108377
-0.119227
-0.130008
-0.14071
-0.151325
-0.161846
-0.172266
-0.182578
-0.192778
-0.20286
-0.21282
-0.222655
-0.232362
-0.241939
-0.251385
-0.260698
-0.269878
-0.278926
-0.287842
-0.296626
-0.305282
-0.313809
-0.322212
-0.330491
-0.338651
-0.346693
-0.354622
-0.36244
-0.370151
-0.377759
-0.385266
-0.392677
-0.399995
-0.407224
-0.414366
-0.421425
-0.428404
-0.435306
-0.442134
-0.448889
-0.455576
-0.462194
-0.468747
-0.475235
-0.481661
-0.488024
-0.494325
-0.500565
-0.506744
-0.512861
-0.518915
-0.524907
-0.530834
-0.536696
-0.542489
-0.548213
-0.553865
-0.559442
-0.564941
-0.570359
-0.575694
-0.58094
-0.586095
-0.591155
-0.596116
-0.600972
-0.605721
-0.610357
-0.614875
-0.619272
-0.623541
-0.62768
-0.631681
-0.635542
-0.639256
-0.642819
-0.646227
-0.649473
-0.652554
-0.655465
-0.658201
-0.660758
-0.66313
-0.665315
-0.667308
-0.669104
-0.6707
-0.672091
-0.673276
-0.674249
-0.675007
-0.675548
-0.675869
-0.675967
-0.675838
-0.675482
-0.674895
-0.674076
-0.673022
-0.671733
-0.670207
-0.668442
-0.666439
-0.664195
-0.661711
-0.658985
-0.656019
-0.652813
-0.649365
-0.645678
-0.641752
-0.637588
-0.633187
-0.628551
-0.623681
-0.61858
-0.61325
-0.607694
-0.601913
-0.595912
-0.589693
-0.583261
-0.576618
-0.56977
-0.56272
-0.555473
-0.548034
-0.540409
-0.532602
-0.524619
-0.516467
-0.508151
-0.499678
-0.491054
-0.482287
-0.473384
-0.464352
-0.455198
-0.44593
-0.436556
-0.427085
-0.417523
-0.407879
-0.398163
-0.388381
-0.378542
-0.368655
-0.358728
-0.34877
-0.338788
-0.328792
-0.318789
-0.308787
-0.298795
-0.28882
-0.278869
-0.26895
-0.25907
-0.249237
-0.239456
-0.229734
-0.220077
-0.210491
-0.200982
-0.191554
-0.182213
-0.172964
-0.163809
-0.154754
-0.145803
-0.136957
-0.128221
-0.119597
-0.111088
-0.102695
-0.094421
-0.0862667
-0.0782341
-0.0703233
-0.0625374
-0.0548721
-0.0473387
-0.039913
-0.0326506
-0.0254238
-0.0185183
-0.0112539
-0.00502989
0.328255
0.328123
0.327836
0.327383
0.326766
0.325986
0.325044
0.323937
0.322664
0.321223
0.319612
0.317828
0.315869
0.313733
0.311416
0.308917
0.306231
0.303355
0.300287
0.297023
0.293559
0.289892
0.286019
0.281935
0.277638
0.273124
0.26839
0.263432
0.258248
0.252835
0.247191
0.241314
0.235201
0.228851
0.222264
0.215439
0.208376
0.201076
0.19354
0.18577
0.177768
0.169538
0.161084
0.152411
0.143523
0.134428
0.125132
0.115643
0.105969
0.0961204
0.0861056
0.0759355
0.065621
0.0551736
0.0446051
0.033928
0.0231547
0.0122981
0.00137121
-0.0096129
-0.0206411
-0.0317004
-0.0427779
-0.0538609
-0.0649371
-0.0759943
-0.087021
-0.098006
-0.108939
-0.119809
-0.130607
-0.141324
-0.151953
-0.162485
-0.172913
-0.183232
-0.193436
-0.203521
-0.213482
-0.223316
-0.23302
-0.242593
-0.252033
-0.261338
-0.27051
-0.279548
-0.288452
-0.297225
-0.305868
-0.314382
-0.32277
-0.331035
-0.33918
-0.347207
-0.355121
-0.362924
-0.370619
-0.378212
-0.385705
-0.393101
-0.400405
-0.40762
-0.414749
-0.421795
-0.428763
-0.435654
-0.442471
-0.449217
-0.455895
-0.462506
-0.469051
-0.475534
-0.481954
-0.488313
-0.494611
-0.500849
-0.507026
-0.513143
-0.519199
-0.525192
-0.531121
-0.536986
-0.542783
-0.548512
-0.554169
-0.559752
-0.565258
-0.570684
-0.576027
-0.581282
-0.586447
-0.591516
-0.596486
-0.601353
-0.606113
-0.610759
-0.615289
-0.619697
-0.623979
-0.628129
-0.632142
-0.636014
-0.639741
-0.643316
-0.646735
-0.649993
-0.653085
-0.656007
-0.658755
-0.661322
-0.663706
-0.665901
-0.667904
-0.66971
-0.671316
-0.672718
-0.673911
-0.674893
-0.675661
-0.67621
-0.676539
-0.676645
-0.676524
-0.676175
-0.675595
-0.674782
-0.673735
-0.672453
-0.670932
-0.669173
-0.667175
-0.664936
-0.662457
-0.659736
-0.656774
-0.653571
-0.650127
-0.646443
-0.64252
-0.638358
-0.633959
-0.629325
-0.624457
-0.619357
-0.614028
-0.608471
-0.602691
-0.596689
-0.590469
-0.584035
-0.57739
-0.570539
-0.563486
-0.556236
-0.548792
-0.541162
-0.533349
-0.52536
-0.517201
-0.508878
-0.500397
-0.491765
-0.482989
-0.474076
-0.465033
-0.455868
-0.446589
-0.437202
-0.427718
-0.418143
-0.408485
-0.398754
-0.388957
-0.379103
-0.369201
-0.359258
-0.349283
-0.339285
-0.329272
-0.319252
-0.309233
-0.299224
-0.289231
-0.279263
-0.269327
-0.25943
-0.24958
-0.239782
-0.230043
-0.22037
-0.210768
-0.201243
-0.1918
-0.182444
-0.17318
-0.164011
-0.154942
-0.145977
-0.137119
-0.12837
-0.119735
-0.111214
-0.10281
-0.0945247
-0.0863601
-0.0783176
-0.0703974
-0.0626023
-0.0549283
-0.0473866
-0.0399528
-0.0326828
-0.0254484
-0.0185367
-0.0112646
-0.00503725
0.328897
0.328766
0.328479
0.328028
0.327412
0.326635
0.325696
0.324593
0.323323
0.321886
0.320279
0.3185
0.316546
0.314414
0.312103
0.309608
0.306927
0.304057
0.300993
0.297733
0.294273
0.290609
0.286738
0.282655
0.278359
0.273844
0.269108
0.264147
0.258959
0.25354
0.247888
0.242
0.235876
0.229512
0.222909
0.216065
0.208982
0.201658
0.194096
0.186298
0.178266
0.170002
0.161513
0.152801
0.143873
0.134735
0.125395
0.11586
0.106138
0.0962392
0.0861737
0.0759519
0.0655849
0.0550847
0.0444632
0.0337332
0.0229074
0.0119991
0.00102138
-0.0100123
-0.0210886
-0.0321942
-0.0433161
-0.0544413
-0.0655574
-0.076652
-0.0877135
-0.0987305
-0.109692
-0.120589
-0.13141
-0.142148
-0.152794
-0.16334
-0.173781
-0.184108
-0.194319
-0.204407
-0.214368
-0.224201
-0.233901
-0.243468
-0.252899
-0.262195
-0.271354
-0.280379
-0.289269
-0.298025
-0.30665
-0.315147
-0.323516
-0.331761
-0.339886
-0.347893
-0.355786
-0.363568
-0.371244
-0.378816
-0.386289
-0.393666
-0.40095
-0.408147
-0.415258
-0.422288
-0.42924
-0.436116
-0.44292
-0.449653
-0.456319
-0.46292
-0.469456
-0.475931
-0.482344
-0.488698
-0.494992
-0.501227
-0.507403
-0.513519
-0.519575
-0.52557
-0.531503
-0.537372
-0.543175
-0.54891
-0.554574
-0.560166
-0.565681
-0.571117
-0.576471
-0.581738
-0.586914
-0.591997
-0.596981
-0.601862
-0.606635
-0.611297
-0.615842
-0.620265
-0.624562
-0.628728
-0.632757
-0.636645
-0.640387
-0.643978
-0.647413
-0.650686
-0.653794
-0.656732
-0.659494
-0.662076
-0.664475
-0.666684
-0.668701
-0.670521
-0.67214
-0.673554
-0.67476
-0.675754
-0.676533
-0.677094
-0.677434
-0.67755
-0.67744
-0.6771
-0.67653
-0.675726
-0.674688
-0.673414
-0.671901
-0.67015
-0.668158
-0.665926
-0.663453
-0.660738
-0.657782
-0.654584
-0.651145
-0.647465
-0.643546
-0.639387
-0.634992
-0.63036
-0.625494
-0.620395
-0.615067
-0.60951
-0.60373
-0.597727
-0.591506
-0.585069
-0.578422
-0.571567
-0.56451
-0.557254
-0.549805
-0.542168
-0.534348
-0.526351
-0.518183
-0.50985
-0.501359
-0.492715
-0.483927
-0.475
-0.465944
-0.456764
-0.447469
-0.438066
-0.428565
-0.418972
-0.409296
-0.399545
-0.389728
-0.379854
-0.369931
-0.359966
-0.34997
-0.33995
-0.329914
-0.319871
-0.30983
-0.299797
-0.289781
-0.27979
-0.269831
-0.259911
-0.250038
-0.240218
-0.230457
-0.220762
-0.211138
-0.201592
-0.192128
-0.182752
-0.173468
-0.164281
-0.155193
-0.14621
-0.137335
-0.128569
-0.119917
-0.111381
-0.102962
-0.0946629
-0.0864846
-0.078429
-0.0704961
-0.062689
-0.0550033
-0.0474506
-0.040006
-0.032726
-0.0254814
-0.0185611
-0.0112786
-0.00504542
0.329698
0.329567
0.329282
0.328832
0.328219
0.327445
0.32651
0.325411
0.324146
0.322714
0.321112
0.319339
0.317391
0.315266
0.312961
0.310473
0.307798
0.304934
0.301876
0.298621
0.295165
0.291506
0.287637
0.283557
0.279262
0.274746
0.270008
0.265044
0.25985
0.254423
0.248761
0.242862
0.236722
0.230342
0.223718
0.216852
0.209742
0.20239
0.194795
0.186962
0.178891
0.170586
0.162051
0.153292
0.144313
0.135122
0.125725
0.116131
0.106349
0.0963876
0.0862581
0.075971
0.065538
0.0549711
0.0442828
0.0334861
0.0225942
0.0116206
0.000578917
-0.0105172
-0.0216539
-0.0328179
-0.0439956
-0.0551739
-0.0663401
-0.0774816
-0.0885867
-0.0996439
-0.110642
-0.121572
-0.132422
-0.143186
-0.153853
-0.164417
-0.174872
-0.185211
-0.195428
-0.20552
-0.215482
-0.225312
-0.235007
-0.244566
-0.253987
-0.263269
-0.272414
-0.281421
-0.290292
-0.299028
-0.307632
-0.316105
-0.32445
-0.332671
-0.34077
-0.348751
-0.356618
-0.364375
-0.372024
-0.379571
-0.387018
-0.394371
-0.401632
-0.408805
-0.415894
-0.422903
-0.429835
-0.436692
-0.443479
-0.450196
-0.456848
-0.463435
-0.46996
-0.476425
-0.48283
-0.489177
-0.495466
-0.501697
-0.507871
-0.513987
-0.520044
-0.526042
-0.531978
-0.537853
-0.543663
-0.549406
-0.55508
-0.560682
-0.566209
-0.571658
-0.577025
-0.582307
-0.587499
-0.592598
-0.597599
-0.602497
-0.607289
-0.611969
-0.616533
-0.620976
-0.625292
-0.629478
-0.633527
-0.637435
-0.641197
-0.644808
-0.648262
-0.651555
-0.654683
-0.657639
-0.66042
-0.663021
-0.665438
-0.667665
-0.669699
-0.671536
-0.673172
-0.674602
-0.675824
-0.676833
-0.677627
-0.678202
-0.678556
-0.678685
-0.678587
-0.67826
-0.677701
-0.676909
-0.675882
-0.674618
-0.673115
-0.671373
-0.669391
-0.667167
-0.664702
-0.661994
-0.659045
-0.655854
-0.65242
-0.648746
-0.644831
-0.640677
-0.636285
-0.631656
-0.626793
-0.621696
-0.616369
-0.610813
-0.605032
-0.599028
-0.592805
-0.586366
-0.579715
-0.572856
-0.565794
-0.558532
-0.551076
-0.543431
-0.535602
-0.527594
-0.519415
-0.51107
-0.502565
-0.493907
-0.485103
-0.47616
-0.467086
-0.457888
-0.448573
-0.43915
-0.429627
-0.420012
-0.410312
-0.400538
-0.390696
-0.380796
-0.370846
-0.360855
-0.350831
-0.340783
-0.33072
-0.320648
-0.310578
-0.300516
-0.290472
-0.280451
-0.270463
-0.260515
-0.250613
-0.240764
-0.230975
-0.221253
-0.211602
-0.202029
-0.19254
-0.183138
-0.17383
-0.164618
-0.155508
-0.146502
-0.137605
-0.128819
-0.120146
-0.11159
-0.103153
-0.0948358
-0.0866403
-0.0785682
-0.0706195
-0.0627973
-0.0550971
-0.0475306
-0.0400725
-0.03278
-0.0255228
-0.0185914
-0.0112962
-0.00505518
0.330658
0.330528
0.330244
0.329797
0.329187
0.328417
0.327486
0.326392
0.325133
0.323707
0.322112
0.320346
0.318406
0.316288
0.313991
0.311511
0.308844
0.305987
0.302936
0.299688
0.296238
0.292584
0.288719
0.284642
0.280348
0.275832
0.271092
0.266124
0.260923
0.255488
0.249814
0.2439
0.237744
0.231342
0.224695
0.217801
0.21066
0.203273
0.19564
0.187763
0.179645
0.17129
0.162701
0.153884
0.144844
0.135587
0.126123
0.116458
0.106602
0.0965654
0.0863583
0.0759921
0.0654789
0.0548311
0.0440618
0.0331842
0.0222121
0.0111595
4.02749e-05
-0.0111314
-0.0223414
-0.0335759
-0.044821
-0.0560635
-0.0672902
-0.0784884
-0.089646
-0.100751
-0.111794
-0.122763
-0.133648
-0.144442
-0.155135
-0.165721
-0.176192
-0.186543
-0.196769
-0.206865
-0.216828
-0.226655
-0.236343
-0.245891
-0.255299
-0.264566
-0.273691
-0.282678
-0.291525
-0.300236
-0.308813
-0.317258
-0.325574
-0.333764
-0.341832
-0.349782
-0.357618
-0.365342
-0.37296
-0.380476
-0.387893
-0.395216
-0.402448
-0.409593
-0.416656
-0.423639
-0.430547
-0.437382
-0.444147
-0.450845
-0.457479
-0.464051
-0.470562
-0.477015
-0.48341
-0.489749
-0.496031
-0.502258
-0.50843
-0.514545
-0.520604
-0.526605
-0.532547
-0.538428
-0.544246
-0.549999
-0.555685
-0.5613
-0.566842
-0.572306
-0.57769
-0.58299
-0.588201
-0.593319
-0.598341
-0.603261
-0.608074
-0.612777
-0.617364
-0.62183
-0.62617
-0.63038
-0.634453
-0.638385
-0.642171
-0.645805
-0.649284
-0.652601
-0.655751
-0.658731
-0.661535
-0.664158
-0.666596
-0.668845
-0.6709
-0.672758
-0.674413
-0.675863
-0.677104
-0.678131
-0.678943
-0.679535
-0.679905
-0.68005
-0.679968
-0.679656
-0.679111
-0.678333
-0.677318
-0.676067
-0.674576
-0.672845
-0.670873
-0.66866
-0.666204
-0.663506
-0.660565
-0.657381
-0.653955
-0.650287
-0.646379
-0.64223
-0.637842
-0.633217
-0.628356
-0.623262
-0.617936
-0.612381
-0.6066
-0.600595
-0.59437
-0.587928
-0.581273
-0.574409
-0.56734
-0.560071
-0.552606
-0.544951
-0.537111
-0.529092
-0.520899
-0.51254
-0.504019
-0.495344
-0.486521
-0.477559
-0.468463
-0.459243
-0.449905
-0.440457
-0.430908
-0.421265
-0.411538
-0.401735
-0.391863
-0.381932
-0.371951
-0.361927
-0.35187
-0.341788
-0.331691
-0.321585
-0.31148
-0.301383
-0.291303
-0.281248
-0.271225
-0.261242
-0.251305
-0.241422
-0.2316
-0.221844
-0.212161
-0.202556
-0.193035
-0.183603
-0.174265
-0.165024
-0.155886
-0.146853
-0.137929
-0.129118
-0.120421
-0.111842
-0.103382
-0.0950433
-0.0868271
-0.0787352
-0.0707676
-0.0629272
-0.0552097
-0.0476265
-0.0401524
-0.0328447
-0.0255725
-0.0186277
-0.0113174
-0.00506656
0.331776
0.331647
0.331365
0.33092
0.330314
0.329548
0.328622
0.327535
0.326283
0.324864
0.323278
0.32152
0.319589
0.317481
0.315193
0.312722
0.310065
0.307217
0.304175
0.300935
0.297492
0.293844
0.289985
0.285911
0.281619
0.277103
0.272361
0.267388
0.262181
0.256736
0.251049
0.245119
0.238942
0.232517
0.225842
0.218916
0.211738
0.20431
0.196632
0.188705
0.180533
0.172118
0.163465
0.15458
0.145467
0.136135
0.12659
0.116841
0.106899
0.0967724
0.0864736
0.076014
0.065406
0.0546627
0.0437976
0.0328245
0.0217578
0.0106118
-0.000598882
-0.0118597
-0.023156
-0.0344735
-0.0457981
-0.057116
-0.0684137
-0.0796784
-0.0908976
-0.10206
-0.113153
-0.124168
-0.135094
-0.145923
-0.156646
-0.167257
-0.177747
-0.188113
-0.198348
-0.208448
-0.218411
-0.228233
-0.237912
-0.247448
-0.25684
-0.266087
-0.27519
-0.28415
-0.29297
-0.301651
-0.310196
-0.318607
-0.326888
-0.335043
-0.343074
-0.350987
-0.358785
-0.366472
-0.374053
-0.381532
-0.388913
-0.3962
-0.403398
-0.41051
-0.417541
-0.424495
-0.431374
-0.438182
-0.444923
-0.451599
-0.458212
-0.464766
-0.471261
-0.477699
-0.484083
-0.490412
-0.496688
-0.50291
-0.509079
-0.515194
-0.521254
-0.527259
-0.533207
-0.539096
-0.544924
-0.55069
-0.556389
-0.562019
-0.567578
-0.573061
-0.578464
-0.583785
-0.589019
-0.59416
-0.599206
-0.604151
-0.608991
-0.613721
-0.618335
-0.622828
-0.627196
-0.631434
-0.635535
-0.639496
-0.64331
-0.646973
-0.650479
-0.653824
-0.657002
-0.660009
-0.662839
-0.665489
-0.667953
-0.670227
-0.672307
-0.674188
-0.675867
-0.677339
-0.678602
-0.679651
-0.680483
-0.681096
-0.681485
-0.681649
-0.681585
-0.68129
-0.680762
-0.679999
-0.679
-0.677763
-0.676286
-0.674568
-0.672609
-0.670408
-0.667963
-0.665275
-0.662344
-0.65917
-0.655752
-0.652092
-0.64819
-0.644047
-0.639665
-0.635045
-0.630188
-0.625096
-0.619772
-0.614218
-0.608436
-0.60243
-0.596203
-0.589757
-0.583098
-0.576228
-0.569152
-0.561874
-0.5544
-0.546734
-0.538881
-0.530848
-0.52264
-0.514263
-0.505723
-0.497028
-0.488184
-0.479199
-0.470079
-0.460832
-0.451466
-0.44199
-0.43241
-0.422736
-0.412976
-0.403139
-0.393232
-0.383265
-0.373246
-0.363184
-0.353089
-0.342967
-0.332829
-0.322683
-0.312537
-0.302399
-0.292278
-0.282182
-0.272118
-0.262094
-0.252116
-0.242193
-0.232331
-0.222536
-0.212815
-0.203172
-0.193615
-0.184147
-0.174773
-0.165499
-0.156328
-0.147263
-0.138309
-0.129468
-0.120743
-0.112136
-0.10365
-0.0952855
-0.0870452
-0.0789301
-0.0709403
-0.0630788
-0.0553409
-0.0477383
-0.0402455
-0.0329201
-0.0256304
-0.0186699
-0.0113421
-0.00507955
0.333052
0.332923
0.332643
0.332201
0.331599
0.330839
0.329919
0.328839
0.327595
0.326185
0.324608
0.322861
0.32094
0.318843
0.316566
0.314107
0.311461
0.308624
0.305592
0.302362
0.298928
0.295287
0.291435
0.287366
0.283076
0.278562
0.273818
0.268841
0.263626
0.258169
0.252469
0.24652
0.240321
0.233869
0.227162
0.220199
0.212981
0.205505
0.197775
0.189791
0.181556
0.173073
0.164347
0.155382
0.146186
0.136765
0.127127
0.117282
0.107238
0.0970085
0.0866034
0.0760354
0.0653175
0.0544634
0.0434872
0.0324034
0.021227
0.00997287
-0.00134374
-0.0127077
-0.0241038
-0.0355173
-0.0469336
-0.0583385
-0.069718
-0.0810591
-0.0923491
-0.103576
-0.114728
-0.125796
-0.136768
-0.147637
-0.158394
-0.169032
-0.179544
-0.189925
-0.20017
-0.210274
-0.220236
-0.230052
-0.239721
-0.249241
-0.258613
-0.267836
-0.276913
-0.285843
-0.29463
-0.303276
-0.311783
-0.320155
-0.328395
-0.336508
-0.344497
-0.352366
-0.36012
-0.367764
-0.375301
-0.382737
-0.390076
-0.397323
-0.404481
-0.411556
-0.41855
-0.425469
-0.432315
-0.439093
-0.445805
-0.452455
-0.459045
-0.465577
-0.472054
-0.478476
-0.484846
-0.491165
-0.497432
-0.503649
-0.509815
-0.51593
-0.521993
-0.528002
-0.533957
-0.539856
-0.545696
-0.551475
-0.55719
-0.562839
-0.568417
-0.573921
-0.579348
-0.584693
-0.589953
-0.595122
-0.600196
-0.60517
-0.61004
-0.6148
-0.619446
-0.623971
-0.628371
-0.632641
-0.636775
-0.640769
-0.644615
-0.648311
-0.651849
-0.655226
-0.658436
-0.661474
-0.664335
-0.667015
-0.669509
-0.671812
-0.67392
-0.675828
-0.677534
-0.679033
-0.680321
-0.681394
-0.682251
-0.682886
-0.683298
-0.683483
-0.683439
-0.683164
-0.682655
-0.681911
-0.680929
-0.679709
-0.678248
-0.676545
-0.674601
-0.672413
-0.669981
-0.667306
-0.664386
-0.661222
-0.657814
-0.654163
-0.650269
-0.646133
-0.641757
-0.637142
-0.632289
-0.627201
-0.621879
-0.616326
-0.610545
-0.604537
-0.598307
-0.591858
-0.585193
-0.578317
-0.571233
-0.563946
-0.55646
-0.548782
-0.540915
-0.532865
-0.52464
-0.516243
-0.507683
-0.498965
-0.490096
-0.481084
-0.471936
-0.46266
-0.453263
-0.443753
-0.434139
-0.424428
-0.41463
-0.404753
-0.394806
-0.384797
-0.374736
-0.36463
-0.35449
-0.344323
-0.334139
-0.323946
-0.313753
-0.303568
-0.2934
-0.283256
-0.273144
-0.263073
-0.253049
-0.243079
-0.233171
-0.223331
-0.213565
-0.20388
-0.19428
-0.18477
-0.175357
-0.166043
-0.156834
-0.147733
-0.138743
-0.129868
-0.12111
-0.112472
-0.103955
-0.0955625
-0.0872944
-0.0791528
-0.0711377
-0.0632518
-0.0554907
-0.0478659
-0.0403518
-0.0330062
-0.0256966
-0.0187181
-0.0113705
-0.00509414
0.334483
0.334355
0.334078
0.333639
0.333042
0.332288
0.331376
0.330303
0.329069
0.327669
0.326103
0.324368
0.322459
0.320375
0.318112
0.315665
0.313032
0.310208
0.307189
0.30397
0.300547
0.296916
0.293071
0.289009
0.284723
0.28021
0.275465
0.270483
0.26526
0.259793
0.254076
0.248108
0.241884
0.235402
0.22866
0.221656
0.214391
0.206863
0.199074
0.191025
0.182718
0.174158
0.165348
0.156294
0.147002
0.13748
0.127736
0.11778
0.107622
0.0972735
0.0867467
0.0760547
0.0652111
0.0542302
0.043127
0.0319167
0.0206148
0.00923716
-0.00220038
-0.013682
-0.0251919
-0.0367148
-0.0482354
-0.0597391
-0.0712116
-0.0826393
-0.0940093
-0.105309
-0.116528
-0.127654
-0.138679
-0.149592
-0.160387
-0.171055
-0.18159
-0.191988
-0.202243
-0.212351
-0.22231
-0.232118
-0.241773
-0.251275
-0.260624
-0.26982
-0.278865
-0.28776
-0.296509
-0.305113
-0.313577
-0.321903
-0.330097
-0.338161
-0.3461
-0.35392
-0.361624
-0.369217
-0.376705
-0.384093
-0.391384
-0.398583
-0.405697
-0.412727
-0.41968
-0.42656
-0.433369
-0.440112
-0.446792
-0.453412
-0.459975
-0.466483
-0.472939
-0.479343
-0.485698
-0.492005
-0.498263
-0.504474
-0.510637
-0.516752
-0.522817
-0.528833
-0.534796
-0.540706
-0.54656
-0.552355
-0.558088
-0.563757
-0.569358
-0.574887
-0.580341
-0.585714
-0.591003
-0.596203
-0.601309
-0.606317
-0.611221
-0.616017
-0.620698
-0.62526
-0.629697
-0.634003
-0.638175
-0.642205
-0.646089
-0.649822
-0.653397
-0.65681
-0.660056
-0.663129
-0.666025
-0.668739
-0.671266
-0.673602
-0.675742
-0.677682
-0.679418
-0.680946
-0.682263
-0.683364
-0.684247
-0.684909
-0.685345
-0.685555
-0.685534
-0.685281
-0.684794
-0.684071
-0.683109
-0.681907
-0.680464
-0.678779
-0.676851
-0.674678
-0.672261
-0.669599
-0.666692
-0.66354
-0.660143
-0.656502
-0.652618
-0.64849
-0.644122
-0.639513
-0.634665
-0.629581
-0.624262
-0.61871
-0.612929
-0.60692
-0.600688
-0.594234
-0.587564
-0.58068
-0.573588
-0.56629
-0.558792
-0.551099
-0.543217
-0.53515
-0.526904
-0.518486
-0.509902
-0.501158
-0.492262
-0.48322
-0.47404
-0.46473
-0.455297
-0.44575
-0.436097
-0.426345
-0.416505
-0.406583
-0.39659
-0.386534
-0.376424
-0.366269
-0.356078
-0.34586
-0.335623
-0.325377
-0.31513
-0.304892
-0.294669
-0.284471
-0.274306
-0.264181
-0.254103
-0.244081
-0.234121
-0.22423
-0.214414
-0.204679
-0.195031
-0.185475
-0.176016
-0.166658
-0.157406
-0.148263
-0.139233
-0.130319
-0.121524
-0.112851
-0.1043
-0.0958742
-0.0875748
-0.0794033
-0.0713595
-0.0634463
-0.0556591
-0.0480093
-0.0404712
-0.0331028
-0.0257709
-0.0187721
-0.0114023
-0.00511031
0.336068
0.335942
0.335667
0.335233
0.334641
0.333894
0.33299
0.331927
0.330703
0.329316
0.327763
0.32604
0.324146
0.322077
0.319829
0.317398
0.31478
0.31197
0.308966
0.305761
0.302351
0.298731
0.294896
0.290841
0.28656
0.28205
0.277305
0.272319
0.267089
0.261609
0.255876
0.249886
0.243635
0.23712
0.23034
0.223291
0.215974
0.208388
0.200533
0.192411
0.184025
0.175377
0.166473
0.157318
0.147919
0.138283
0.128419
0.118338
0.10805
0.0975671
0.0869027
0.0760702
0.0650842
0.0539599
0.0427129
0.0313593
0.0199155
0.00839827
-0.00317589
-0.0147903
-0.0264286
-0.0380746
-0.0497126
-0.0613273
-0.0729041
-0.0844289
-0.0958883
-0.10727
-0.118562
-0.129754
-0.140836
-0.151798
-0.162634
-0.173335
-0.183895
-0.19431
-0.204575
-0.214686
-0.224642
-0.234439
-0.244078
-0.253557
-0.262878
-0.272042
-0.28105
-0.289905
-0.298609
-0.307167
-0.31558
-0.323855
-0.331994
-0.340003
-0.347886
-0.355649
-0.363296
-0.370833
-0.378265
-0.385597
-0.392834
-0.399981
-0.407043
-0.414024
-0.42093
-0.427765
-0.434532
-0.441236
-0.44788
-0.454467
-0.461
-0.467481
-0.473913
-0.480298
-0.486636
-0.492929
-0.499178
-0.505382
-0.511542
-0.517657
-0.523726
-0.529748
-0.535722
-0.541644
-0.547513
-0.553327
-0.559082
-0.564774
-0.570401
-0.575958
-0.581441
-0.586846
-0.592169
-0.597404
-0.602547
-0.607593
-0.612535
-0.61737
-0.622092
-0.626695
-0.631173
-0.635522
-0.639735
-0.643807
-0.647733
-0.651507
-0.655123
-0.658577
-0.661863
-0.664976
-0.667911
-0.670664
-0.673228
-0.675601
-0.677777
-0.679752
-0.681522
-0.683083
-0.684431
-0.685564
-0.686477
-0.687167
-0.687632
-0.687868
-0.687874
-0.687646
-0.687182
-0.686482
-0.685542
-0.684361
-0.682939
-0.681273
-0.679362
-0.677207
-0.674807
-0.67216
-0.669268
-0.666129
-0.662745
-0.659115
-0.655241
-0.651123
-0.646762
-0.64216
-0.637319
-0.632239
-0.626923
-0.621373
-0.615592
-0.609583
-0.603348
-0.59689
-0.590214
-0.583323
-0.57622
-0.568911
-0.5614
-0.553692
-0.545792
-0.537705
-0.529438
-0.520995
-0.512385
-0.503613
-0.494686
-0.485611
-0.476396
-0.467048
-0.457576
-0.447987
-0.43829
-0.428492
-0.418604
-0.408633
-0.398589
-0.38848
-0.378315
-0.368104
-0.357856
-0.34758
-0.337285
-0.326979
-0.316673
-0.306373
-0.29609
-0.285831
-0.275605
-0.26542
-0.255283
-0.245202
-0.235184
-0.225235
-0.215362
-0.205572
-0.19587
-0.186261
-0.17675
-0.167343
-0.158043
-0.148853
-0.139779
-0.130822
-0.121985
-0.113272
-0.104683
-0.0962207
-0.0878864
-0.0796815
-0.0716058
-0.0636622
-0.0558458
-0.0481683
-0.0406036
-0.03321
-0.0258532
-0.0188319
-0.0114376
-0.00512802
0.337807
0.337682
0.33741
0.336981
0.336396
0.335656
0.334762
0.33371
0.332498
0.331124
0.329585
0.327878
0.326
0.323948
0.321717
0.319304
0.316703
0.313912
0.310924
0.307735
0.30434
0.300733
0.29691
0.292865
0.288592
0.284085
0.279341
0.274352
0.269114
0.263623
0.257872
0.251859
0.245579
0.23903
0.232207
0.225109
0.217735
0.210084
0.202157
0.193955
0.18548
0.176736
0.167727
0.158459
0.148939
0.139176
0.129178
0.118956
0.108522
0.097889
0.08707
0.0760798
0.0649339
0.0536484
0.0422399
0.0307255
0.0191226
0.0074488
-0.00427842
-0.0160415
-0.0278233
-0.0396069
-0.0513758
-0.0631142
-0.0748069
-0.0864393
-0.0979979
-0.10947
-0.120843
-0.132107
-0.143251
-0.154267
-0.165147
-0.175883
-0.18647
-0.196902
-0.207176
-0.217289
-0.227238
-0.237022
-0.246641
-0.256094
-0.265383
-0.274509
-0.283475
-0.292283
-0.300936
-0.30944
-0.317797
-0.326012
-0.33409
-0.342036
-0.349856
-0.357555
-0.365138
-0.372611
-0.37998
-0.387249
-0.394425
-0.401513
-0.408518
-0.415444
-0.422298
-0.429083
-0.435803
-0.442464
-0.449067
-0.455617
-0.462116
-0.468568
-0.474974
-0.481336
-0.487656
-0.493935
-0.500173
-0.506371
-0.512528
-0.518643
-0.524717
-0.530747
-0.536731
-0.542668
-0.548555
-0.55439
-0.560168
-0.565887
-0.571543
-0.577132
-0.582649
-0.58809
-0.593451
-0.598725
-0.603909
-0.608997
-0.613983
-0.618862
-0.623629
-0.628277
-0.632802
-0.637197
-0.641457
-0.645576
-0.649548
-0.653368
-0.657031
-0.66053
-0.663861
-0.667018
-0.669997
-0.672792
-0.675398
-0.677811
-0.680027
-0.68204
-0.683848
-0.685446
-0.686829
-0.687996
-0.688942
-0.689665
-0.69016