/*--------------------------------*- C++ -*----------------------------------*\
| =========                 |                                                 |
| \\      /  F ield         | OpenFOAM: The Open Source CFD Toolbox           |
|  \\    /   O peration     | Version:  2306                                  |
|   \\  /    A nd           | Website:  www.openfoam.com                      |
|    \\/     M anipulation  |                                                 |
\*---------------------------------------------------------------------------*/
FoamFile
{
    version     2.0;
    format      ascii;
    arch        "LSB;label=32;scalar=64";
    class       surfaceScalarField;
    location    "12";
    object      phi;
}
// * * * * * * * * * * * * * * * * * * * * * * * * * * * * * * * * * * * * * //

dimensions      [0 3 -1 0 0 0 0];

oriented        oriented;

internalField   nonuniform List<scalar> 
65152
(
0.0062505
-5.0192e-07
0.00625201
-1.50768e-06
0.00625452
-2.51406e-06
0.00625805
-3.52216e-06
0.00626258
-4.53364e-06
0.00626813
-5.54957e-06
0.0062747
-6.57061e-06
0.0062823
-7.59749e-06
0.00629093
-8.631e-06
0.0063006
-9.67188e-06
0.00631132
-1.07208e-05
0.0063231
-1.17784e-05
0.00633594
-1.28451e-05
0.00634987
-1.39215e-05
0.00636487
-1.50076e-05
0.00638098
-1.6104e-05
0.00639819
-1.72105e-05
0.00641652
-1.83272e-05
0.00643597
-1.94539e-05
0.00645656
-2.05903e-05
0.0064783
-2.17361e-05
0.00650119
-2.28905e-05
0.00652524
-2.40527e-05
0.00655046
-2.5222e-05
0.00657686
-2.63971e-05
0.00660443
-2.75767e-05
0.00663319
-2.87593e-05
0.00666314
-2.99434e-05
0.00669426
-3.1127e-05
0.00672657
-3.23081e-05
0.00676006
-3.34846e-05
0.00679471
-3.46539e-05
0.00683052
-3.58136e-05
0.00686749
-3.6961e-05
0.00690558
-3.80932e-05
0.00694479
-3.92072e-05
0.00698509
-4.03001e-05
0.00702645
-4.13686e-05
0.00706886
-4.24096e-05
0.00711228
-4.34198e-05
0.00715668
-4.43959e-05
0.00720201
-4.53348e-05
0.00724825
-4.62333e-05
0.00729534
-4.70882e-05
0.00734323
-4.78967e-05
0.00739189
-4.86559e-05
0.00744125
-4.93631e-05
0.00749127
-5.00161e-05
0.00754188
-5.06124e-05
0.00759303
-5.11503e-05
0.00764466
-5.16281e-05
0.0076967
-5.20444e-05
0.0077491
-5.23983e-05
0.00780179
-5.26891e-05
0.00785471
-5.29163e-05
0.00790779
-5.308e-05
0.00796097
-5.31806e-05
0.00801419
-5.32186e-05
0.00806738
-5.31952e-05
0.00812049
-5.31117e-05
0.00817346
-5.29696e-05
0.00822623
-5.27708e-05
0.00827875
-5.25176e-05
0.00833096
-5.22123e-05
0.00838282
-5.18575e-05
0.00843428
-5.14561e-05
0.00848529
-5.10109e-05
0.00853581
-5.05252e-05
0.00858581
-5.0002e-05
0.00863526
-4.94447e-05
0.00868412
-4.88565e-05
0.00873236
-4.82407e-05
0.00877996
-4.76009e-05
0.0088269
-4.69401e-05
0.00887316
-4.62618e-05
0.00891873
-4.5569e-05
0.00896359
-4.4865e-05
0.00900775
-4.41526e-05
0.00905118
-4.34349e-05
0.0090939
-4.27146e-05
0.00913589
-4.19943e-05
0.00917717
-4.12764e-05
0.00921773
-4.05633e-05
0.00925759
-3.98571e-05
0.00929675
-3.91598e-05
0.00933522
-3.84732e-05
0.00937302
-3.77989e-05
0.00941016
-3.71383e-05
0.00944665
-3.64927e-05
0.00948251
-3.58633e-05
0.00951776
-3.52509e-05
0.00955242
-3.46562e-05
0.0095865
-3.40799e-05
0.00962002
-3.35224e-05
0.00965301
-3.29839e-05
0.00968547
-3.24645e-05
0.00971743
-3.19642e-05
0.00974892
-3.14828e-05
0.00977994
-3.10201e-05
0.00981051
-3.05756e-05
0.00984066
-3.01487e-05
0.0098704
-2.97389e-05
0.00989975
-2.93453e-05
0.00992871
-2.89672e-05
0.00995732
-2.86035e-05
0.00998557
-2.82534e-05
0.0100135
-2.79156e-05
0.0100411
-2.75892e-05
0.0100683
-2.7273e-05
0.0100953
-2.69656e-05
0.010122
-2.66659e-05
0.0101484
-2.63725e-05
0.0101744
-2.60843e-05
0.0102002
-2.57997e-05
0.0102258
-2.55176e-05
0.010251
-2.52366e-05
0.0102759
-2.49553e-05
0.0103006
-2.46725e-05
0.010325
-2.43868e-05
0.0103491
-2.40971e-05
0.0103729
-2.38021e-05
0.0103964
-2.35005e-05
0.0104196
-2.31912e-05
0.0104425
-2.28731e-05
0.010465
-2.25451e-05
0.0104872
-2.22063e-05
0.0105091
-2.18556e-05
0.0105306
-2.14921e-05
0.0105517
-2.11149e-05
0.0105724
-2.07234e-05
0.0105927
-2.03166e-05
0.0106126
-1.98941e-05
0.0106321
-1.94551e-05
0.0106511
-1.89992e-05
0.0106696
-1.85257e-05
0.0106876
-1.80344e-05
0.0107052
-1.75249e-05
0.0107222
-1.69968e-05
0.0107386
-1.645e-05
0.0107545
-1.58842e-05
0.0107698
-1.52993e-05
0.0107845
-1.46953e-05
0.0107986
-1.40721e-05
0.010812
-1.34298e-05
0.0108248
-1.27684e-05
0.0108368
-1.20882e-05
0.0108482
-1.13891e-05
0.0108589
-1.06715e-05
0.0108688
-9.93558e-06
0.010878
-9.1816e-06
0.0108864
-8.40988e-06
0.010894
-7.62074e-06
0.0109009
-6.81455e-06
0.0109069
-5.99168e-06
0.010912
-5.15254e-06
0.0109163
-4.29753e-06
0.0109197
-3.42711e-06
0.0109223
-2.54171e-06
0.0109239
-1.6418e-06
0.0109246
-7.27856e-07
0.0109244
1.99662e-07
0.0109233
1.14025e-06
0.0109212
2.0934e-06
0.0109182
3.05863e-06
0.0109141
4.03541e-06
0.0109091
5.02325e-06
0.0109031
6.02161e-06
0.010896
7.02997e-06
0.010888
8.0478e-06
0.0108789
9.07457e-06
0.0108688
1.01097e-05
0.0108577
1.11527e-05
0.0108455
1.2203e-05
0.0108322
1.326e-05
0.0108179
1.43231e-05
0.0108025
1.53918e-05
0.010786
1.64654e-05
0.0107685
1.75433e-05
0.0107498
1.86249e-05
0.0107301
1.97095e-05
0.0107093
2.07965e-05
0.0106875
2.1885e-05
0.0106645
2.29745e-05
0.0106404
2.40642e-05
0.0106153
2.51532e-05
0.010589
2.62408e-05
0.0105617
2.73262e-05
0.0105333
2.84085e-05
0.0105038
2.94867e-05
0.0104732
3.05601e-05
0.0104416
3.16275e-05
0.0104089
3.26882e-05
0.0103752
3.37409e-05
0.0103404
3.47847e-05
0.0103046
3.58186e-05
0.0102677
3.68414e-05
0.0102299
3.7852e-05
0.010191
3.88492e-05
0.0101512
3.98319e-05
0.0101104
4.0799e-05
0.0100687
4.17492e-05
0.010026
4.26813e-05
0.00998238
4.35941e-05
0.00993789
4.44865e-05
0.00989254
4.53572e-05
0.00984633
4.6205e-05
0.0097993
4.70288e-05
0.00975148
4.78274e-05
0.00970288
4.85997e-05
0.00965353
4.93445e-05
0.00960347
5.00609e-05
0.00955272
5.07478e-05
0.00950132
5.14043e-05
0.00944929
5.20294e-05
0.00939667
5.26223e-05
0.00934349
5.31822e-05
0.00928978
5.37084e-05
0.00923558
5.42003e-05
0.00918092
5.46573e-05
0.00912584
5.50789e-05
0.00907038
5.54647e-05
0.00901456
5.58144e-05
0.00895843
5.61279e-05
0.00890203
5.64049e-05
0.00884538
5.66455e-05
0.00878853
5.68498e-05
0.00873152
5.70178e-05
0.00867437
5.71498e-05
0.00861712
5.72462e-05
0.00855981
5.73074e-05
0.00850248
5.73338e-05
0.00844515
5.73262e-05
0.00838787
5.7285e-05
0.00833066
5.72112e-05
0.00827355
5.71054e-05
0.00821658
5.69686e-05
0.00815978
5.68016e-05
0.00810317
5.66055e-05
0.00804679
5.63812e-05
0.00799066
5.61297e-05
0.00793481
5.58523e-05
0.00787926
5.55499e-05
0.00782404
5.52238e-05
0.00776916
5.4875e-05
0.00771466
5.45045e-05
0.00766054
5.41139e-05
0.00760684
5.37036e-05
0.00755356
5.32758e-05
0.00750074
5.28295e-05
0.00744837
5.237e-05
0.00739648
5.18893e-05
0.00734507
5.14054e-05
0.00729418
5.08859e-05
0.0072438
5.03801e-05
0.00719397
4.98327e-05
4.92083e-05
0.0062505
-1.00434e-06
0.00625201
-3.01355e-06
0.00625452
-5.02527e-06
0.00625804
-7.04144e-06
0.00626257
-9.06406e-06
0.00626811
-1.10952e-05
0.00627468
-1.31365e-05
0.00628227
-1.51896e-05
0.0062909
-1.7256e-05
0.00630056
-1.93373e-05
0.00631128
-2.14348e-05
0.00632305
-2.35496e-05
0.00633589
-2.56828e-05
0.0063498
-2.78353e-05
0.0063648
-3.00076e-05
0.0063809
-3.22003e-05
0.0063981
-3.44136e-05
0.00641642
-3.66473e-05
0.00643587
-3.89012e-05
0.00645645
-4.11747e-05
0.00647818
-4.3467e-05
0.00650107
-4.57767e-05
0.00652512
-4.81024e-05
0.00655034
-5.04422e-05
0.00657674
-5.27938e-05
0.00660431
-5.51547e-05
0.00663308
-5.75219e-05
0.00666302
-5.98921e-05
0.00669416
-6.22615e-05
0.00672648
-6.46262e-05
0.00675997
-6.69816e-05
0.00679464
-6.9323e-05
0.00683047
-7.16452e-05
0.00686746
-7.3943e-05
0.00690557
-7.62105e-05
0.00694481
-7.84419e-05
0.00698514
-8.06309e-05
0.00702654
-8.27713e-05
0.00706899
-8.48567e-05
0.00711245
-8.68804e-05
0.00715689
-8.88361e-05
0.00720227
-9.07171e-05
0.00724856
-9.25173e-05
0.0072957
-9.42303e-05
0.00734365
-9.58501e-05
0.00739237
-9.73712e-05
0.00744179
-9.87883e-05
0.00749187
-0.000100096
0.00754255
-0.000101291
0.00759377
-0.000102369
0.00764547
-0.000103326
0.00769758
-0.000104159
0.00775005
-0.000104868
0.00780281
-0.00010545
0.0078558
-0.000105904
0.00790895
-0.000106231
0.0079622
-0.000106432
0.00801549
-0.000106507
0.00806875
-0.000106459
0.00812193
-0.00010629
0.00817497
-0.000106004
0.0082278
-0.000105604
0.00828038
-0.000105095
0.00833265
-0.000104482
0.00838456
-0.00010377
0.00843607
-0.000102964
0.00848713
-0.000102071
0.0085377
-0.000101096
0.00858774
-0.000100046
0.00863723
-9.8928e-05
0.00868612
-9.77482e-05
0.00873439
-9.65133e-05
0.00878202
-9.52301e-05
0.00882898
-9.39053e-05
0.00887527
-9.25453e-05
0.00892086
-9.11566e-05
0.00896574
-8.97454e-05
0.0090099
-8.83177e-05
0.00905335
-8.68794e-05
0.00909607
-8.5436e-05
0.00913807
-8.39928e-05
0.00917934
-8.25546e-05
0.00921991
-8.11261e-05
0.00925976
-7.97116e-05
0.00929892
-7.83151e-05
0.00933738
-7.69401e-05
0.00937517
-7.559e-05
0.0094123
-7.42675e-05
0.00944879
-7.29752e-05
0.00948464
-7.17153e-05
0.00951988
-7.04896e-05
0.00955452
-6.92996e-05
0.00958859
-6.81465e-05
0.0096221
-6.7031e-05
0.00965507
-6.59538e-05
0.00968752
-6.4915e-05
0.00971947
-6.39145e-05
0.00975094
-6.2952e-05
0.00978194
-6.20269e-05
0.00981251
-6.11383e-05
0.00984264
-6.02852e-05
0.00987237
-5.94662e-05
0.0099017
-5.86798e-05
0.00993066
-5.79243e-05
0.00995926
-5.7198e-05
0.0099875
-5.64987e-05
0.0100154
-5.58243e-05
0.010043
-5.51726e-05
0.0100703
-5.45412e-05
0.0100972
-5.39277e-05
0.0101239
-5.33295e-05
0.0101503
-5.27441e-05
0.0101763
-5.21688e-05
0.0102021
-5.1601e-05
0.0102277
-5.1038e-05
0.0102529
-5.04772e-05
0.0102779
-4.99159e-05
0.0103025
-4.93515e-05
0.0103269
-4.87815e-05
0.010351
-4.82032e-05
0.0103749
-4.76142e-05
0.0103984
-4.70122e-05
0.0104216
-4.63947e-05
0.0104445
-4.57595e-05
0.010467
-4.51046e-05
0.0104892
-4.44277e-05
0.0105111
-4.37271e-05
0.0105326
-4.30009e-05
0.0105538
-4.22474e-05
0.0105745
-4.14649e-05
0.0105948
-4.06521e-05
0.0106147
-3.98075e-05
0.0106342
-3.893e-05
0.0106532
-3.80185e-05
0.0106718
-3.7072e-05
0.0106898
-3.60896e-05
0.0107074
-3.50708e-05
0.0107244
-3.40148e-05
0.0107409
-3.29211e-05
0.0107568
-3.17896e-05
0.0107721
-3.06198e-05
0.0107868
-2.94117e-05
0.0108009
-2.81652e-05
0.0108144
-2.68804e-05
0.0108271
-2.55574e-05
0.0108393
-2.41966e-05
0.0108507
-2.27981e-05
0.0108614
-2.13625e-05
0.0108713
-1.98903e-05
0.0108805
-1.83819e-05
0.0108889
-1.6838e-05
0.0108966
-1.52592e-05
0.0109034
-1.36463e-05
0.0109094
-1.2e-05
0.0109146
-1.03211e-05
0.0109189
-8.61054e-06
0.0109223
-6.86908e-06
0.0109249
-5.09766e-06
0.0109266
-3.2972e-06
0.0109273
-1.46864e-06
0.0109271
3.87043e-07
0.010926
2.26888e-06
0.0109239
4.17587e-06
0.0109208
6.107e-06
0.0109168
8.06127e-06
0.0109118
1.00376e-05
0.0109058
1.20351e-05
0.0108988
1.40525e-05
0.0108907
1.60889e-05
0.0108817
1.81432e-05
0.0108716
2.02142e-05
0.0108604
2.2301e-05
0.0108482
2.44023e-05
0.010835
2.65171e-05
0.0108206
2.86442e-05
0.0108052
3.07823e-05
0.0107888
3.29303e-05
0.0107712
3.5087e-05
0.0107526
3.7251e-05
0.0107329
3.94211e-05
0.0107121
4.15959e-05
0.0106902
4.37739e-05
0.0106672
4.59539e-05
0.0106432
4.81341e-05
0.010618
5.03132e-05
0.0105917
5.24895e-05
0.0105644
5.46613e-05
0.010536
5.68269e-05
0.0105065
5.89846e-05
0.0104759
6.11324e-05
0.0104443
6.32686e-05
0.0104116
6.5391e-05
0.0103778
6.74977e-05
0.010343
6.95867e-05
0.0103072
7.16557e-05
0.0102703
7.37025e-05
0.0102325
7.5725e-05
0.0101936
7.77208e-05
0.0101537
7.96877e-05
0.0101129
8.16232e-05
0.0100711
8.35249e-05
0.0100284
8.53905e-05
0.00998479
8.72176e-05
0.00994027
8.90037e-05
0.00989488
9.07464e-05
0.00984865
9.24434e-05
0.00980158
9.40922e-05
0.00975372
9.56907e-05
0.00970508
9.72365e-05
0.0096557
9.87274e-05
0.0096056
0.000100161
0.00955481
0.000101536
0.00950336
0.00010285
0.00945129
0.000104101
0.00939863
0.000105288
0.0093454
0.000106409
0.00929165
0.000107462
0.0092374
0.000108446
0.0091827
0.000109361
0.00912757
0.000110204
0.00907206
0.000110976
0.0090162
0.000111676
0.00896002
0.000112303
0.00890357
0.000112857
0.00884688
0.000113339
0.00878998
0.000113747
0.00873292
0.000114083
0.00867572
0.000114346
0.00861843
0.000114539
0.00856107
0.000114661
0.00850369
0.000114713
0.00844632
0.000114697
0.00838899
0.000114614
0.00833174
0.000114465
0.00827459
0.000114253
0.00821758
0.000113978
0.00816074
0.000113643
0.0081041
0.00011325
0.00804768
0.0001128
0.00799151
0.000112296
0.00793562
0.00011174
0.00788004
0.000111134
0.00782478
0.000110481
0.00776987
0.000109782
0.00771534
0.00010904
0.00766119
0.000108257
0.00760746
0.000107436
0.00755416
0.000106578
0.0075013
0.000105686
0.00744891
0.000104763
0.00739699
0.000103809
0.00734557
0.000102823
0.00729463
0.000101829
0.00724427
0.000100743
0.00719424
9.98567e-05
9.82936e-05
0.0062505
-1.50546e-06
0.006252
-4.51715e-06
0.00625451
-7.5327e-06
0.00625803
-1.05552e-05
0.00626255
-1.35874e-05
0.00626809
-1.66324e-05
0.00627464
-1.96926e-05
0.00628222
-2.27707e-05
0.00629084
-2.5869e-05
0.00630049
-2.89897e-05
0.00631119
-3.21348e-05
0.00632295
-3.53062e-05
0.00633577
-3.85054e-05
0.00634967
-4.17337e-05
0.00636465
-4.49921e-05
0.00638073
-4.82813e-05
0.00639792
-5.16017e-05
0.00641623
-5.49531e-05
0.00643566
-5.83352e-05
0.00645623
-6.17471e-05
0.00647795
-6.51874e-05
0.00650083
-6.86544e-05
0.00652487
-7.21458e-05
0.00655009
-7.56587e-05
0.00657649
-7.91899e-05
0.00660407
-8.27354e-05
0.00663284
-8.62909e-05
0.0066628
-8.98512e-05
0.00669394
-9.34109e-05
0.00672628
-9.69638e-05
0.0067598
-0.000100503
0.0067945
-0.000104022
0.00683037
-0.000107513
0.0068674
-0.000110967
0.00690556
-0.000114376
0.00694485
-0.000117731
0.00698524
-0.000121023
0.00702671
-0.000124242
0.00706924
-0.000127379
0.00711278
-0.000130423
0.00715731
-0.000133365
0.00720278
-0.000136195
0.00724917
-0.000138903
0.00729642
-0.00014148
0.00734449
-0.000143917
0.00739332
-0.000146206
0.00744287
-0.000148338
0.00749308
-0.000150306
0.00754389
-0.000152103
0.00759525
-0.000153723
0.00764708
-0.000155162
0.00769934
-0.000156416
0.00775195
-0.00015748
0.00780486
-0.000158354
0.00785799
-0.000159036
0.00791128
-0.000159526
0.00796468
-0.000159825
0.0080181
-0.000159935
0.0080715
-0.00015986
0.00812482
-0.000159602
0.00817798
-0.000159168
0.00823094
-0.000158563
0.00828364
-0.000157794
0.00833602
-0.000156867
0.00838805
-0.000155792
0.00843966
-0.000154575
0.00849081
-0.000153227
0.00854148
-0.000151757
0.0085916
-0.000150174
0.00864116
-0.000148488
0.00869013
-0.00014671
0.00873846
-0.000144849
0.00878615
-0.000142916
0.00883316
-0.00014092
0.00887949
-0.000138872
0.00892511
-0.000136781
0.00897002
-0.000134656
0.00901421
-0.000132507
0.00905768
-0.000130343
0.00910041
-0.000128171
0.00914242
-0.000125999
0.0091837
-0.000123836
0.00922426
-0.000121688
0.00926411
-0.000119561
0.00930326
-0.000117461
0.00934171
-0.000115394
0.00937949
-0.000113365
0.0094166
-0.000111378
0.00945306
-0.000109437
0.00948889
-0.000107544
0.0095241
-0.000105704
0.00955872
-0.000103917
0.00959276
-0.000102186
0.00962624
-0.000100512
0.00965918
-9.88957e-05
0.0096916
-9.73373e-05
0.00972353
-9.58368e-05
0.00975497
-9.43937e-05
0.00978595
-9.30069e-05
0.00981648
-9.16752e-05
0.0098466
-9.03969e-05
0.0098763
-8.91701e-05
0.00990561
-8.79924e-05
0.00993455
-8.68614e-05
0.00996313
-8.57742e-05
0.00999136
-8.47278e-05
0.0100193
-8.37189e-05
0.0100468
-8.27442e-05
0.0100741
-8.18e-05
0.010101
-8.08828e-05
0.0101277
-7.99886e-05
0.0101541
-7.91136e-05
0.0101801
-7.82538e-05
0.010206
-7.74053e-05
0.0102315
-7.6564e-05
0.0102567
-7.5726e-05
0.0102817
-7.48872e-05
0.0103064
-7.40438e-05
0.0103308
-7.31917e-05
0.0103549
-7.23272e-05
0.0103788
-7.14467e-05
0.0104023
-7.05463e-05
0.0104255
-6.96227e-05
0.0104484
-6.86726e-05
0.010471
-6.76925e-05
0.0104933
-6.66796e-05
0.0105152
-6.56308e-05
0.0105367
-6.45434e-05
0.0105579
-6.34149e-05
0.0105787
-6.22429e-05
0.010599
-6.10251e-05
0.010619
-5.97596e-05
0.0106385
-5.84445e-05
0.0106576
-5.70782e-05
0.0106762
-5.56593e-05
0.0106942
-5.41865e-05
0.0107118
-5.26586e-05
0.0107289
-5.1075e-05
0.0107454
-4.94348e-05
0.0107614
-4.77374e-05
0.0107767
-4.59827e-05
0.0107915
-4.41703e-05
0.0108056
-4.23002e-05
0.0108191
-4.03725e-05
0.0108319
-3.83874e-05
0.0108441
-3.63454e-05
0.0108555
-3.42469e-05
0.0108663
-3.20926e-05
0.0108763
-2.98832e-05
0.0108855
-2.76195e-05
0.010894
-2.53024e-05
0.0109016
-2.2933e-05
0.0109085
-2.05123e-05
0.0109145
-1.80415e-05
0.0109197
-1.55218e-05
0.0109241
-1.29544e-05
0.0109276
-1.03407e-05
0.0109301
-7.682e-06
0.0109318
-4.97971e-06
0.0109326
-2.23524e-06
0.0109324
5.49935e-07
0.0109313
3.37436e-06
0.0109293
6.23654e-06
0.0109262
9.13497e-06
0.0109222
1.20681e-05
0.0109172
1.50344e-05
0.0109112
1.80323e-05
0.0109042
2.10603e-05
0.0108962
2.41167e-05
0.0108871
2.71999e-05
0.010877
3.03084e-05
0.0108659
3.34404e-05
0.0108537
3.65943e-05
0.0108405
3.97684e-05
0.0108261
4.2961e-05
0.0108108
4.61702e-05
0.0107943
4.93943e-05
0.0107768
5.26314e-05
0.0107581
5.58796e-05
0.0107384
5.91369e-05
0.0107176
6.24013e-05
0.0106957
6.56707e-05
0.0106727
6.8943e-05
0.0106486
7.22158e-05
0.0106235
7.54869e-05
0.0105972
7.87539e-05
0.0105698
8.20143e-05
0.0105414
8.52655e-05
0.0105119
8.85047e-05
0.0104813
9.17294e-05
0.0104496
9.49365e-05
0.0104169
9.81232e-05
0.0103831
0.000101286
0.0103483
0.000104423
0.0103124
0.00010753
0.0102755
0.000110603
0.0102376
0.00011364
0.0101987
0.000116637
0.0101588
0.000119591
0.0101179
0.000122498
0.010076
0.000125354
0.0100333
0.000128156
0.0099896
0.0001309
0.00994502
0.000133582
0.00989957
0.0001362
0.00985326
0.000138748
0.00980613
0.000141225
0.0097582
0.000143626
0.00970949
0.000145948
0.00966003
0.000148187
0.00960985
0.000150341
0.00955898
0.000152406
0.00950745
0.000154379
0.00945529
0.000156258
0.00940254
0.000158041
0.00934922
0.000159724
0.00929538
0.000161305
0.00924104
0.000162783
0.00918625
0.000164157
0.00913103
0.000165423
0.00907542
0.000166582
0.00901947
0.000167632
0.0089632
0.000168573
0.00890665
0.000169405
0.00884986
0.000170127
0.00879287
0.000170739
0.00873571
0.000171242
0.00867842
0.000171637
0.00862103
0.000171924
0.00856359
0.000172106
0.00850612
0.000172183
0.00844866
0.000172157
0.00839124
0.000172031
0.0083339
0.000171806
0.00827667
0.000171485
0.00821958
0.000171071
0.00816266
0.000170566
0.00810593
0.000169973
0.00804944
0.000169296
0.0079932
0.000168537
0.00793724
0.0001677
0.00788158
0.000166788
0.00782626
0.000165805
0.00777129
0.000164753
0.00771669
0.000163637
0.00766249
0.00016246
0.0076087
0.000161225
0.00755534
0.000159936
0.00750243
0.000158596
0.00744999
0.000157206
0.00739802
0.000155776
0.00734655
0.000154289
0.00729557
0.00015281
0.00724515
0.000151162
0.00719515
0.000149858
0.000147472
0.0062505
-2.00535e-06
0.006252
-6.01719e-06
0.0062545
-1.00342e-05
0.00625801
-1.40605e-05
0.00626252
-1.81002e-05
0.00626804
-2.21568e-05
0.00627459
-2.6234e-05
0.00628215
-3.03352e-05
0.00629074
-3.44636e-05
0.00630038
-3.86222e-05
0.00631106
-4.28137e-05
0.00632279
-4.70406e-05
0.00633559
-5.1305e-05
0.00634946
-5.56087e-05
0.00636443
-5.9953e-05
0.00638048
-6.4339e-05
0.00639765
-6.8767e-05
0.00641593
-7.32372e-05
0.00643535
-7.77488e-05
0.0064559
-8.23009e-05
0.0064776
-8.68917e-05
0.00650047
-9.15188e-05
0.0065245
-9.61792e-05
0.00654971
-0.000100869
0.00657611
-0.000105584
0.00660369
-0.00011032
0.00663247
-0.000115069
0.00666244
-0.000119825
0.00669361
-0.000124582
0.00672598
-0.000129331
0.00675954
-0.000134062
0.00679428
-0.000138767
0.00683021
-0.000143434
0.00686729
-0.000148054
0.00690553
-0.000152614
0.0069449
-0.000157103
0.00698539
-0.000161508
0.00702696
-0.000165815
0.00706959
-0.000170013
0.00711326
-0.000174088
0.00715792
-0.000178027
0.00720354
-0.000181815
0.00725008
-0.000185441
0.00729749
-0.000188892
0.00734573
-0.000192156
0.00739474
-0.00019522
0.00744448
-0.000198074
0.00749488
-0.000200709
0.0075459
-0.000203115
0.00759746
-0.000205283
0.0076495
-0.000207209
0.00770197
-0.000208885
0.0077548
-0.000210308
0.00780792
-0.000211475
0.00786127
-0.000212384
0.00791478
-0.000213036
0.00796838
-0.000213431
0.00802202
-0.000213573
0.00807563
-0.000213467
0.00812914
-0.000213116
0.0081825
-0.000212528
0.00823565
-0.000211711
0.00828853
-0.000210674
0.00834109
-0.000209426
0.00839328
-0.000207978
0.00844504
-0.000206342
0.00849635
-0.00020453
0.00854714
-0.000202554
0.0085974
-0.000200428
0.00864707
-0.000198165
0.00869614
-0.000195777
0.00874457
-0.00019328
0.00879234
-0.000190687
0.00883943
-0.00018801
0.00888582
-0.000185263
0.0089315
-0.00018246
0.00897646
-0.000179613
0.00902068
-0.000176733
0.00906417
-0.000173834
0.00910693
-0.000170925
0.00914895
-0.000168018
0.00919023
-0.000165122
0.00923079
-0.000162247
0.00927063
-0.000159401
0.00930976
-0.000156593
0.0093482
-0.000153829
0.00938595
-0.000151116
0.00942303
-0.00014846
0.00945946
-0.000145866
0.00949526
-0.000143338
0.00953043
-0.00014088
0.00956501
-0.000138495
0.00959901
-0.000136185
0.00963245
-0.000133951
0.00966535
-0.000131795
0.00969773
-0.000129717
0.00972961
-0.000127717
0.00976101
-0.000125794
0.00979195
-0.000123946
0.00982244
-0.000122173
0.00985252
-0.000120471
0.00988219
-0.000118839
0.00991147
-0.000117272
0.00994037
-0.000115768
0.00996892
-0.000114323
0.00999713
-0.000112932
0.010025
-0.000111592
0.0100526
-0.000110298
0.0100798
-0.000109044
0.0101067
-0.000107827
0.0101334
-0.000106641
0.0101598
-0.00010548
0.0101858
-0.000104339
0.0102117
-0.000103214
0.0102372
-0.000102098
0.0102625
-0.000100987
0.0102874
-9.98745e-05
0.0103121
-9.87557e-05
0.0103366
-9.76253e-05
0.0103607
-9.64782e-05
0.0103846
-9.53095e-05
0.0104082
-9.41142e-05
0.0104314
-9.28878e-05
0.0104544
-9.16256e-05
0.010477
-9.03234e-05
0.0104993
-8.8977e-05
0.0105213
-8.75826e-05
0.0105429
-8.61365e-05
0.0105641
-8.46352e-05
0.0105849
-8.30756e-05
0.0106053
-8.14547e-05
0.0106253
-7.97698e-05
0.0106449
-7.80185e-05
0.010664
-7.61986e-05
0.0106827
-7.43083e-05
0.0107009
-7.23457e-05
0.0107185
-7.03096e-05
0.0107356
-6.81987e-05
0.0107522
-6.60121e-05
0.0107682
-6.37491e-05
0.0107836
-6.14092e-05
0.0107985
-5.89922e-05
0.0108127
-5.6498e-05
0.0108262
-5.39268e-05
0.0108391
-5.1279e-05
0.0108513
-4.85549e-05
0.0108628
-4.57554e-05
0.0108736
-4.28812e-05
0.0108837
-3.99334e-05
0.010893
-3.69131e-05
0.0109015
-3.38215e-05
0.0109092
-3.06599e-05
0.0109161
-2.74298e-05
0.0109222
-2.41328e-05
0.0109275
-2.07705e-05
0.0109319
-1.73446e-05
0.0109354
-1.38568e-05
0.010938
-1.03089e-05
0.0109397
-6.70288e-06
0.0109405
-3.04055e-06
0.0109404
6.76102e-07
0.0109393
4.44513e-06
0.0109373
8.26454e-06
0.0109343
1.21323e-05
0.0109303
1.60464e-05
0.0109254
2.00048e-05
0.0109194
2.40053e-05
0.0109124
2.80459e-05
0.0109044
3.21245e-05
0.0108953
3.62389e-05
0.0108853
4.0387e-05
0.0108741
4.45665e-05
0.010862
4.87753e-05
0.0108487
5.3011e-05
0.0108344
5.72714e-05
0.010819
6.15541e-05
0.0108026
6.58567e-05
0.010785
7.01767e-05
0.0107664
7.45117e-05
0.0107467
7.88588e-05
0.0107258
8.32156e-05
0.0107039
8.75791e-05
0.0106809
9.19466e-05
0.0106568
9.63149e-05
0.0106316
0.000100681
0.0106054
0.000105042
0.010578
0.000109394
0.0105495
0.000113734
0.01052
0.000118058
0.0104893
0.000122363
0.0104576
0.000126645
0.0104248
0.000130899
0.010391
0.000135123
0.0103561
0.000139311
0.0103202
0.000143459
0.0102832
0.000147563
0.0102452
0.000151619
0.0102063
0.000155621
0.0101663
0.000159566
0.0101253
0.000163448
0.0100834
0.000167262
0.0100406
0.000171004
0.00999681
0.000174669
0.00995214
0.000178252
0.00990659
0.000181749
0.00986018
0.000185153
0.00981295
0.000188461
0.0097649
0.000191669
0.00971608
0.00019477
0.00966651
0.000197761
0.00961621
0.000200638
0.00956522
0.000203397
0.00951356
0.000206033
0.00946128
0.000208543
0.0094084
0.000210924
0.00935495
0.000213171
0.00930097
0.000215284
0.0092465
0.000217257
0.00919156
0.000219091
0.0091362
0.000220782
0.00908046
0.000222329
0.00902436
0.000223731
0.00896795
0.000224986
0.00891126
0.000226095
0.00885432
0.000227057
0.00879719
0.000227873
0.00873989
0.000228543
0.00868246
0.000229068
0.00862493
0.000229449
0.00856735
0.000229689
0.00850975
0.000229789
0.00845215
0.000229751
0.0083946
0.000229579
0.00833713
0.000229276
0.00827977
0.000228843
0.00822256
0.000228287
0.00816552
0.000227609
0.00810868
0.000226813
0.00805207
0.000225905
0.00799572
0.000224888
0.00793965
0.000223766
0.00788389
0.000222545
0.00782847
0.000221228
0.0077734
0.000219821
0.00771871
0.000218327
0.00766442
0.000216752
0.00761054
0.0002151
0.00755711
0.000213375
0.00750412
0.000211583
0.0074516
0.000209724
0.00739956
0.000207814
0.00734803
0.000205825
0.00729698
0.000203853
0.0072465
0.000201644
0.00719645
0.000199913
0.000196713
0.0062505
-2.50365e-06
0.00625199
-7.51239e-06
0.00625449
-1.25276e-05
0.00625798
-1.75547e-05
0.00626248
-2.25986e-05
0.00626799
-2.76641e-05
0.00627451
-3.27555e-05
0.00628205
-3.78773e-05
0.00629062
-4.30335e-05
0.00630023
-4.82279e-05
0.00631088
-5.3464e-05
0.00632258
-5.87449e-05
0.00633535
-6.40735e-05
0.00634919
-6.94519e-05
0.00636412
-7.48819e-05
0.00638015
-8.03648e-05
0.00639728
-8.59013e-05
0.00641554
-9.14914e-05
0.00643492
-9.71345e-05
0.00645545
-0.000102829
0.00647713
-0.000108574
0.00649998
-0.000114365
0.006524
-0.000120198
0.0065492
-0.000126071
0.00657559
-0.000131976
0.00660318
-0.000137907
0.00663197
-0.000143858
0.00666196
-0.000149819
0.00669316
-0.000155781
0.00672556
-0.000161735
0.00675917
-0.000167669
0.00679397
-0.00017357
0.00682997
-0.000179426
0.00686714
-0.000185224
0.00690547
-0.000190948
0.00694495
-0.000196583
0.00698556
-0.000202114
0.00702727
-0.000207525
0.00707005
-0.000212798
0.00711388
-0.000217917
0.00715872
-0.000222866
0.00720453
-0.000227627
0.00725127
-0.000232184
0.0072989
-0.000236521
0.00734737
-0.000240623
0.00739662
-0.000244474
0.00744661
-0.000248061
0.00749727
-0.000251372
0.00754855
-0.000254394
0.00760039
-0.000257119
0.00765272
-0.000259536
0.00770547
-0.000261639
0.00775859
-0.000263424
0.007812
-0.000264885
0.00786563
-0.000266022
0.00791943
-0.000266834
0.00797332
-0.000267323
0.00802724
-0.000267494
0.00808113
-0.00026735
0.00813491
-0.000266899
0.00818853
-0.00026615
0.00824193
-0.000265112
0.00829506
-0.000263796
0.00834785
-0.000262216
0.00840025
-0.000260385
0.00845223
-0.000258317
0.00850373
-0.000256028
0.0085547
-0.000253533
0.00860513
-0.00025085
0.00865496
-0.000247995
0.00870416
-0.000244985
0.00875272
-0.000241838
0.00880061
-0.00023857
0.00884779
-0.000235198
0.00889427
-0.00023174
0.00894002
-0.000228212
0.00898504
-0.000224629
0.00902931
-0.000221007
0.00907284
-0.000217361
0.00911562
-0.000213704
0.00915765
-0.000210051
0.00919894
-0.000206413
0.0092395
-0.000202802
0.00927932
-0.000199229
0.00931844
-0.000195704
0.00935684
-0.000192237
0.00939456
-0.000188834
0.0094316
-0.000185504
0.00946799
-0.000182252
0.00950374
-0.000179085
0.00953886
-0.000176006
0.00957339
-0.000173019
0.00960733
-0.000170128
0.00964071
-0.000167333
0.00967355
-0.000164636
0.00970588
-0.000162039
0.0097377
-0.000159539
0.00976904
-0.000157137
0.00979993
-0.00015483
0.00983037
-0.000152617
0.00986039
-0.000150495
0.00989001
-0.000148459
0.00991925
-0.000146507
0.00994811
-0.000144634
0.00997663
-0.000142834
0.0100048
-0.000141104
0.0100326
-0.000139437
0.0100602
-0.000137827
0.0100874
-0.000136269
0.0101143
-0.000134757
0.010141
-0.000133283
0.0101673
-0.000131842
0.0101934
-0.000130426
0.0102192
-0.000129029
0.0102448
-0.000127644
0.0102701
-0.000126264
0.0102951
-0.000124883
0.0103198
-0.000123494
0.0103443
-0.00012209
0.0103685
-0.000120665
0.0103924
-0.000119213
0.010416
-0.000117727
0.0104393
-0.000116202
0.0104623
-0.000114632
0.010485
-0.000113011
0.0105073
-0.000111335
0.0105294
-0.000109599
0.010551
-0.000107797
0.0105723
-0.000105926
0.0105932
-0.000103981
0.0106137
-0.00010196
0.0106338
-9.98575e-05
0.0106535
-9.76719e-05
0.0106727
-9.54e-05
0.0106914
-9.30396e-05
0.0107096
-9.05884e-05
0.0107274
-8.80447e-05
0.0107446
-8.54071e-05
0.0107612
-8.26745e-05
0.0107773
-7.98458e-05
0.0107928
-7.69207e-05
0.0108077
-7.38987e-05
0.010822
-7.07799e-05
0.0108357
-6.75644e-05
0.0108486
-6.42527e-05
0.0108609
-6.08454e-05
0.0108725
-5.73435e-05
0.0108834
-5.3748e-05
0.0108935
-5.00602e-05
0.0109029
-4.62814e-05
0.0109115
-4.24133e-05
0.0109193
-3.84575e-05
0.0109263
-3.44159e-05
0.0109324
-3.02905e-05
0.0109377
-2.60833e-05
0.0109422
-2.17964e-05
0.0109458
-1.74321e-05
0.0109484
-1.29926e-05
0.0109502
-8.48027e-06
0.0109511
-3.89747e-06
0.010951
7.53304e-07
0.01095
5.46961e-06
0.010948
1.0249e-05
0.010945
1.50888e-05
0.0109411
1.99866e-05
0.0109362
2.49398e-05
0.0109302
2.99458e-05
0.0109233
3.50019e-05
0.0109153
4.01056e-05
0.0109063
4.52541e-05
0.0108962
5.04447e-05
0.0108851
5.56747e-05
0.0108729
6.09414e-05
0.0108597
6.62418e-05
0.0108454
7.15732e-05
0.01083
7.69326e-05
0.0108136
8.2317e-05
0.010796
8.77233e-05
0.0107774
9.31483e-05
0.0107576
9.85888e-05
0.0107368
0.000104042
0.0107149
0.000109503
0.0106919
0.000114969
0.0106678
0.000120437
0.0106425
0.000125902
0.0106162
0.000131361
0.0105888
0.000136809
0.0105603
0.000142242
0.0105307
0.000147656
0.0105
0.000153046
0.0104682
0.000158407
0.0104354
0.000163734
0.0104015
0.000169022
0.0103666
0.000174267
0.0103306
0.000179462
0.0102935
0.000184602
0.0102555
0.000189681
0.0102164
0.000194694
0.0101763
0.000199635
0.0101353
0.000204498
0.0100932
0.000209276
0.0100503
0.000213964
0.0100064
0.000218556
0.00996161
0.000223045
0.00991593
0.000227426
0.00986939
0.000231691
0.00982202
0.000235836
0.00977383
0.000239855
0.00972486
0.000243741
0.00967513
0.000247489
0.00962468
0.000251094
0.00957352
0.00025455
0.0095217
0.000257853
0.00946925
0.000260998
0.00941619
0.00026398
0.00936257
0.000266796
0.00930841
0.000269442
0.00925375
0.000271914
0.00919863
0.00027421
0.00914309
0.000276328
0.00908715
0.000278264
0.00903086
0.000280018
0.00897426
0.000281589
0.00891738
0.000282976
0.00886026
0.000284178
0.00880294
0.000285197
0.00874545
0.000286032
0.00868783
0.000286686
0.00863012
0.00028716
0.00857235
0.000287456
0.00851456
0.000287576
0.00845679
0.000287524
0.00839907
0.000287303
0.00834142
0.000286917
0.0082839
0.000286371
0.00822652
0.000285667
0.00816931
0.000284812
0.00811232
0.00028381
0.00805556
0.000282666
0.00799906
0.000281386
0.00794285