/*--------------------------------*- C++ -*----------------------------------*\
| =========                 |                                                 |
| \\      /  F ield         | OpenFOAM: The Open Source CFD Toolbox           |
|  \\    /   O peration     | Version:  2306                                  |
|   \\  /    A nd           | Website:  www.openfoam.com                      |
|    \\/     M anipulation  |                                                 |
\*---------------------------------------------------------------------------*/
FoamFile
{
    version     2.0;
    format      ascii;
    arch        "LSB;label=32;scalar=64";
    class       volScalarField;
    location    "12";
    object      T;
}
// * * * * * * * * * * * * * * * * * * * * * * * * * * * * * * * * * * * * * //

dimensions      [0 0 0 1 0 0 0];

internalField   nonuniform List<scalar> 
32768
(
300
300
300
300
300
300
300
300
300
300
300
300
300
300
300
300
300
300
300
300
300
300
300
300
300
300
300
300
300
300
300
300
300
300
300
300
300
300
300
300
300
300
300
300
300
300
300
300
300
300
300
300
300
300
300
300
300
300
300
300
300
300
300
300
300
300
300
300
300
300
300
300
300
300
300
300
300
300
300
300
300
300
300
300
300
300
300
299.999
299.999
299.999
299.999
299.999
299.999
299.999
299.999
299.999
299.998
299.998
299.998
299.998
299.997
299.997
299.997
299.996
299.996
299.995
299.995
299.994
299.994
299.993
299.993
299.992
299.991
299.99
299.989
299.988
299.987
299.986
299.985
299.983
299.982
299.98
299.978
299.976
299.975
299.972
299.97
299.968
299.965
299.962
299.959
299.956
299.953
299.95
299.946
299.942
299.938
299.933
299.929
299.924
299.918
299.913
299.907
299.901
299.894
299.888
299.881
299.873
299.865
299.857
299.848
299.839
299.83
299.82
299.81
299.799
299.788
299.777
299.765
299.752
299.739
299.726
299.712
299.697
299.682
299.666
299.65
299.634
299.617
299.599
299.581
299.562
299.542
299.523
299.502
299.481
299.459
299.437
299.415
299.391
299.367
299.343
299.318
299.292
299.266
299.24
299.212
299.185
299.156
299.127
299.098
299.068
299.038
299.007
298.975
298.943
298.911
298.878
298.845
298.811
298.777
298.742
298.707
298.671
298.636
298.599
298.563
298.526
298.488
298.45
298.412
298.374
298.335
298.296
298.257
298.218
298.178
298.138
298.098
298.057
298.016
297.976
297.935
297.893
297.852
297.811
297.769
297.727
297.685
297.644
297.601
297.559
297.517
297.474
297.43
297.384
297.334
297.272
297.185
297.038
296.754
296.159
294.859
291.972
285.537
271.22
239.5
169.586
16.352
-317.585
-1041.18
-2600.22
-5940.76
-13058.7
-28147.1
-59945.3
300
300
300
300
300
300
300
300
300
300
300
300
300
300
300
300
300
300
300
300
300
300
300
300
300
300
300
300
300
300
300
300
300
300
300
300
300
300
300
300
300
300
300
300
300
300
300
300
300
300
300
300
300
300
300
300
300
300
300
300
300
300
300
300
300
300
300
300
300
300
300
300
300
300
300
300
300
300
300
300
300
300
300
300
300
300
299.999
299.999
299.999
299.999
299.999
299.999
299.999
299.999
299.999
299.998
299.998
299.998
299.998
299.997
299.997
299.997
299.996
299.996
299.996
299.995
299.994
299.994
299.993
299.993
299.992
299.991
299.99
299.989
299.988
299.987
299.986
299.985
299.983
299.982
299.98
299.978
299.977
299.975
299.972
299.97
299.968
299.965
299.962
299.959
299.956
299.953
299.95
299.946
299.942
299.938
299.933
299.928
299.923
299.918
299.913
299.907
299.901
299.894
299.887
299.88
299.873
299.865
299.857
299.848
299.839
299.829
299.82
299.809
299.799
299.787
299.776
299.764
299.751
299.738
299.725
299.711
299.696
299.681
299.665
299.649
299.633
299.615
299.598
299.579
299.561
299.541
299.521
299.501
299.48
299.458
299.436
299.413
299.39
299.366
299.342
299.317
299.291
299.265
299.239
299.212
299.184
299.156
299.127
299.098
299.068
299.038
299.007
298.976
298.944
298.912
298.879
298.846
298.812
298.778
298.744
298.709
298.673
298.638
298.602
298.565
298.529
298.491
298.454
298.416
298.378
298.34
298.301
298.262
298.223
298.184
298.144
298.104
298.064
298.024
297.983
297.942
297.902
297.861
297.819
297.778
297.737
297.695
297.654
297.612
297.57
297.528
297.486
297.444
297.4
297.355
297.304
297.243
297.156
297.009
296.726
296.132
294.833
291.948
285.516
271.206
239.499
169.607
16.4103
-317.468
-1040.98
-2599.95
-5940.58
-13059.1
-28149.9
-59954.8
300
300
300
300
300
300
300
300
300
300
300
300
300
300
300
300
300
300
300
300
300
300
300
300
300
300
300
300
300
300
300
300
300
300
300
300
300
300
300
300
300
300
300
300
300
300
300
300
300
300
300
300
300
300
300
300
300
300
300
300
300
300
300
300
300
300
300
300
300
300
300
300
300
300
300
300
300
300
300
300
300
300
300
300
300
299.999
299.999
299.999
299.999
299.999
299.999
299.999
299.999
299.998
299.998
299.998
299.998
299.997
299.997
299.997
299.997
299.996
299.996
299.995
299.995
299.994
299.993
299.993
299.992
299.991
299.99
299.989
299.988
299.987
299.986
299.985
299.984
299.982
299.98
299.979
299.977
299.975
299.973
299.971
299.968
299.966
299.963
299.96
299.957
299.953
299.95
299.946
299.942
299.938
299.934
299.929
299.924
299.919
299.913
299.907
299.901
299.894
299.888
299.88
299.873
299.865
299.857
299.848
299.839
299.829
299.819
299.809
299.798
299.787
299.775
299.763
299.751
299.737
299.724
299.71
299.695
299.68
299.664
299.648
299.631
299.614
299.596
299.578
299.559
299.54
299.52
299.499
299.478
299.457
299.435
299.412
299.389
299.365
299.34
299.316
299.29
299.264
299.238
299.211
299.183
299.155
299.126
299.097
299.068
299.038
299.007
298.976
298.945
298.913
298.88
298.847
298.814
298.78
298.746
298.712
298.677
298.642
298.606
298.57
298.534
298.497
298.46
298.423
298.385
298.348
298.309
298.271
298.232
298.194
298.155
298.115
298.076
298.036
297.996
297.956
297.916
297.876
297.835
297.795
297.754
297.713
297.672
297.631
297.59
297.549
297.508
297.466
297.425
297.383
297.34
297.295
297.245
297.184
297.098
296.952
296.67
296.077
294.781
291.9
285.477
271.182
239.501
169.658
16.5447
-317.201
-1040.53
-2599.33
-5940.03
-13059.7
-28154.8
-59973.3
300
300
300
300
300
300
300
300
300
300
300
300
300
300
300
300
300
300
300
300
300
300
300
300
300
300
300
300
300
300
300
300
300
300
300
300
300
300
300
300
300
300
300
300
300
300
300
300
300
300
300
300
300
300
300
300
300
300
300
300
300
300
300
300
300
300
300
300
300
300
300
300
300
300
300
300
300
300
300
300
300
300
300
299.999
299.999
299.999
299.999
299.999
299.999
299.999
299.999
299.998
299.998
299.998
299.998
299.997
299.997
299.997
299.996
299.996
299.996
299.995
299.995
299.994
299.993
299.993
299.992
299.991
299.99
299.989
299.988
299.987
299.986
299.984
299.983
299.981
299.98
299.978
299.976
299.974
299.972
299.969
299.967
299.964
299.961
299.958
299.955
299.952
299.948
299.944
299.94
299.935
299.931
299.926
299.92
299.915
299.909
299.903
299.896
299.89
299.882
299.875
299.867
299.859
299.85
299.841
299.831
299.821
299.811
299.8
299.789
299.777
299.765
299.752
299.739
299.726
299.711
299.697
299.681
299.666
299.649
299.633
299.615
299.598
299.579
299.56
299.541
299.521
299.5
299.479
299.457
299.435
299.412
299.389
299.365
299.341
299.316
299.29
299.264
299.238
299.211
299.183
299.155
299.127
299.098
299.068
299.038
299.008
298.977
298.946
298.914
298.882
298.849
298.817
298.783
298.749
298.715
298.681
298.646
298.611
298.575
298.54
298.504
298.467
298.431
298.394
298.356
298.319
298.281
298.243
298.205
298.167
298.129
298.09
298.051
298.012
297.973
297.933
297.894
297.854
297.815
297.775
297.735
297.695
297.655
297.615
297.575
297.534
297.494
297.453
297.413
297.372
297.332
297.291
297.249
297.205
297.156
297.096
297.011
296.866
296.586
295.996
294.703
291.829
285.418
271.145
239.507
169.739
16.7538
-316.787
-1039.83
-2598.34
-5939.13
-13060.5
-28162.2
-60000.7
300
300
300
300
300
300
300
300
300
300
300
300
300
300
300
300
300
300
300
300
300
300
300
300
300
300
300
300
300
300
300
300
300
300
300
300
300
300
300
300
300
300
300
300
300
300
300
300
300
300
300
300
300
300
300
300
300
300
300
300
300
300
300
300
300
300
300
300
300
300
300
300
300
300
300
300
300
300
300
300
300
299.999
299.999
299.999
299.999
299.999
299.999
299.999
299.999
299.998
299.998
299.998
299.998
299.997
299.997
299.997
299.996
299.996
299.995
299.995
299.994
299.994
299.993
299.992
299.991
299.991
299.99
299.988
299.987
299.986
299.985
299.983
299.982
299.98
299.978
299.976
299.974
299.972
299.97
299.967
299.964
299.962
299.958
299.955
299.952
299.948
299.944
299.94
299.935
299.93
299.925
299.92
299.914
299.908
299.902
299.895
299.888
299.881
299.873
299.865
299.856
299.847
299.838
299.828
299.818
299.807
299.796
299.784
299.772
299.759
299.746
299.733
299.718
299.704
299.688
299.673
299.656
299.64
299.622
299.604
299.586
299.567
299.547
299.527
299.506
299.485
299.463
299.441
299.418
299.394
299.37
299.346
299.321
299.295
299.269
299.242
299.215
299.188
299.16
299.131
299.102
299.072
299.042
299.012
298.981
298.95
298.918
298.886
298.853
298.821
298.787
298.754
298.72
298.686
298.651
298.616
298.581
298.546
298.51
298.474
298.438
298.401
298.365
298.328
298.291
298.253
298.216
298.178
298.141
298.103
298.065
298.026
297.988
297.95
297.911
297.873
297.834
297.795
297.756
297.717
297.678
297.639
297.6
297.561
297.522
297.483
297.443
297.404
297.365
297.325
297.286
297.247
297.207
297.167
297.126
297.084
297.036
296.978
296.894
296.751
296.473
295.886
294.598
291.733
285.339
271.097
239.514
169.847
17.0336
-316.233
-1038.89
-2597.03
-5937.94
-13061.5
-28171.9
-60037.4
300
300
300
300
300
300
300
300
300
300
300
300
300
300
300
300
300
300
300
300
300
300
300
300
300
300
300
300
300
300
300
300
300
300
300
300
300
300
300
300
300
300
300
300
300
300
300
300
300
300
300
300
300
300
300
300
300
300
300
300
300
300
300
300
300
300
300
300
300
300
300
300
300
300
300
300
300
300
300
299.999
299.999
299.999
299.999
299.999
299.999
299.999
299.999
299.998
299.998
299.998
299.998
299.997
299.997
299.996
299.996
299.996
299.995
299.994
299.994
299.993
299.992
299.992
299.991
299.99
299.989
299.988
299.986
299.985
299.983
299.982
299.98
299.978
299.976
299.974
299.972
299.97
299.967
299.964
299.961
299.958
299.954
299.951
299.947
299.943
299.938
299.934
299.929
299.923
299.918
299.912
299.905
299.899
299.892
299.884
299.877
299.868
299.86
299.851
299.841
299.831
299.821
299.81
299.799
299.787
299.775
299.762
299.748
299.734
299.72
299.705
299.689
299.673
299.656
299.639
299.621
299.603
299.583
299.564
299.544
299.523
299.501
299.479
299.457
299.434
299.41
299.386
299.361
299.336
299.31
299.284
299.257
299.229
299.201
299.173
299.144
299.114
299.084
299.054
299.023
298.992
298.96
298.928
298.896
298.863
298.83
298.796
298.763
298.728
298.694
298.659
298.624
298.589
298.553
298.517
298.481
298.445
298.409
298.372
298.336
298.299
298.262
298.224
298.187
298.15
298.112
298.075
298.037
297.999
297.961
297.924
297.886
297.848
297.81
297.772
297.734
297.696
297.658
297.62
297.582
297.544
297.506
297.468
297.43
297.392
297.354
297.316
297.278
297.24
297.202
297.164
297.126
297.088
297.05
297.012
296.972
296.931
296.886
296.829
296.747
296.606
296.331
295.748
294.466
291.612
285.239
271.035
239.522
169.979
17.3797
-315.547
-1037.74
-2595.41
-5936.49
-13062.8
-28184.2
-60083.3
300
300
300
300
300
300
300
300
300
300
300
300
300
300
300
300
300
300
300
300
300
300
300
300
300
300
300
300
300
300
300
300
300
300
300
300
300
300
300
300
300
300
300
300
300
300
300
300
300
300
300
300
300
300
300
300
300
300
300
300
300
300
300
300
300
300
300
300
300
300
300
300
300
300
300
300
300
299.999
299.999
299.999
299.999
299.999
299.999
299.999
299.998
299.998
299.998
299.998
299.997
299.997
299.997
299.996
299.996
299.995
299.995
299.994
299.993
299.993
299.992
299.991
299.99
299.989
299.988
299.986
299.985
299.983
299.982
299.98
299.978
299.976
299.974
299.972
299.969
299.966
299.963
299.96
299.957
299.953
299.949
299.945
299.941
299.936
299.931
299.926
299.92
299.914
299.908
299.902
299.894
299.887
299.879
299.871
299.862
299.853
299.843
299.833
299.822
299.811
299.8
299.787
299.775
299.761
299.747
299.733
299.718
299.702
299.686
299.669
299.652
299.634
299.615
299.596
299.576
299.555
299.534
299.512
299.489
299.466
299.443
299.418
299.393
299.368
299.342
299.315
299.288
299.26
299.231
299.202
299.173
299.143
299.112
299.081
299.05
299.018
298.985
298.953
298.919
298.886
298.852
298.817
298.783
298.748
298.712
298.677
298.641
298.605
298.568
298.532
298.495
298.458
298.421
298.384
298.346
298.309
298.271
298.234
298.196
298.158
298.12
298.082
298.044
298.007
297.969
297.931
297.893
297.855
297.817
297.779
297.742
297.704
297.667
297.629
297.592
297.554
297.517
297.48
297.443
297.406
297.369
297.332
297.295
297.259
297.222
297.185
297.149
297.113
297.076
297.04
297.004
296.968
296.932
296.896
296.86
296.823
296.786
296.747
296.703
296.649
296.569
296.431
296.159
295.581
294.307
291.467
285.117
270.958
239.528
170.134
17.7871
-314.738
-1036.37
-2593.51
-5934.83
-13064.6
-28199.2
-60138.6
300
300
300
300
300
300
300
300
300
300
300
300
300
300
300
300
300
300
300
300
300
300
300
300
300
300
300
300
300
300
300
300
300
300
300
300
300
300
300
300
300
300
300
300
300
300
300
300
300
300
300
300
300
300
300
300
300
300
300
300
300
300
300
300
300
300
300
300
300
300
300
300
300
300
300
299.999
299.999
299.999
299.999
299.999
299.999
299.999
299.998
299.998
299.998
299.998
299.997
299.997
299.996
299.996
299.995
299.995
299.994
299.994
299.993
299.992
299.991
299.99
299.989
299.988
299.986
299.985
299.983
299.982
299.98
299.978
299.976
299.974
299.971
299.969
299.966
299.963
299.959
299.956
299.952
299.948
299.944
299.939
299.934
299.929
299.923
299.917
299.911
299.904
299.897
299.89
299.882
299.873
299.864
299.855
299.845
299.835
299.824
299.812
299.8
299.787
299.774
299.76
299.746
299.731
299.715
299.699
299.682
299.664
299.645
299.626
299.607
299.586
299.565
299.543
299.521
299.497
299.473
299.449
299.423
299.397
299.371
299.343
299.315
299.287
299.257
299.227
299.197
299.166
299.134
299.102
299.069
299.036
299.002
298.968
298.933
298.898
298.862
298.826
298.79
298.753
298.716
298.679
298.641
298.603
298.565
298.526
298.488
298.449
298.41
298.371
298.332
298.293
298.253
298.214
298.175
298.135
298.096
298.056
298.017
297.978
297.939
297.9
297.861
297.822
297.783
297.744
297.706
297.668
297.63
297.592
297.554
297.516
297.479
297.442
297.405
297.368
297.331
297.295
297.259
297.223
297.187
297.151
297.116
297.081
297.045
297.011
296.976
296.941
296.907
296.872
296.838
296.804
296.77
296.736
296.703
296.669
296.635
296.601
296.566
296.529
296.488
296.436
296.36
296.225
295.957
295.384
294.119
291.294
284.973
270.866
239.532
170.307
18.2499
-313.817
-1034.82
-2591.36
-5933.01
-13066.8
-28217.1
-60203.7
300
300
300
300
300
300
300
300
300
300
300
300
300
300
300
300
300
300
300
300
300
300
300
300
300
300
300
300
300
300
300
300
300
300
300
300
300
300
300
300
300
300
300
300
300
300
300
300
300
300
300
300
300
300
300
300
300
300
300
300
300
300
300
300
300
300
300
300
300
300
300
300
300
299.999
299.999
299.999
299.999
299.999
299.999
299.999
299.998
299.998
299.998
299.997
299.997
299.997
299.996
299.996
299.995
299.994
299.994
299.993
299.992
299.991
299.99
299.989
299.988
299.987
299.985
299.984
299.982
299.98
299.978
299.976
299.973
299.971
299.968
299.965
299.962
299.958
299.955
299.951
299.946
299.942
299.937
299.932
299.926
299.92
299.914
299.907
299.9
299.892
299.884
299.876
299.867
299.857
299.847
299.836
299.825
299.813
299.801
299.788
299.774
299.76
299.744
299.729
299.712
299.695
299.677
299.658
299.639
299.619
299.598
299.576
299.553
299.53
299.506
299.481
299.455
299.429
299.402
299.374
299.345
299.315
299.285
299.254
299.222
299.19
299.157
299.123
299.089
299.054
299.018
298.982
298.945
298.908
298.87
298.831
298.793
298.753
298.714
298.674
298.633
298.593
298.552
298.51
298.469
298.427
298.385
298.343
298.301
298.259
298.217
298.175
298.132
298.09
298.048
298.006
297.964
297.922
297.88
297.838
297.797
297.755
297.714
297.674
297.633
297.593
297.553
297.513
297.474
297.434
297.396
297.357
297.319
297.281
297.244
297.207
297.17
297.134
297.097
297.062
297.026
296.991
296.957
296.922
296.888
296.854
296.821
296.787
296.754
296.722
296.689
296.657
296.625
296.593
296.562
296.53
296.499
296.468
296.437
296.406
296.375
296.344
296.312
296.278
296.24
296.191
296.117
295.986
295.723
295.157
293.902
291.095
284.806
270.757
239.529
170.494
18.7613
-312.795
-1033.1
-2589.01
-5931.12
-13069.7
-28237.9
-60278.8
300
300
300
300
300
300
300
300
300
300
300
300
300
300
300
300
300
300
300
300
300
300
300
300
300
300
300
300
300
300
300
300
300
300
300
300
300
300
300
300
300
300
300
300
300
300
300
300
300
300
300
300
300
300
300
300
300
300
300
300
300
300
300
300
300
300
300
300
300
300
300
299.999
299.999
299.999
299.999
299.999
299.999
299.998
299.998
299.998
299.998
299.997
299.997
299.996
299.996
299.995
299.995
299.994
299.993
299.992
299.992
299.991
299.989
299.988
299.987
299.985
299.984
299.982
299.98
299.978
299.976
299.973
299.971
299.968
299.965
299.961
299.958
299.954
299.95
299.945
299.94
299.935
299.93
299.924
299.917
299.911
299.903
299.896
299.888
299.879
299.87
299.86
299.85
299.839
299.827
299.815
299.802
299.789
299.775
299.76
299.744
299.728
299.711
299.692
299.674
299.654
299.633
299.612
299.59
299.567
299.543
299.518
299.492
299.465
299.438
299.409
299.38
299.35
299.319
299.287
299.254
299.22
299.185
299.15
299.114
299.077
299.039
299.001
298.962
298.922
298.882
298.84
298.799
298.757
298.714
298.671
298.627
298.583
298.538
298.493
298.448
298.403
298.357
298.311
298.265
298.219
298.172
298.126
298.079
298.033
297.987
297.94
297.894
297.848
297.802
297.756
297.711
297.666
297.621
297.576
297.532
297.488
297.444
297.401
297.359
297.316
297.275
297.233
297.192
297.152
297.112
297.073
297.034
296.995
296.958
296.92
296.884
296.847
296.812
296.776
296.742
296.707
296.674
296.64
296.608
296.575
296.543
296.512
296.481
296.45
296.42
296.39
296.36
296.331
296.302
296.273
296.245
296.217
296.189
296.161
296.133
296.106
296.078
296.05
296.022
295.991
295.957
295.912
295.842
295.715
295.457
294.898
293.655
290.868
284.613
270.629
239.519
170.693
19.3137
-311.687
-1031.25
-2586.5
-5929.22
-13073.3
-28262
-60364.3
300
300
300
300
300
300
300
300
300
300
300
300
300
300
300
300
300
300
300
300
300
300
300
300
300
300
300
300
300
300
300
300
300
300
300
300
300
300
300
300
300
300
300
300
300
300
300
300
300
300
300
300
300
300
300
300
300
300
300
300
300
300
300
300
300
300
300
300
300
299.999
299.999
299.999
299.999
299.999
299.999
299.998
299.998
299.998
299.998
299.997
299.997
299.996
299.996
299.995
299.994
299.994
299.993
299.992
299.991
299.99
299.989
299.987
299.986
299.984
299.982
299.98
299.978
299.976
299.973
299.971
299.968
299.964
299.961
299.957
299.953
299.949
299.944
299.939
299.933
299.928
299.921
299.915
299.908
299.9
299.892
299.883
299.874
299.864
299.854
299.843
299.831
299.819
299.806
299.792
299.777
299.762
299.746
299.728
299.711
299.692
299.672
299.652
299.63
299.607
299.584
299.559
299.534
299.508
299.48
299.451
299.422
299.391
299.36
299.327
299.293
299.259
299.223
299.186
299.149
299.11
299.07
299.03
298.989
298.946
298.903
298.859
298.815
298.769
298.723
298.676
298.629
298.581
298.532
298.483
298.434
298.384
298.333
298.283
298.232
298.18
298.129
298.077
298.026
297.974
297.922
297.871
297.819
297.767
297.716
297.665
297.614
297.563
297.513
297.463
297.413
297.364
297.315
297.267
297.219
297.172
297.125
297.079
297.033
296.989
296.944
296.901
296.858
296.816
296.775
296.734
296.694
296.655
296.616
296.578
296.541
296.505
296.469
296.434
296.4
296.367
296.334
296.302
296.27
296.24
296.209
296.18
296.151
296.122
296.094
296.067
296.04
296.013
295.987
295.961
295.936
295.911
295.886
295.862
295.838
295.814
295.79
295.766
295.743
295.719
295.695
295.669
295.638
295.597
295.532
295.41
295.158
294.608
293.377
290.611
284.395
270.481
239.497
170.897
19.8986
-310.508
-1029.28
-2583.88
-5927.41
-13077.8
-28289.7
-60460.5
300
300
300
300
300
300
300
300
300
300
300
300
300
300
300
300
300
300
300
300
300
300
300
300
300
300
300
300
300
300
300
300
300
300
300
300
300
300
300
300
300
300
300
300
300
300
300
300
300
300
300
300
300
300
300
300
300
300
300
300
300
300
300
300
300
300
300
299.999
299.999
299.999
299.999
299.999
299.999
299.998
299.998
299.998
299.997
299.997
299.997
299.996
299.996
299.995
299.994
299.993
299.992
299.991
299.99
299.989
299.988
299.986
299.985
299.983
299.981
299.979
299.976
299.974
299.971
299.968
299.964
299.961
299.957
299.953
299.948
299.943
299.938
299.932
299.926
299.92
299.912
299.905
299.897
299.888
299.879
299.869
299.859
299.848
299.836
299.823
299.81
299.796
299.781
299.765
299.749
299.731
299.713
299.693
299.673
299.651
299.629
299.605
299.581
299.555
299.528
299.5
299.471
299.441
299.409
299.376
299.342
299.307
299.271
299.233
299.195
299.155
299.114
299.072
299.029
298.984
298.939
298.892
298.845
298.797
298.747
298.697
298.646
298.594
298.541
298.487
298.433
298.378
298.323
298.267
298.211
298.154
298.097
298.039
297.981
297.923
297.865
297.807
297.749
297.69
297.632
297.574
297.516
297.458
297.401
297.344
297.287
297.231
297.175
297.12
297.065
297.011
296.958
296.905
296.853
296.802
296.751
296.702
296.653
296.605
296.557
296.511
296.466
296.422
296.378
296.336
296.294
296.254
296.214
296.175
296.138
296.101
296.065
296.031
295.997
295.964
295.932
295.901
295.871
295.841
295.813
295.785
295.758
295.732
295.706
295.682
295.657
295.634
295.611
295.588
295.567
295.545
295.524
295.504
295.484
295.464
295.444
295.425
295.406
295.387
295.368
295.349
295.329
295.308
295.282
295.246
295.186
295.07
294.825
294.283
293.067
290.324
284.149
270.31
239.462
171.101
20.506
-309.276
-1027.23
-2581.21
-5925.79
-13083.5
-28321.1
-60568
300
300
300
300
300
300
300
300
300
300
300
300
300
300
300
300
300
300
300
300
300
300
300
300
300
300
300
300
300
300
300
300
300
300
300
300
300
300
300
300
300
300
300
300
300
300
300
300
300
300
300
300
300
300
300
300
300
300
300
300
300
300
300
300
300
299.999
299.999
299.999
299.999
299.999
299.999
299.998
299.998
299.998
299.997
299.997
299.997
299.996
299.995
299.995
299.994
299.993
299.992
299.991
299.99
299.988
299.987
299.985
299.983
299.981
299.979
299.977
299.974
299.971
299.968
299.965
299.961
299.957
299.953
299.948
299.943
299.937
299.931
299.925
299.918
299.911
299.903
299.894
299.885
299.875
299.865
299.854
299.842
299.83
299.816
299.802
299.787
299.771
299.754
299.736
299.717
299.697
299.676
299.654
299.631
299.607
299.581
299.554
299.526
299.496
299.466
299.433
299.4
299.365
299.329
299.292
299.253
299.212
299.171
299.128
299.083
299.038
298.99
298.942
298.892
298.841
298.789
298.736
298.681
298.626
298.569
298.511
298.453
298.393
298.333
298.271
298.209
298.146
298.083
298.019
297.955
297.89
297.825
297.759
297.693
297.627
297.561
297.495
297.429
297.363
297.298
297.232
297.167
297.102
297.038
296.974
296.91
296.847
296.785
296.724
296.663
296.603
296.544
296.486
296.429
296.373
296.318
296.264
296.211
296.159
296.108
296.058
296.01
295.963
295.917
295.872
295.829
295.786
295.745
295.706
295.667
295.63
295.594
295.559
295.525
295.493
295.462
295.431
295.403
295.375
295.348
295.322
295.297
295.274
295.251
295.229
295.208
295.187
295.168
295.149
295.131
295.114
295.097
295.081
295.065
295.05
295.035
295.021
295.006
294.993
294.979
294.966
294.952
294.939
294.925
294.909
294.888
294.858
294.804
294.694
294.457
293.925
292.724
290.005
283.874
270.114
239.409
171.299
21.125
-308.012
-1025.14
-2578.56
-5924.49
-13090.4
-28356.7
-60687.4
300
300
300
300
300
300
300
300
300
300
300
300
300
300
300
300
300
300
300
300
300
300
300
300
300
300
300
300
300
300
300
300
300
300
300
300
300
300
300
300
300
300
300
300
300
300
300
300
300
300
300
300
300
300
300
300
300
300
300
300
300
300
300
299.999
299.999
299.999
299.999
299.999
299.999
299.998
299.998
299.998
299.997
299.997
299.996
299.996
299.995
299.994
299.994
299.993
299.992
299.99
299.989
299.988
299.986
299.984
299.982
299.98
299.978
299.975
299.972
299.969
299.965
299.962
299.957
299.953
299.948
299.943
299.937
299.931
299.924
299.917
299.909
299.901
299.892
299.883
299.872
299.862
299.85
299.837
299.824
299.81
299.795
299.779
299.762
299.744
299.724
299.704
299.683
299.66
299.636
299.611
299.584
299.557
299.527
299.497
299.464
299.431
299.396
299.359
299.321
299.281
299.24
299.197
299.152
299.106
299.058
299.009
298.958
298.905
298.851
298.795
298.738
298.68
298.62
298.559
298.496
298.432
298.367
298.301
298.233
298.165
298.095
298.025
297.954
297.882
297.809
297.736
297.662
297.588
297.514
297.439
297.364
297.289
297.213
297.138
297.063
296.988
296.914
296.84
296.766
296.693
296.62
296.548
296.477
296.407
296.337
296.268
296.201
296.134
296.068
296.004
295.941
295.879
295.818
295.759
295.701
295.645
295.59
295.536
295.484
295.433
295.384
295.337
295.291
295.246
295.203
295.162
295.122
295.084
295.047
295.012
294.979
294.946
294.916
294.887
294.859
294.832
294.807
294.784
294.761
294.74
294.72
294.701
294.684
294.667
294.651
294.637
294.623
294.61
294.598
294.586
294.575
294.565
294.556
294.547
294.538
294.53
294.522
294.515
294.508
294.501
294.494
294.486
294.478
294.469
294.455
294.431
294.383
294.281
294.052
293.531
292.346
289.654
283.568
269.891
239.334
171.484
21.7432
-306.739
-1023.06
-2576
-5923.64
-13098.9
-28396.9
-60819.2
300
300
300
300
300
300
300
300
300
300
300
300
300
300
300
300
300
300
300
300
300
300
300
300
300
300
300
300
300
300
300
300
300
300
300
300
300
300
300
300
300
300
300
300
300
300
300
300
300
300
300
300
300
300
300
300
300
300
300
300
300
300
299.999
299.999
299.999
299.999
299.999
299.998
299.998
299.998
299.997
299.997
299.996
299.996
299.995
299.994
299.993
299.992
299.991
299.99
299.989
299.987
299.985
299.983
299.981
299.979
299.976
299.973
299.97
299.966
299.962
299.958
299.954
299.949
299.943
299.937
299.931
299.924
299.917
299.909
299.9
299.891
299.881
299.87
299.859
299.846
299.833
299.819
299.804
299.788
299.771
299.753
299.734
299.713
299.692
299.669
299.644
299.619
299.592
299.563
299.533
299.501
299.468
299.433
299.396
299.358
299.318
299.276
299.232
299.187
299.14
299.09
299.039
298.986
298.932
298.875
298.817
298.756
298.694
298.63
298.565
298.498
298.429
298.358
298.287
298.213
298.138
298.062
297.985
297.906
297.826
297.746
297.664
297.581
297.498
297.414
297.33
297.245
297.16
297.074
296.988
296.902
296.817
296.731
296.646
296.56
296.476
296.392
296.308
296.225
296.143
296.062
295.981
295.902
295.824
295.747
295.671
295.597
295.523
295.452
295.382
295.313
295.246
295.181
295.117
295.055
294.995
294.936
294.88
294.825
294.772
294.721
294.672
294.625
294.58
294.537
294.495
294.456
294.418
294.383
294.349
294.317
294.287
294.258
294.232
294.207
294.184
294.162
294.142
294.124
294.107
294.091
294.077
294.065
294.053
294.043
294.034
294.026
294.019
294.013
294.007
294.003
293.999
293.996
293.994
293.992
293.991
293.99
293.99
293.99
293.99
293.99
293.99
293.99
293.99
293.987
293.98
293.964
293.924
293.829
293.609
293.1
291.932
289.268
283.23
269.638
239.234
171.65
22.3466
-305.482
-1021.02
-2573.63
-5923.41
-13109.2
-28442.2
-60964.3
300
300
300
300
300
300
300
300
300
300
300
300
300
300
300
300
300
300
300
300
300
300
300
300
300
300
300
300
300
300
300
300
300
300
300
300
300
300
300
300
300
300
300
300
300
300
300
300
300
300
300
300
300
300
300
300
300
300
300
300
299.999
299.999
299.999
299.999
299.999
299.999
299.998
299.998
299.997
299.997
299.996
299.996
299.995
299.994
299.993
299.992
299.991
299.99
299.988
299.986
299.984
299.982
299.98
299.977
299.974
299.971
299.968
299.964
299.96
299.955
299.95
299.944
299.938
299.932
299.925
299.917
299.909
299.9
299.89
299.88
299.869
299.857
299.844
299.83
299.815
299.8
299.783
299.765
299.746
299.725
299.703
299.68
299.656
299.63
299.602
299.573
299.543
299.51
299.476
299.44
299.402
299.363
299.321
299.277
299.232
299.184
299.134
299.082
299.028
298.972
298.914
298.853
298.791
298.726
298.659
298.59
298.519
298.445
298.37
298.293
298.214
298.133
298.051
297.966
297.88
297.793
297.704
297.614
297.522
297.43
297.336
297.241
297.146
297.05
296.953
296.855
296.758
296.66
296.562
296.464
296.366
296.268
296.171
296.074
295.977
295.882
295.787
295.692
295.599
295.507
295.417
295.327
295.239
295.152
295.067
294.983
294.902
294.821
294.743
294.667
294.592
294.52
294.45
294.381
294.315
294.251
294.19
294.13
294.073
294.018
293.965
293.915
293.867
293.821
293.778
293.737
293.698
293.662
293.627
293.595
293.566
293.538
293.513
293.489
293.468
293.449
293.431
293.416
293.402
293.39
293.38
293.372
293.365
293.359
293.355
293.353
293.352
293.351
293.352
293.354
293.358
293.361
293.366
293.372
293.378
293.384
293.392
293.399
293.407
293.415
293.424
293.432
293.441
293.449
293.457
293.462
293.464
293.455
293.423
293.338
293.128
292.632
291.482
288.846
282.858
269.353
239.103
171.786
22.9194
-304.272
-1019.09
-2571.56
-5923.98
-13121.7
-28493.1
-61123.6
300
300
300
300
300
300
300
300
300
300
300
300
300
300
300
300
300
300
300
300
300
300
300
300
300
300
300
300
300
300
300
300
300
300
300
300
300
300
300
300
300
300
300
300
300
300
300
300
300
300
300
300
300
300
300
300
300
300
300
299.999
299.999
299.999
299.999
299.999
299.998
299.998
299.998
299.997
299.997
299.996
299.995
299.994
299.993
299.992
299.991
299.989
299.988
299.986
299.984
299.982
299.979
299.976
299.973
299.97
299.966
299.961
299.957
299.952
299.946
299.94
299.933
299.926
299.918
299.91
299.901
299.891
299.88
299.868
299.856
299.843
299.828
299.813
299.796
299.778
299.76
299.739
299.718
299.695
299.67
299.644
299.617
299.587
299.556
299.524
299.489
299.452
299.414
299.373
299.33
299.285
299.238
299.188
299.136
299.082
299.025
298.966
298.905
298.841
298.774
298.705
298.633
298.559
298.483
298.404
298.322
298.239
298.152
298.064
297.974
297.881
297.786
297.689
297.591
297.49
297.388
297.285
297.18
297.073
296.966
296.857
296.748
296.638
296.527
296.415
296.303
296.191
296.079
295.967
295.855
295.743
295.632
295.522
295.412
295.303
295.195
295.088
294.982
294.878
294.775
294.674
294.574
294.477
294.381
294.287
294.195
294.105
294.017
293.932
293.849
293.769
293.691
293.615
293.542
293.472