/*--------------------------------*- C++ -*----------------------------------*\
| =========                 |                                                 |
| \\      /  F ield         | OpenFOAM: The Open Source CFD Toolbox           |
|  \\    /   O peration     | Version:  2306                                  |
|   \\  /    A nd           | Website:  www.openfoam.com                      |
|    \\/     M anipulation  |                                                 |
\*---------------------------------------------------------------------------*/
FoamFile
{
    version     2.0;
    format      ascii;
    arch        "LSB;label=32;scalar=64";
    class       volVectorField;
    location    "12";
    object      U;
}
// * * * * * * * * * * * * * * * * * * * * * * * * * * * * * * * * * * * * * //

dimensions      [0 1 -1 0 0 0 0];

internalField   nonuniform List<vector> 
32768
(
(1.00001 -4.00749e-05 0)
(1.00017 -0.000120432 0)
(1.00048 -0.000200942 0)
(1.00096 -0.000281607 0)
(1.00161 -0.00036253 0)
(1.00242 -0.000443805 0)
(1.00339 -0.000525497 0)
(1.00452 -0.000607659 0)
(1.00582 -0.00069035 0)
(1.00728 -0.00077363 0)
(1.00891 -0.000857553 0)
(1.01071 -0.000942166 0)
(1.01268 -0.00102751 0)
(1.01482 -0.00111362 0)
(1.01714 -0.00120051 0)
(1.01962 -0.00128822 0)
(1.02229 -0.00137674 0)
(1.02513 -0.00146607 0)
(1.02815 -0.0015562 0)
(1.03136 -0.0016471 0)
(1.03474 -0.00173875 0)
(1.03831 -0.00183109 0)
(1.04207 -0.00192405 0)
(1.04601 -0.00201757 0)
(1.05014 -0.00211155 0)
(1.05446 -0.0022059 0)
(1.05896 -0.00230048 0)
(1.06366 -0.00239518 0)
(1.06855 -0.00248983 0)
(1.07362 -0.00258428 0)
(1.07888 -0.00267835 0)
(1.08434 -0.00277186 0)
(1.08997 -0.00286459 0)
(1.0958 -0.00295633 0)
(1.1018 -0.00304686 0)
(1.10798 -0.00313593 0)
(1.11435 -0.00322331 0)
(1.12088 -0.00330874 0)
(1.12758 -0.00339196 0)
(1.13445 -0.00347272 0)
(1.14148 -0.00355076 0)
(1.14866 -0.00362582 0)
(1.15598 -0.00369765 0)
(1.16345 -0.003766 0)
(1.17105 -0.00383063 0)
(1.17878 -0.00389132 0)
(1.18662 -0.00394787 0)
(1.19457 -0.00400007 0)
(1.20263 -0.00404775 0)
(1.21077 -0.00409075 0)
(1.21899 -0.00412896 0)
(1.22729 -0.00416226 0)
(1.23565 -0.00419056 0)
(1.24406 -0.00421382 0)
(1.25251 -0.00423201 0)
(1.26099 -0.00424512 0)
(1.26949 -0.00425318 0)
(1.27801 -0.00425626 0)
(1.28652 -0.00425442 0)
(1.29503 -0.00424777 0)
(1.30352 -0.00423644 0)
(1.31198 -0.00422059 0)
(1.32041 -0.00420039 0)
(1.32879 -0.00417602 0)
(1.33711 -0.0041477 0)
(1.34538 -0.00411565 0)
(1.35358 -0.0040801 0)
(1.36171 -0.00404131 0)
(1.36975 -0.00399952 0)
(1.37771 -0.00395501 0)
(1.38557 -0.00390802 0)
(1.39334 -0.00385883 0)
(1.40101 -0.00380771 0)
(1.40857 -0.00375492 0)
(1.41603 -0.00370072 0)
(1.42338 -0.00364536 0)
(1.43061 -0.0035891 0)
(1.43773 -0.00353217 0)
(1.44474 -0.00347481 0)
(1.45163 -0.00341724 0)
(1.45841 -0.00335966 0)
(1.46507 -0.00330228 0)
(1.47162 -0.00324527 0)
(1.47805 -0.00318882 0)
(1.48437 -0.00313307 0)
(1.49058 -0.00307817 0)
(1.49669 -0.00302426 0)
(1.50268 -0.00297144 0)
(1.50857 -0.00291982 0)
(1.51436 -0.00286948 0)
(1.52005 -0.0028205 0)
(1.52564 -0.00277294 0)
(1.53114 -0.00272684 0)
(1.53654 -0.00268224 0)
(1.54186 -0.00263916 0)
(1.5471 -0.00259761 0)
(1.55225 -0.00255758 0)
(1.55733 -0.00251907 0)
(1.56233 -0.00248204 0)
(1.56725 -0.00244647 0)
(1.57211 -0.00241231 0)
(1.5769 -0.0023795 0)
(1.58163 -0.002348 0)
(1.58629 -0.00231773 0)
(1.5909 -0.00228862 0)
(1.59545 -0.00226058 0)
(1.59994 -0.00223354 0)
(1.60438 -0.00220741 0)
(1.60877 -0.00218208 0)
(1.61311 -0.00215747 0)
(1.6174 -0.00213347 0)
(1.62164 -0.00210997 0)
(1.62583 -0.00208689 0)
(1.62999 -0.0020641 0)
(1.63409 -0.0020415 0)
(1.63815 -0.002019 0)
(1.64217 -0.00199647 0)
(1.64614 -0.00197382 0)
(1.65006 -0.00195095 0)
(1.65394 -0.00192775 0)
(1.65777 -0.00190412 0)
(1.66156 -0.00187997 0)
(1.66529 -0.00185521 0)
(1.66898 -0.00182975 0)
(1.67261 -0.00180349 0)
(1.67619 -0.00177637 0)
(1.67972 -0.0017483 0)
(1.68319 -0.0017192 0)
(1.68659 -0.00168902 0)
(1.68994 -0.00165768 0)
(1.69323 -0.00162514 0)
(1.69644 -0.00159133 0)
(1.69959 -0.0015562 0)
(1.70267 -0.00151972 0)
(1.70567 -0.00148184 0)
(1.7086 -0.00144253 0)
(1.71144 -0.00140177 0)
(1.71421 -0.00135952 0)
(1.71688 -0.00131578 0)
(1.71947 -0.00127051 0)
(1.72196 -0.00122373 0)
(1.72436 -0.00117541 0)
(1.72667 -0.00112556 0)
(1.72887 -0.00107418 0)
(1.73096 -0.00102128 0)
(1.73295 -0.000966869 0)
(1.73483 -0.000910954 0)
(1.7366 -0.000853555 0)
(1.73825 -0.000794691 0)
(1.73978 -0.000734384 0)
(1.74119 -0.000672658 0)
(1.74247 -0.000609539 0)
(1.74362 -0.000545056 0)
(1.74465 -0.000479239 0)
(1.74554 -0.000412121 0)
(1.7463 -0.000343734 0)
(1.74692 -0.000274114 0)
(1.7474 -0.000203296 0)
(1.74773 -0.000131317 0)
(1.74792 -5.82144e-05 0)
(1.74796 1.5973e-05 0)
(1.74786 9.12045e-05 0)
(1.7476 0.000167441 0)
(1.74719 0.000244644 0)
(1.74662 0.000322772 0)
(1.7459 0.000401783 0)
(1.74501 0.000481637 0)
(1.74397 0.00056229 0)
(1.74276 0.000643702 0)
(1.74139 0.000725828 0)
(1.73986 0.000808626 0)
(1.73816 0.00089205 0)
(1.73629 0.000976058 0)
(1.73425 0.0010606 0)
(1.73205 0.00114564 0)
(1.72967 0.00123111 0)
(1.72712 0.00131699 0)
(1.7244 0.0014032 0)
(1.72151 0.00148971 0)
(1.71844 0.00157647 0)
(1.7152 0.0016634 0)
(1.71179 0.00175047 0)
(1.7082 0.00183761 0)
(1.70444 0.00192477 0)
(1.7005 0.00201187 0)
(1.69639 0.00209886 0)
(1.6921 0.00218568 0)
(1.68764 0.00227224 0)
(1.68301 0.00235848 0)
(1.67821 0.00244433 0)
(1.67323 0.00252971 0)
(1.66809 0.00261454 0)
(1.66277 0.00269873 0)
(1.65729 0.00278222 0)
(1.65164 0.00286491 0)
(1.64583 0.00294671 0)
(1.63985 0.00302753 0)
(1.63371 0.00310729 0)
(1.62742 0.00318589 0)
(1.62097 0.00326323 0)
(1.61436 0.00333923 0)
(1.60761 0.00341377 0)
(1.60071 0.00348678 0)
(1.59366 0.00355815 0)
(1.58647 0.00362778 0)
(1.57915 0.00369559 0)
(1.57169 0.00376147 0)
(1.5641 0.00382534 0)
(1.55638 0.00388711 0)
(1.54854 0.00394668 0)
(1.54059 0.00400397 0)
(1.53252 0.00405891 0)
(1.52435 0.00411141 0)
(1.51608 0.00416141 0)
(1.5077 0.00420883 0)
(1.49924 0.00425361 0)
(1.49068 0.0042957 0)
(1.48205 0.00433505 0)
(1.47334 0.0043716 0)
(1.46456 0.00440532 0)
(1.45571 0.00443619 0)
(1.44681 0.00446417 0)
(1.43785 0.00448925 0)
(1.42885 0.00451141 0)
(1.4198 0.00453067 0)
(1.41072 0.00454701 0)
(1.40161 0.00456046 0)
(1.39248 0.00457104 0)
(1.38332 0.00457876 0)
(1.37416 0.00458367 0)
(1.36499 0.0045858 0)
(1.35581 0.0045852 0)
(1.34664 0.00458193 0)
(1.33748 0.00457604 0)
(1.32833 0.0045676 0)
(1.31921 0.00455668 0)
(1.3101 0.00454334 0)
(1.30103 0.00452767 0)
(1.29199 0.00450975 0)
(1.28299 0.00448966 0)
(1.27403 0.00446749 0)
(1.26511 0.00444333 0)
(1.25625 0.00441726 0)
(1.24744 0.00438938 0)
(1.23869 0.00435978 0)
(1.23 0.00432855 0)
(1.22138 0.00429575 0)
(1.21281 0.00426156 0)
(1.20434 0.00422586 0)
(1.19589 0.00418916 0)
(1.18762 0.00415067 0)
(1.17919 0.00411209 0)
(1.17139 0.00407047 0)
(1.16239 0.00403025 0)
(1.15637 0.00398705 0)
(1.14341 0.00393402 0)
(1.00001 -0.0001204 0)
(1.00017 -0.000361517 0)
(1.00048 -0.000603008 0)
(1.00096 -0.000845001 0)
(1.00161 -0.00108777 0)
(1.00241 -0.00133156 0)
(1.00338 -0.00157659 0)
(1.00452 -0.00182303 0)
(1.00581 -0.00207106 0)
(1.00728 -0.00232087 0)
(1.00891 -0.00257261 0)
(1.0107 -0.00282643 0)
(1.01267 -0.00308245 0)
(1.01481 -0.00334076 0)
(1.01713 -0.00360146 0)
(1.01961 -0.00386458 0)
(1.02228 -0.00413015 0)
(1.02512 -0.00439818 0)
(1.02814 -0.00466861 0)
(1.03134 -0.00494137 0)
(1.03473 -0.00521637 0)
(1.03829 -0.00549345 0)
(1.04205 -0.00577244 0)
(1.04599 -0.00605309 0)
(1.05012 -0.00633515 0)
(1.05444 -0.0066183 0)
(1.05894 -0.00690219 0)
(1.06364 -0.00718642 0)
(1.06853 -0.00747054 0)
(1.0736 -0.00775406 0)
(1.07887 -0.00803646 0)
(1.08432 -0.00831717 0)
(1.08996 -0.00859556 0)
(1.09579 -0.008871 0)
(1.1018 -0.00914279 0)
(1.10799 -0.00941024 0)
(1.11435 -0.0096726 0)
(1.12089 -0.00992912 0)
(1.1276 -0.010179 0)
(1.13447 -0.0104215 0)
(1.14151 -0.0106559 0)
(1.14869 -0.0108813 0)
(1.15603 -0.011097 0)
(1.16351 -0.0113022 0)
(1.17111 -0.0114963 0)
(1.17885 -0.0116785 0)
(1.1867 -0.0118483 0)
(1.19467 -0.0120051 0)
(1.20273 -0.0121482 0)
(1.21088 -0.0122773 0)
(1.21912 -0.012392 0)
(1.22743 -0.0124919 0)
(1.23579 -0.0125769 0)
(1.24422 -0.0126466 0)
(1.25268 -0.0127012 0)
(1.26117 -0.0127404 0)
(1.26969 -0.0127646 0)
(1.27821 -0.0127737 0)
(1.28674 -0.012768 0)
(1.29526 -0.0127479 0)
(1.30376 -0.0127138 0)
(1.31223 -0.012666 0)
(1.32066 -0.0126052 0)
(1.32905 -0.0125319 0)
(1.33739 -0.0124467 0)
(1.34566 -0.0123503 0)
(1.35387 -0.0122434 0)
(1.362 -0.0121267 0)
(1.37005 -0.0120011 0)
(1.37802 -0.0118673 0)
(1.38589 -0.0117261 0)
(1.39366 -0.0115783 0)
(1.40134 -0.0114246 0)
(1.40891 -0.011266 0)
(1.41637 -0.0111032 0)
(1.42372 -0.0109368 0)
(1.43095 -0.0107678 0)
(1.43808 -0.0105968 0)
(1.44509 -0.0104245 0)
(1.45198 -0.0102516 0)
(1.45876 -0.0100787 0)
(1.46542 -0.00990639 0)
(1.47197 -0.00973521 0)
(1.4784 -0.0095657 0)
(1.48472 -0.00939833 0)
(1.49093 -0.00923352 0)
(1.49703 -0.00907167 0)
(1.50302 -0.00891312 0)
(1.50891 -0.00875818 0)
(1.5147 -0.0086071 0)
(1.52039 -0.00846012 0)
(1.52598 -0.0083174 0)
(1.53147 -0.00817909 0)
(1.53688 -0.00804528 0)
(1.54219 -0.00791604 0)
(1.54743 -0.00779139 0)
(1.55258 -0.00767133 0)
(1.55765 -0.00755582 0)
(1.56265 -0.00744478 0)
(1.56757 -0.0073381 0)
(1.57243 -0.00723567 0)
(1.57722 -0.00713733 0)
(1.58194 -0.00704288 0)
(1.5866 -0.00695214 0)
(1.59121 -0.00686489 0)
(1.59575 -0.00678087 0)
(1.60025 -0.00669984 0)
(1.60469 -0.00662152 0)
(1.60907 -0.00654564 0)
(1.61341 -0.00647189 0)
(1.6177 -0.00639999 0)
(1.62194 -0.00632961 0)
(1.62614 -0.00626044 0)
(1.63029 -0.00619217 0)
(1.6344 -0.00612448 0)
(1.63846 -0.00605706 0)
(1.64247 -0.00598957 0)
(1.64644 -0.00592172 0)
(1.65037 -0.00585318 0)
(1.65425 -0.00578367 0)
(1.65808 -0.00571287 0)
(1.66187 -0.00564051 0)
(1.66561 -0.0055663 0)
(1.66929 -0.00548997 0)
(1.67293 -0.00541128 0)
(1.67651 -0.00532996 0)
(1.68004 -0.0052458 0)
(1.68351 -0.00515857 0)
(1.68692 -0.00506807 0)
(1.69027 -0.0049741 0)
(1.69356 -0.0048765 0)
(1.69678 -0.0047751 0)
(1.69993 -0.00466975 0)
(1.70301 -0.00456032 0)
(1.70602 -0.0044467 0)
(1.70895 -0.00432879 0)
(1.7118 -0.0042065 0)
(1.71456 -0.00407976 0)
(1.71724 -0.00394852 0)
(1.71983 -0.00381273 0)
(1.72233 -0.00367236 0)
(1.72474 -0.00352739 0)
(1.72704 -0.00337782 0)
(1.72925 -0.00322367 0)
(1.73135 -0.00306494 0)
(1.73334 -0.00290166 0)
(1.73522 -0.00273388 0)
(1.73699 -0.00256165 0)
(1.73864 -0.00238502 0)
(1.74018 -0.00220406 0)
(1.74159 -0.00201883 0)
(1.74287 -0.00182943 0)
(1.74403 -0.00163594 0)
(1.74506 -0.00143844 0)
(1.74595 -0.00123704 0)
(1.74671 -0.00103182 0)
(1.74733 -0.000822912 0)
(1.74781 -0.000610405 0)
(1.74815 -0.000394416 0)
(1.74834 -0.000175055 0)
(1.74839 4.75597e-05 0)
(1.74828 0.00027331 0)
(1.74803 0.000502077 0)
(1.74762 0.000733742 0)
(1.74705 0.000968182 0)
(1.74633 0.00120527 0)
(1.74545 0.00144489 0)
(1.74441 0.00168691 0)
(1.7432 0.0019312 0)
(1.74183 0.00217764 0)
(1.7403 0.00242609 0)
(1.7386 0.00267643 0)
(1.73673 0.00292851 0)
(1.7347 0.0031822 0)
(1.73249 0.00343737 0)
(1.73011 0.00369386 0)
(1.72756 0.00395154 0)
(1.72484 0.00421026 0)
(1.72195 0.00446986 0)
(1.71888 0.00473018 0)
(1.71564 0.00499106 0)
(1.71223 0.00525234 0)
(1.70864 0.00551383 0)
(1.70487 0.00577537 0)
(1.70094 0.00603676 0)
(1.69682 0.00629781 0)
(1.69254 0.00655832 0)
(1.68808 0.00681809 0)
(1.68344 0.0070769 0)
(1.67864 0.00733453 0)
(1.67366 0.00759075 0)
(1.66851 0.00784532 0)
(1.6632 0.00809801 0)
(1.65771 0.00834856 0)
(1.65206 0.00859671 0)
(1.64624 0.00884221 0)
(1.64026 0.00908477 0)
(1.63412 0.00932414 0)
(1.62782 0.00956003 0)
(1.62137 0.00979215 0)
(1.61476 0.0100202 0)
(1.608 0.010244 0)
(1.60109 0.0104631 0)
(1.59404 0.0106773 0)
(1.58685 0.0108863 0)
(1.57952 0.0110898 0)
(1.57205 0.0112875 0)
(1.56446 0.0114792 0)
(1.55674 0.0116646 0)
(1.54889 0.0118434 0)
(1.54093 0.0120153 0)
(1.53286 0.0121802 0)
(1.52468 0.0123378 0)
(1.5164 0.0124878 0)
(1.50802 0.0126301 0)
(1.49955 0.0127645 0)
(1.49099 0.0128908 0)
(1.48234 0.0130089 0)
(1.47363 0.0131186 0)
(1.46484 0.0132198 0)
(1.45599 0.0133124 0)
(1.44708 0.0133963 0)
(1.43811 0.0134715 0)
(1.4291 0.013538 0)
(1.42005 0.0135958 0)
(1.41096 0.0136448 0)
(1.40184 0.0136851 0)
(1.3927 0.0137168 0)
(1.38354 0.0137399 0)
(1.37436 0.0137546 0)
(1.36518 0.0137609 0)
(1.356 0.0137591 0)
(1.34682 0.0137492 0)
(1.33766 0.0137315 0)
(1.3285 0.0137061 0)
(1.31937 0.0136732 0)
(1.31026 0.0136331 0)
(1.30118 0.013586 0)
(1.29213 0.0135322 0)
(1.28312 0.0134718 0)
(1.27416 0.0134052 0)
(1.26524 0.0133326 0)
(1.25637 0.0132543 0)
(1.24756 0.0131706 0)
(1.2388 0.0130816 0)
(1.23011 0.0129879 0)
(1.22148 0.0128894 0)
(1.21291 0.0127867 0)
(1.20443 0.0126796 0)
(1.19598 0.0125691 0)
(1.18771 0.0124543 0)
(1.17926 0.012337 0)
(1.17147 0.0122157 0)
(1.16246 0.0120888 0)
(1.15645 0.0119738 0)
(1.14348 0.0117974 0)
(1.00001 -0.000200754 0)
(1.00017 -0.00060249 0)
(1.00048 -0.00100477 0)
(1.00096 -0.00140794 0)
(1.00161 -0.00181241 0)
(1.00241 -0.00221857 0)
(1.00338 -0.00262677 0)
(1.00451 -0.00303734 0)
(1.0058 -0.00345058 0)
(1.00726 -0.00386679 0)
(1.00889 -0.00428625 0)
(1.01069 -0.00470919 0)
(1.01266 -0.00513582 0)
(1.01479 -0.00556631 0)
(1.0171 -0.00600079 0)
(1.01959 -0.00643935 0)
(1.02225 -0.00688203 0)
(1.02509 -0.00732883 0)
(1.02811 -0.00777968 0)
(1.03131 -0.00823446 0)
(1.03469 -0.00869301 0)
(1.03826 -0.00915507 0)
(1.04201 -0.00962034 0)
(1.04595 -0.0100884 0)
(1.05008 -0.0105589 0)
(1.0544 -0.0110313 0)
(1.05891 -0.0115049 0)
(1.0636 -0.0119792 0)
(1.06849 -0.0124533 0)
(1.07357 -0.0129265 0)
(1.07884 -0.0133979 0)
(1.0843 -0.0138664 0)
(1.08994 -0.0143312 0)
(1.09578 -0.014791 0)
(1.10179 -0.0152449 0)
(1.10799 -0.0156915 0)
(1.11436 -0.0161296 0)
(1.12091 -0.016558 0)
(1.12763 -0.0169754 0)
(1.13452 -0.0173805 0)
(1.14157 -0.0177719 0)
(1.14877 -0.0181485 0)
(1.15612 -0.0185088 0)
(1.16361 -0.0188517 0)
(1.17124 -0.0191759 0)
(1.17899 -0.0194804 0)
(1.18687 -0.019764 0)
(1.19485 -0.0200258 0)
(1.20293 -0.0202649 0)
(1.21111 -0.0204805 0)
(1.21937 -0.020672 0)
(1.2277 -0.0208388 0)
(1.23609 -0.0209805 0)
(1.24453 -0.0210969 0)
(1.25302 -0.0211878 0)
(1.26153 -0.0212531 0)
(1.27007 -0.0212931 0)
(1.27862 -0.021308 0)
(1.28717 -0.0212982 0)
(1.29571 -0.0212642 0)
(1.30423 -0.0212068 0)
(1.31272 -0.0211266 0)
(1.32117 -0.0210245 0)
(1.32958 -0.0209016 0)
(1.33794 -0.0207588 0)
(1.34623 -0.0205973 0)
(1.35445 -0.0204183 0)
(1.3626 -0.020223 0)
(1.37067 -0.0200127 0)
(1.37864 -0.0197888 0)
(1.38653 -0.0195525 0)
(1.39431 -0.0193052 0)
(1.40199 -0.0190482 0)
(1.40957 -0.0187829 0)
(1.41704 -0.0185106 0)
(1.4244 -0.0182326 0)
(1.43164 -0.01795 0)
(1.43877 -0.0176642 0)
(1.44578 -0.0173763 0)
(1.45268 -0.0170874 0)
(1.45946 -0.0167985 0)
(1.46612 -0.0165106 0)
(1.47267 -0.0162248 0)
(1.4791 -0.0159417 0)
(1.48542 -0.0156622 0)
(1.49163 -0.0153871 0)
(1.49772 -0.0151169 0)
(1.50371 -0.0148523 0)
(1.5096 -0.0145938 0)
(1.51538 -0.0143417 0)
(1.52106 -0.0140965 0)
(1.52665 -0.0138585 0)
(1.53214 -0.0136278 0)
(1.53754 -0.0134047 0)
(1.54286 -0.0131893 0)
(1.54808 -0.0129815 0)
(1.55323 -0.0127815 0)
(1.5583 -0.012589 0)
(1.56329 -0.0124041 0)
(1.56821 -0.0122264 0)
(1.57306 -0.0120559 0)
(1.57785 -0.0118921 0)
(1.58257 -0.0117349 0)
(1.58723 -0.011584 0)
(1.59183 -0.0114388 0)
(1.59637 -0.011299 0)
(1.60086 -0.0111643 0)
(1.6053 -0.0110341 0)
(1.60968 -0.0109079 0)
(1.61402 -0.0107853 0)
(1.61831 -0.0106658 0)
(1.62255 -0.0105488 0)
(1.62675 -0.0104339 0)
(1.6309 -0.0103205 0)
(1.63501 -0.010208 0)
(1.63907 -0.010096 0)
(1.64309 -0.00998384 0)
(1.64706 -0.00987108 0)
(1.65099 -0.00975719 0)
(1.65487 -0.00964164 0)
(1.65871 -0.00952396 0)
(1.6625 -0.00940364 0)
(1.66624 -0.00928024 0)
(1.66993 -0.00915331 0)
(1.67357 -0.0090224 0)
(1.67716 -0.00888712 0)
(1.68069 -0.00874707 0)
(1.68417 -0.0086019 0)
(1.68758 -0.00845125 0)
(1.69094 -0.00829481 0)
(1.69423 -0.00813229 0)
(1.69746 -0.00796342 0)
(1.70062 -0.00778796 0)
(1.7037 -0.00760568 0)
(1.70672 -0.0074164 0)
(1.70965 -0.00721995 0)
(1.71251 -0.00701618 0)
(1.71528 -0.00680498 0)
(1.71797 -0.00658625 0)
(1.72056 -0.00635993 0)
(1.72307 -0.00612596 0)
(1.72548 -0.00588432 0)
(1.72779 -0.00563499 0)
(1.73 -0.005378 0)
(1.73211 -0.00511338 0)
(1.73411 -0.00484117 0)
(1.736 -0.00456145 0)
(1.73777 -0.00427428 0)
(1.73943 -0.00397978 0)
(1.74097 -0.00367805 0)
(1.74239 -0.00336921 0)
(1.74368 -0.0030534 0)
(1.74484 -0.00273076 0)
(1.74588 -0.00240145 0)
(1.74678 -0.00206561 0)
(1.74754 -0.00172343 0)
(1.74817 -0.00137507 0)
(1.74865 -0.00102072 0)
(1.74899 -0.000660562 0)
(1.74919 -0.000294783 0)
(1.74924 7.6423e-05 0)
(1.74914 0.00045286 0)
(1.74888 0.000834328 0)
(1.74848 0.00122063 0)
(1.74792 0.00161155 0)
(1.7472 0.0020069 0)
(1.74632 0.00240646 0)
(1.74528 0.00281002 0)
(1.74407 0.00321737 0)
(1.74271 0.0036283 0)
(1.74118 0.00404259 0)
(1.73948 0.00446002 0)
(1.73761 0.00488037 0)
(1.73558 0.0053034 0)
(1.73337 0.00572889 0)
(1.731 0.0061566 0)
(1.72845 0.00658629 0)
(1.72573 0.00701771 0)
(1.72283 0.00745061 0)
(1.71977 0.00788472 0)
(1.71652 0.00831977 0)
(1.71311 0.00875548 0)
(1.70952 0.00919156 0)
(1.70575 0.00962772 0)
(1.70181 0.0100636 0)
(1.6977 0.010499 0)
(1.69341 0.0109335 0)
(1.68894 0.0113667 0)
(1.68431 0.0117984 0)
(1.6795 0.012228 0)
(1.67452 0.0126554 0)
(1.66936 0.01308 0)
(1.66404 0.0135015 0)
(1.65855 0.0139194 0)
(1.65289 0.0143333 0)
(1.64707 0.0147428 0)
(1.64109 0.0151475 0)
(1.63494 0.0155468 0)
(1.62863 0.0159403 0)
(1.62217 0.0163275 0)
(1.61555 0.016708 0)
(1.60879 0.0170813 0)
(1.60187 0.0174468 0)
(1.59481 0.0178042 0)
(1.5876 0.0181528 0)
(1.58026 0.0184924 0)
(1.57279 0.0188223 0)
(1.56518 0.0191421 0)
(1.55745 0.0194514 0)
(1.54959 0.0197497 0)
(1.54162 0.0200365 0)
(1.53353 0.0203116 0)
(1.52534 0.0205745 0)
(1.51705 0.0208248 0)
(1.50865 0.0210623 0)
(1.50016 0.0212865 0)
(1.49159 0.0214971 0)
(1.48293 0.0216941 0)
(1.4742 0.021877 0)
(1.4654 0.0220458 0)
(1.45653 0.0222002 0)
(1.44761 0.0223402 0)
(1.43863 0.0224656 0)
(1.4296 0.0225764 0)
(1.42053 0.0226727 0)
(1.41143 0.0227543 0)
(1.40229 0.0228214 0)
(1.39314 0.0228741 0)
(1.38396 0.0229125 0)
(1.37477 0.0229368 0)
(1.36558 0.0229472 0)
(1.35638 0.022944 0)
(1.34719 0.0229273 0)
(1.33801 0.0228975 0)
(1.32884 0.0228549 0)
(1.31969 0.0227999 0)
(1.31057 0.0227328 0)
(1.30148 0.022654 0)
(1.29242 0.0225639 0)
(1.2834 0.022463 0)
(1.27442 0.0223517 0)
(1.26549 0.0222304 0)
(1.25661 0.0220995 0)
(1.24779 0.0219596 0)
(1.23902 0.0218111 0)
(1.23032 0.0216544 0)
(1.22168 0.0214901 0)
(1.2131 0.0213184 0)
(1.20461 0.0211399 0)
(1.19615 0.020955 0)
(1.18787 0.0207644 0)
(1.17943 0.0205667 0)
(1.17162 0.0203688 0)
(1.1626 0.0201502 0)
(1.15659 0.0199746 0)
(1.14361 0.0196603 0)
(1.00001 -0.000280844 0)
(1.00017 -0.000842802 0)
(1.00048 -0.00140552 0)
(1.00096 -0.00196953 0)
(1.0016 -0.0025354 0)
(1.00241 -0.00310363 0)
(1.00337 -0.00367473 0)
(1.0045 -0.00424917 0)
(1.00579 -0.0048274 0)
(1.00725 -0.00540982 0)
(1.00887 -0.00599682 0)
(1.01067 -0.00658875 0)
(1.01263 -0.00718589 0)
(1.01476 -0.00778849 0)
(1.01707 -0.00839673 0)
(1.01955 -0.00901076 0)
(1.02221 -0.00963062 0)
(1.02504 -0.0102563 0)
(1.02806 -0.0108878 0)
(1.03125 -0.0115248 0)
(1.03464 -0.0121672 0)
(1.0382 -0.0128147 0)
(1.04195 -0.0134667 0)
(1.04589 -0.0141228 0)
(1.05002 -0.0147823 0)
(1.05434 -0.0154445 0)
(1.05885 -0.0161087 0)
(1.06355 -0.0167738 0)
(1.06844 -0.0174388 0)
(1.07352 -0.0181026 0)
(1.07879 -0.0187639 0)
(1.08426 -0.0194214 0)
(1.08991 -0.0200737 0)
(1.09575 -0.0207192 0)
(1.10178 -0.0213563 0)
(1.10799 -0.0219834 0)
(1.11438 -0.0225986 0)
(1.12094 -0.0232003 0)
(1.12768 -0.0237866 0)
(1.13459 -0.0243556 0)
(1.14165 -0.0249055 0)
(1.14888 -0.0254345 0)
(1.15625 -0.0259408 0)
(1.16377 -0.0264225 0)
(1.17142 -0.0268781 0)
(1.17921 -0.0273059 0)
(1.18711 -0.0277044 0)
(1.19512 -0.0280722 0)
(1.20324 -0.0284081 0)
(1.21144 -0.0287109 0)
(1.21974 -0.0289798 0)
(1.2281 -0.0292139 0)
(1.23653 -0.0294128 0)
(1.245 -0.0295759 0)
(1.25352 -0.0297031 0)
(1.26208 -0.0297944 0)
(1.27065 -0.02985 0)
(1.27923 -0.0298703 0)
(1.28781 -0.0298558 0)
(1.29638 -0.0298074 0)
(1.30494 -0.0297259 0)
(1.31346 -0.0296124 0)
(1.32194 -0.0294681 0)
(1.33038 -0.0292945 0)
(1.33876 -0.029093 0)
(1.34708 -0.0288653 0)
(1.35533 -0.0286129 0)
(1.3635 -0.0283376 0)
(1.37158 -0.0280414 0)
(1.37958 -0.0277259 0)
(1.38748 -0.0273932 0)
(1.39528 -0.027045 0)
(1.40298 -0.0266834 0)
(1.41057 -0.0263101 0)
(1.41805 -0.025927 0)
(1.42541 -0.0255359 0)
(1.43266 -0.0251386 0)
(1.4398 -0.0247368 0)
(1.44682 -0.0243321 0)
(1.45372 -0.0239261 0)
(1.4605 -0.0235202 0)
(1.46716 -0.0231159 0)
(1.47371 -0.0227144 0)
(1.48014 -0.0223169 0)
(1.48646 -0.0219246 0)
(1.49266 -0.0215384 0)
(1.49876 -0.0211593 0)
(1.50475 -0.0207881 0)
(1.51063 -0.0204255 0)
(1.5164 -0.020072 0)
(1.52208 -0.0197283 0)
(1.52766 -0.0193946 0)
(1.53315 -0.0190715 0)
(1.53854 -0.0187589 0)
(1.54385 -0.0184572 0)
(1.54907 -0.0181663 0)
(1.55421 -0.0178863 0)
(1.55927 -0.017617 0)
(1.56426 -0.0173582 0)
(1.56917 -0.0171098 0)
(1.57401 -0.0168713 0)
(1.57879 -0.0166425 0)
(1.58351 -0.0164228 0)
(1.58816 -0.0162119 0)
(1.59276 -0.0160092 0)
(1.5973 -0.0158141 0)
(1.60178 -0.0156261 0)
(1.60622 -0.0154444 0)
(1.6106 -0.0152684 0)
(1.61494 -0.0150975 0)
(1.61922 -0.0149309 0)
(1.62346 -0.0147678 0)
(1.62766 -0.0146077 0)
(1.63181 -0.0144496 0)
(1.63592 -0.0142928 0)
(1.63998 -0.0141367 0)
(1.644 -0.0139804 0)
(1.64798 -0.0138232 0)
(1.65191 -0.0136645 0)
(1.6558 -0.0135034 0)
(1.65964 -0.0133392 0)
(1.66343 -0.0131714 0)
(1.66718 -0.0129993 0)
(1.67088 -0.0128221 0)
(1.67452 -0.0126394 0)
(1.67812 -0.0124505 0)
(1.68166 -0.0122549 0)
(1.68514 -0.0120521 0)
(1.68857 -0.0118416 0)
(1.69193 -0.011623 0)
(1.69524 -0.0113958 0)
(1.69847 -0.0111596 0)
(1.70164 -0.0109143 0)
(1.70473 -0.0106593 0)
(1.70776 -0.0103945 0)
(1.7107 -0.0101196 0)
(1.71357 -0.00983444 0)
(1.71635 -0.00953884 0)
(1.71905 -0.00923267 0)
(1.72166 -0.00891583 0)
(1.72417 -0.00858825 0)
(1.72659 -0.00824989 0)
(1.72891 -0.00790076 0)
(1.73114 -0.00754086 0)
(1.73325 -0.00717025 0)
(1.73526 -0.006789 0)
(1.73716 -0.0063972 0)
(1.73894 -0.00599496 0)
(1.74061 -0.00558243 0)
(1.74216 -0.00515976 0)
(1.74359 -0.00472713 0)
(1.74489 -0.00428471 0)
(1.74606 -0.00383272 0)
(1.7471 -0.00337137 0)
(1.74801 -0.00290088 0)
(1.74878 -0.00242149 0)
(1.74941 -0.00193345 0)
(1.7499 -0.00143701 0)
(1.75025 -0.000932429 0)
(1.75046 -0.000419974 0)
(1.75051 0.000100083 0)
(1.75042 0.000627469 0)
(1.75017 0.00116191 0)
(1.74977 0.00170311 0)
(1.74921 0.00225079 0)
(1.74849 0.00280467 0)
(1.74762 0.00336445 0)
(1.74658 0.00392984 0)
(1.74538 0.00450054 0)
(1.74402 0.00507625 0)
(1.74249 0.00565667 0)
(1.74079 0.00624149 0)
(1.73893 0.0068304 0)
(1.7369 0.00742308 0)
(1.73469 0.00801921 0)
(1.73232 0.00861846 0)
(1.72977 0.00922049 0)
(1.72705 0.00982494 0)
(1.72416 0.0104315 0)
(1.72109 0.0110397 0)
(1.71784 0.0116493 0)
(1.71443 0.0122598 0)
(1.71083 0.0128709 0)
(1.70707 0.013482 0)
(1.70312 0.0140929 0)
(1.699 0.014703 0)
(1.69471 0.0153118 0)
(1.69024 0.015919 0)
(1.6856 0.0165239 0)
(1.68079 0.0171261 0)
(1.6758 0.017725 0)
(1.67064 0.0183202 0)
(1.66531 0.0189109 0)
(1.65981 0.0194967 0)
(1.65415 0.020077 0)
(1.64831 0.020651 0)
(1.64232 0.0212182 0)
(1.63616 0.021778 0)
(1.62984 0.0223297 0)
(1.62337 0.0228726 0)
(1.61674 0.023406 0)
(1.60996 0.0239294 0)
(1.60303 0.0244419 0)
(1.59595 0.0249429 0)
(1.58873 0.0254319 0)
(1.58138 0.0259079 0)
(1.57389 0.0263705 0)
(1.56626 0.026819 0)
(1.55851 0.0272527 0)
(1.55064 0.0276709 0)
(1.54265 0.0280732 0)
(1.53454 0.028459 0)
(1.52633 0.0288276 0)
(1.51801 0.0291786 0)
(1.5096 0.0295114 0)
(1.50109 0.0298258 0)
(1.4925 0.0301212 0)
(1.48382 0.0303972 0)
(1.47506 0.0306537 0)
(1.46624 0.0308902 0)
(1.45735 0.0311066 0)
(1.4484 0.0313027 0)
(1.4394 0.0314784 0)
(1.43035 0.0316336 0)
(1.42126 0.0317683 0)
(1.41213 0.0318825 0)
(1.40297 0.0319764 0)
(1.39379 0.03205 0)
(1.3846 0.0321035 0)
(1.37539 0.0321373 0)
(1.36617 0.0321515 0)
(1.35695 0.0321465 0)
(1.34774 0.0321228 0)
(1.33854 0.0320806 0)
(1.32935 0.0320205 0)
(1.32018 0.0319429 0)
(1.31104 0.0318484 0)
(1.30193 0.0317375 0)
(1.29285 0.0316108 0)
(1.28381 0.0314689 0)
(1.27482 0.0313123 0)
(1.26587 0.0311418 0)
(1.25698 0.030958 0)
(1.24813 0.0307615 0)
(1.23935 0.0305529 0)
(1.23063 0.0303328 0)
(1.22198 0.030102 0)
(1.21339 0.029861 0)
(1.20489 0.0296106 0)
(1.19642 0.0293509 0)
(1.18813 0.0290839 0)
(1.17967 0.0288059 0)
(1.17185 0.02853 0)
(1.16282 0.0282215 0)
(1.1568 0.0279791 0)
(1.14381 0.0275325 0)
(1.00001 -0.000360692 0)
(1.00017 -0.00108242 0)
(1.00048 -0.00180515 0)
(1.00096 -0.00252957 0)
(1.0016 -0.0032564 0)
(1.0024 -0.0039863 0)
(1.00336 -0.00471993 0)
(1.00448 -0.00545789 0)
(1.00577 -0.00620078 0)
(1.00723 -0.00694913 0)
(1.00885 -0.00770343 0)
(1.01063 -0.00846414 0)
(1.01259 -0.00923165 0)
(1.01472 -0.0100063 0)
(1.01702 -0.0107883 0)
(1.0195 -0.0115778 0)
(1.02215 -0.0123749 0)
(1.02498 -0.0131797 0)
(1.02799 -0.0139921 0)
(1.03118 -0.0148117 0)
(1.03456 -0.0156384 0)
(1.03812 -0.0164717 0)
(1.04187 -0.0173111 0)
(1.04581 -0.0181559 0)
(1.04994 -0.0190053 0)
(1.05425 -0.0198583 0)
(1.05876 -0.020714 0)
(1.06347 -0.0215711 0)
(1.06836 -0.0224283 0)
(1.07345 -0.023284 0)
(1.07873 -0.0241368 0)
(1.0842 -0.0249848 0)
(1.08987 -0.0258262 0)
(1.09572 -0.026659 0)
(1.10176 -0.0274812 0)
(1.10799 -0.0282906 0)
(1.1144 -0.0290848 0)
(1.12098 -0.0298617 0)
(1.12774 -0.0306187 0)
(1.13467 -0.0313536 0)
(1.14177 -0.0320639 0)
(1.14902 -0.0327473 0)
(1.15643 -0.0334013 0)
(1.16398 -0.0340237 0)
(1.17167 -0.0346123 0)
(1.17949 -0.035165 0)
(1.18743 -0.0356798 0)
(1.19548 -0.0361549 0)
(1.20364 -0.0365887 0)
(1.21189 -0.0369797 0)
(1.22023 -0.0373268 0)
(1.22864 -0.0376289 0)
(1.23711 -0.0378852 0)
(1.24563 -0.0380953 0)
(1.2542 -0.0382589 0)
(1.2628 -0.038376 0)
(1.27141 -0.0384468 0)
(1.28004 -0.0384719 0)
(1.28867 -0.038452 0)
(1.29728 -0.0383882 0)
(1.30588 -0.0382815 0)
(1.31444 -0.0381334 0)
(1.32297 -0.0379456 0)
(1.33144 -0.0377198 0)
(1.33986 -0.037458 0)
(1.34821 -0.0371622 0)
(1.35649 -0.0368347 0)
(1.36469 -0.0364777 0)
(1.37281 -0.0360935 0)
(1.38083 -0.0356847 0)
(1.38875 -0.0352535 0)
(1.39658 -0.0348026 0)
(1.40429 -0.0343343 0)
(1.4119 -0.0338511 0)
(1.41939 -0.0333554 0)
(1.42677 -0.0328495 0)
(1.43403 -0.0323357 0)
(1.44118 -0.0318162 0)
(1.4482 -0.0312931 0)
(1.45511 -0.0307684 0)
(1.46189 -0.030244 0)
(1.46856 -0.0297218 0)
(1.4751 -0.0292034 0)
(1.48153 -0.0286904 0)
(1.48785 -0.0281842 0)
(1.49405 -0.027686 0)
(1.50014 -0.0271971 0)
(1.50612 -0.0267185 0)
(1.51199 -0.0262511 0)
(1.51776 -0.0257957 0)
(1.52343 -0.025353 0)
(1.529 -0.0249234 0)
(1.53448 -0.0245073 0)
(1.53987 -0.0241052 0)
(1.54516 -0.0237171 0)
(1.55038 -0.023343 0)
(1.55551 -0.0229831 0)
(1.56056 -0.0226371 0)
(1.56554 -0.0223047 0)
(1.57044 -0.0219857 0)
(1.57528 -0.0216797 0)
(1.58005 -0.0213862 0)
(1.58476 -0.0211045 0)
(1.5894 -0.0208342 0)
(1.59399 -0.0205745 0)
(1.59853 -0.0203246 0)
(1.60301 -0.0200839 0)
(1.60744 -0.0198514 0)
(1.61182 -0.0196263 0)
(1.61615 -0.0194077 0)
(1.62044 -0.0191946 0)
(1.62468 -0.0189862 0)
(1.62887 -0.0187815 0)
(1.63302 -0.0185795 0)
(1.63713 -0.0183792 0)
(1.6412 -0.0181796 0)
(1.64522 -0.0179799 0)
(1.6492 -0.017779 0)
(1.65314 -0.0175761 0)
(1.65703 -0.0173701 0)
(1.66088 -0.0171602 0)
(1.66468 -0.0169455 0)
(1.66843 -0.0167252 0)
(1.67214 -0.0164984 0)
(1.67579 -0.0162644 0)
(1.6794 -0.0160224 0)
(1.68295 -0.0157717 0)
(1.68644 -0.0155117 0)
(1.68988 -0.0152418 0)
(1.69326 -0.0149613 0)
(1.69657 -0.0146698 0)
(1.69982 -0.0143667 0)
(1.703 -0.0140516 0)
(1.70611 -0.0137242 0)
(1.70914 -0.0133841 0)
(1.7121 -0.0130309 0)
(1.71498 -0.0126645 0)
(1.71778 -0.0122845 0)
(1.72049 -0.011891 0)
(1.72311 -0.0114836 0)
(1.72564 -0.0110624 0)
(1.72807 -0.0106273 0)
(1.73041 -0.0101783 0)
(1.73264 -0.00971534 0)
(1.73477 -0.0092386 0)
(1.73679 -0.00874814 0)
(1.7387 -0.00824407 0)
(1.7405 -0.00772656 0)
(1.74218 -0.00719577 0)
(1.74374 -0.00665191 0)
(1.74518 -0.0060952 0)
(1.74649 -0.0055259 0)
(1.74767 -0.00494426 0)
(1.74873 -0.00435056 0)
(1.74964 -0.00374509 0)
(1.75043 -0.00312817 0)
(1.75107 -0.0025001 0)
(1.75157 -0.00186122 0)
(1.75193 -0.00121186 0)
(1.75214 -0.000552365 0)
(1.7522 0.000116915 0)
(1.75212 0.000795627 0)
(1.75188 0.00148341 0)
(1.75148 0.0021799 0)
(1.75093 0.00288473 0)
(1.75022 0.00359753 0)
(1.74935 0.00431793 0)
(1.74832 0.00504554 0)
(1.74712 0.00578 0)
(1.74576 0.0065209 0)
(1.74424 0.00726787 0)
(1.74255 0.0080205 0)
(1.74068 0.0087784 0)
(1.73865 0.00954116 0)
(1.73645 0.0103084 0)
(1.73408 0.0110796 0)
(1.73153 0.0118544 0)
(1.72881 0.0126324 0)
(1.72592 0.013413 0)
(1.72285 0.0141959 0)
(1.7196 0.0149805 0)
(1.71618 0.0157663 0)
(1.71259 0.0165529 0)
(1.70881 0.0173396 0)
(1.70487 0.0181259 0)
(1.70074 0.0189113 0)
(1.69645 0.0196951 0)
(1.69197 0.0204768 0)
(1.68732 0.0212557 0)
(1.6825 0.022031 0)
(1.6775 0.0228022 0)
(1.67234 0.0235686 0)
(1.667 0.0243293 0)
(1.66149 0.0250837 0)
(1.65581 0.0258309 0)
(1.64997 0.0265702 0)
(1.64396 0.0273008 0)
(1.63779 0.0280218 0)
(1.63146 0.0287324 0)
(1.62497 0.0294317 0)
(1.61832 0.0301189 0)
(1.61152 0.0307931 0)
(1.60457 0.0314534 0)
(1.59748 0.0320989 0)
(1.59024 0.0327288 0)
(1.58286 0.0333422 0)
(1.57535 0.0339382 0)
(1.5677 0.034516 0)
(1.55993 0.0350748 0)
(1.55203 0.0356137 0)
(1.54402 0.036132 0)
(1.53589 0.036629 0)
(1.52765 0.0371039 0)
(1.5193 0.0375561 0)
(1.51086 0.037985 0)
(1.50232 0.0383899 0)
(1.4937 0.0387704 0)
(1.48499 0.039126 0)
(1.47621 0.0394562 0)
(1.46736 0.0397607 0)
(1.45844 0.0400393 0)
(1.44946 0.0402917 0)
(1.44042 0.0405178 0)
(1.43134 0.0407174 0)
(1.42222 0.0408906 0)
(1.41306 0.0410373 0)
(1.40388 0.0411578 0)
(1.39467 0.0412521 0)
(1.38544 0.0413205 0)
(1.3762 0.0413635 0)
(1.36695 0.0413812 0)
(1.35771 0.0413741 0)
(1.34847 0.0413428 0)
(1.33924 0.0412878 0)
(1.33002 0.0412096 0)
(1.32083 0.041109 0)
(1.31166 0.0409865 0)
(1.30252 0.0408429 0)
(1.29342 0.0406789 0)
(1.28436 0.0404953 0)
(1.27534 0.040293 0)
(1.26637 0.0400726 0)
(1.25745 0.0398351 0)
(1.24859 0.0395812 0)
(1.23979 0.0393118 0)