/*--------------------------------*- C++ -*----------------------------------*\
| =========                 |                                                 |
| \\      /  F ield         | OpenFOAM: The Open Source CFD Toolbox           |
|  \\    /   O peration     | Version:  2306                                  |
|   \\  /    A nd           | Website:  www.openfoam.com                      |
|    \\/     M anipulation  |                                                 |
\*---------------------------------------------------------------------------*/
FoamFile
{
    version     2.0;
    format      ascii;
    arch        "LSB;label=32;scalar=64";
    class       volScalarField;
    location    "0.01";
    object      G;
}
// * * * * * * * * * * * * * * * * * * * * * * * * * * * * * * * * * * * * * //

dimensions      [1 0 -3 0 0 0 0];

internalField   nonuniform List<scalar> 
100
(
7487.65
9916.04
11240.1
11645.1
11836.8
11836.7
11645
11240.3
9916.02
7487.8
9916.04
13316.7
14939.2
15454
15690.4
15690.3
15454
14939.4
13316.5
9916.02
11240.1
14939.2
16762.3
17368.2
17641.4
17641.3
17368.3
16762.8
14939.4
11240.3
11645.1
15454
17368.2
18023.7
18318.5
18318.3
18023.6
17368.3
15454
11645
11836.8
15690.4
17641.4
18318.5
18623.1
18623
18318.3
17641.3
15690.3
11836.7
11836.7
15690.3
17641.3
18318.3
18623
18623.1
18318.5
17641.4
15690.4
11836.8
11645
15454
17368.3
18023.6
18318.3
18318.5
18023.7
17368.2
15454
11645.1
11240.3
14939.4
16762.8
17368.3
17641.3
17641.4
17368.2
16762.3
14939.2
11240.1
9916.02
13316.5
14939.4
15454
15690.3
15690.4
15454
14939.2
13316.7
9916.04
7487.8
9916.02
11240.3
11645
11836.7
11836.8
11645.1
11240.1
9916.04
7487.65
)
;

boundaryField
{
    fixedWall_Bottom
    {
        type            calculated;
        value           nonuniform List<scalar> 10(6382.6 8409.55 9451.8 9831.49 10003.6 10003.4 9831.43 9452.06 8409.55 6382.74);
    }
    fixedWall_Right
    {
        type            calculated;
        value           nonuniform List<scalar> 10(6382.74 8409.55 9452.06 9831.43 10003.4 10003.6 9831.49 9451.8 8409.55 6382.6);
    }
    fixedWall_Left
    {
        type            calculated;
        value           nonuniform List<scalar> 10(6382.6 8409.55 9451.8 9831.49 10003.6 10003.4 9831.43 9452.06 8409.55 6382.74);
    }
    fixedWall_Top
    {
        type            calculated;
        value           nonuniform List<scalar> 10(6382.74 8409.55 9452.06 9831.43 10003.4 10003.6 9831.49 9451.8 8409.55 6382.6);
    }
    frontAndBack
    {
        type            empty;
    }
}


// ************************************************************************* //
