/*--------------------------------*- C++ -*----------------------------------*\
| =========                 |                                                 |
| \\      /  F ield         | OpenFOAM: The Open Source CFD Toolbox           |
|  \\    /   O peration     | Version:  2306                                  |
|   \\  /    A nd           | Website:  www.openfoam.com                      |
|    \\/     M anipulation  |                                                 |
\*---------------------------------------------------------------------------*/
FoamFile
{
    version     2.0;
    format      ascii;
    arch        "LSB;label=32;scalar=64";
    class       volScalarField;
    location    "0.01";
    object      ILambda_27_0;
}
// * * * * * * * * * * * * * * * * * * * * * * * * * * * * * * * * * * * * * //

dimensions      [1 0 -3 0 0 0 0];

internalField   nonuniform List<scalar> 
100
(
189.432
189.481
189.616
190.018
191.176
194.439
203.464
228.027
168.942
45.5561
918.287
918.527
919.023
919.996
921.651
923.565
922.092
901.084
676.249
123.104
1331.04
1331.03
1330.73
1329.35
1324.56
1310.06
1270.09
1168.25
805.201
148.816
1492.55
1491.48
1488.85
1482.32
1466.8
1431.57
1355.56
1201.05
784.063
122.875
1581.45
1578.7
1572.9
1560.41
1534.47
1482.65
1383.68
1204.19
771.445
116.543
1629.3
1624.67
1615.71
1598.06
1564.35
1502.1
1391.32
1202.04
765.974
115.178
1654.6
1648.25
1636.71
1615.32
1576.69
1508.79
1392.73
1200.17
763.91
114.961
1667.61
1659.95
1646.61
1622.84
1581.45
1510.82
1392.65
1199.16
763.197
114.965
1674.07
1665.54
1651.08
1625.97
1583.16
1511.32
1392.39
1198.71
762.968
114.99
1677.28
1668.21
1653.1
1627.26
1583.75
1511.39
1392.21
1198.51
762.895
115.004
)
;

boundaryField
{
    fixedWall_Bottom
    {
        type            greyDiffusiveRadiation;
        refValue        uniform 0;
        refGradient     uniform 0;
        valueFraction   uniform 1;
        source          uniform 0;
        value           uniform 0;
    }
    fixedWall_Right
    {
        type            greyDiffusiveRadiation;
        refValue        uniform 0;
        refGradient     uniform 0;
        valueFraction   uniform 1;
        source          uniform 0;
        value           uniform 0;
    }
    fixedWall_Left
    {
        type            greyDiffusiveRadiation;
        refValue        uniform 0;
        refGradient     uniform 0;
        valueFraction   uniform 0;
        source          uniform 0;
        value           nonuniform List<scalar> 10(189.432 918.287 1331.04 1492.55 1581.45 1629.3 1654.6 1667.61 1674.07 1677.28);
    }
    fixedWall_Top
    {
        type            greyDiffusiveRadiation;
        refValue        uniform 0;
        refGradient     uniform 0;
        valueFraction   uniform 0;
        source          uniform 0;
        value           nonuniform List<scalar> 10(1677.28 1668.21 1653.1 1627.26 1583.75 1511.39 1392.21 1198.51 762.895 115.004);
    }
    frontAndBack
    {
        type            empty;
    }
}


// ************************************************************************* //
