/*--------------------------------*- C++ -*----------------------------------*\
| =========                 |                                                 |
| \\      /  F ield         | OpenFOAM: The Open Source CFD Toolbox           |
|  \\    /   O peration     | Version:  2306                                  |
|   \\  /    A nd           | Website:  www.openfoam.com                      |
|    \\/     M anipulation  |                                                 |
\*---------------------------------------------------------------------------*/
FoamFile
{
    version     2.0;
    format      ascii;
    arch        "LSB;label=32;scalar=64";
    class       volScalarField;
    location    "0.01";
    object      ILambda_1_0;
}
// * * * * * * * * * * * * * * * * * * * * * * * * * * * * * * * * * * * * * //

dimensions      [1 0 -3 0 0 0 0];

internalField   nonuniform List<scalar> 
100
(
40.6526
50.8026
49.0706
39.6225
39.9677
40.3403
40.454
40.4814
40.4874
40.4886
295.316
611.092
589.646
558.085
553.508
553.159
553.217
553.254
553.266
553.269
492.461
1028.32
1053.08
1015.29
1006.25
1004.64
1004.45
1004.45
1004.46
1004.47
529.728
1204.17
1285.49
1253.59
1242.59
1239.82
1239.26
1239.18
1239.18
1239.18
548.888
1308.48
1439.88
1420.3
1410.15
1406.78
1405.89
1405.7
1405.67
1405.67
558.689
1369.65
1539.89
1534.4
1527.13
1523.86
1522.79
1522.51
1522.44
1522.43
563.674
1405.17
1603.41
1611.02
1607.64
1605.08
1604.02
1603.68
1603.58
1603.56
566.193
1425.63
1643.12
1661.62
1662.34
1660.87
1659.99
1659.64
1659.53
1659.5
567.457
1437.34
1667.62
1694.55
1699.05
1698.84
1698.27
1697.97
1697.85
1697.81
568.183
1444.48
1683.53
1717.06
1724.98
1726.12
1725.98
1725.78
1725.68
1725.65
)
;

boundaryField
{
    fixedWall_Bottom
    {
        type            greyDiffusiveRadiation;
        refValue        uniform 0;
        refGradient     uniform 0;
        valueFraction   uniform 1;
        source          uniform 0;
        value           uniform 0;
    }
    fixedWall_Right
    {
        type            greyDiffusiveRadiation;
        refValue        uniform 0;
        refGradient     uniform 0;
        valueFraction   uniform 0;
        source          uniform 0;
        value           nonuniform List<scalar> 10(40.4886 553.269 1004.47 1239.18 1405.67 1522.43 1603.56 1659.5 1697.81 1725.65);
    }
    fixedWall_Left
    {
        type            greyDiffusiveRadiation;
        refValue        uniform 0;
        refGradient     uniform 0;
        valueFraction   uniform 1;
        source          uniform 0;
        value           uniform 0;
    }
    fixedWall_Top
    {
        type            greyDiffusiveRadiation;
        refValue        uniform 0;
        refGradient     uniform 0;
        valueFraction   uniform 0;
        source          uniform 0;
        value           nonuniform List<scalar> 10(568.183 1444.48 1683.53 1717.06 1724.98 1726.12 1725.98 1725.78 1725.68 1725.65);
    }
    frontAndBack
    {
        type            empty;
    }
}


// ************************************************************************* //
