/*--------------------------------*- C++ -*----------------------------------*\
| =========                 |                                                 |
| \\      /  F ield         | OpenFOAM: The Open Source CFD Toolbox           |
|  \\    /   O peration     | Version:  2306                                  |
|   \\  /    A nd           | Website:  www.openfoam.com                      |
|    \\/     M anipulation  |                                                 |
\*---------------------------------------------------------------------------*/
FoamFile
{
    version     2.0;
    format      ascii;
    arch        "LSB;label=32;scalar=64";
    class       volScalarField;
    location    "0.01";
    object      qr;
}
// * * * * * * * * * * * * * * * * * * * * * * * * * * * * * * * * * * * * * //

dimensions      [1 0 -3 0 0 0 0];

internalField   uniform 0;

boundaryField
{
    fixedWall_Bottom
    {
        type            calculated;
        value           nonuniform List<scalar> 10(3086.45 4063.79 4174.45 4231.39 4254.98 4255.03 4231.37 4174.6 4063.83 3086.48);
    }
    fixedWall_Right
    {
        type            calculated;
        value           nonuniform List<scalar> 10(3086.48 4063.83 4174.6 4231.37 4255.03 4254.98 4231.39 4174.45 4063.79 3086.45);
    }
    fixedWall_Left
    {
        type            calculated;
        value           nonuniform List<scalar> 10(3086.45 4063.79 4174.45 4231.39 4254.98 4255.03 4231.37 4174.6 4063.83 3086.48);
    }
    fixedWall_Top
    {
        type            calculated;
        value           nonuniform List<scalar> 10(3086.48 4063.83 4174.6 4231.37 4255.03 4254.98 4231.39 4174.45 4063.79 3086.45);
    }
    frontAndBack
    {
        type            empty;
    }
}


// ************************************************************************* //
