/*--------------------------------*- C++ -*----------------------------------*\
| =========                 |                                                 |
| \\      /  F ield         | OpenFOAM: The Open Source CFD Toolbox           |
|  \\    /   O peration     | Version:  2306                                  |
|   \\  /    A nd           | Website:  www.openfoam.com                      |
|    \\/     M anipulation  |                                                 |
\*---------------------------------------------------------------------------*/
FoamFile
{
    version     2.0;
    format      ascii;
    arch        "LSB;label=32;scalar=64";
    class       volScalarField;
    location    "0.005";
    object      G;
}
// * * * * * * * * * * * * * * * * * * * * * * * * * * * * * * * * * * * * * //

dimensions      [1 0 -3 0 0 0 0];

internalField   nonuniform List<scalar> 
100
(
7500.86
10761.9
11032.3
11205
11283.7
11283.8
11205
11032.6
10762
7500.92
10761.9
14614.3
15050.3
15287.9
15391
15391.1
15287.8
15050.6
14614.4
10762
11032.3
15050.3
15561.9
15834.9
15952.4
15952.4
15834.9
15562.2
15050.6
11032.6
11205
15287.9
15834.9
16126.4
16251.8
16251.7
16126.2
15834.9
15287.8
11205
11283.7
15391
15952.4
16251.8
16380.7
16380.7
16251.7
15952.4
15391.1
11283.8
11283.8
15391.1
15952.4
16251.7
16380.7
16380.7
16251.8
15952.4
15391
11283.7
11205
15287.8
15834.9
16126.2
16251.7
16251.8
16126.4
15834.9
15287.9
11205
11032.6
15050.6
15562.2
15834.9
15952.4
15952.4
15834.9
15561.9
15050.3
11032.3
10762
14614.4
15050.6
15287.8
15391.1
15391
15287.9
15050.3
14614.3
10761.9
7500.92
10762
11032.6
11205
11283.8
11283.7
11205
11032.3
10761.9
7500.86
)
;

boundaryField
{
    fixedWall_Bottom
    {
        type            calculated;
        value           nonuniform List<scalar> 10(5789.11 7876.81 8178.43 8340.43 8410.39 8410.46 8340.41 8178.7 7876.89 5789.15);
    }
    fixedWall_Right
    {
        type            calculated;
        value           nonuniform List<scalar> 10(5789.15 7876.89 8178.7 8340.41 8410.46 8410.39 8340.43 8178.43 7876.81 5789.11);
    }
    fixedWall_Left
    {
        type            calculated;
        value           nonuniform List<scalar> 10(5789.11 7876.81 8178.43 8340.43 8410.39 8410.46 8340.41 8178.7 7876.89 5789.15);
    }
    fixedWall_Top
    {
        type            calculated;
        value           nonuniform List<scalar> 10(5789.15 7876.89 8178.7 8340.41 8410.46 8410.39 8340.43 8178.43 7876.81 5789.11);
    }
    frontAndBack
    {
        type            empty;
    }
}


// ************************************************************************* //
