/*--------------------------------*- C++ -*----------------------------------*\
| =========                 |                                                 |
| \\      /  F ield         | OpenFOAM: The Open Source CFD Toolbox           |
|  \\    /   O peration     | Version:  2306                                  |
|   \\  /    A nd           | Website:  www.openfoam.com                      |
|    \\/     M anipulation  |                                                 |
\*---------------------------------------------------------------------------*/
FoamFile
{
    version     2.0;
    format      ascii;
    arch        "LSB;label=32;scalar=64";
    class       volScalarField;
    location    "0.005";
    object      ILambda_19_0;
}
// * * * * * * * * * * * * * * * * * * * * * * * * * * * * * * * * * * * * * //

dimensions      [1 0 -3 0 0 0 0];

internalField   nonuniform List<scalar> 
100
(
1346.7
1345.98
1344.44
1341.2
1334.53
1320.94
1293.58
1238.95
1130.43
415.403
1344.72
1344.09
1342.69
1339.68
1333.31
1320.1
1293.13
1238.82
1130.46
415.444
1341.08
1340.56
1339.36
1336.68
1330.81
1318.27
1292.07
1238.45
1130.51
415.554
1334.41
1334.02
1333.09
1330.87
1325.76
1314.34
1289.57
1237.45
1130.56
415.84
1322.26
1322.02
1321.39
1319.76
1315.72
1306.06
1283.85
1234.76
1130.44
416.592
1300.23
1300.13
1299.8
1298.83
1296.15
1289.04
1271.05
1227.82
1129.53
418.565
1260.39
1260.38
1260.31
1259.98
1258.78
1254.87
1243.12
1210.35
1125.5
423.742
1188.43
1188.47
1188.55
1188.67
1188.74
1188.12
1184.18
1167.79
1110.69
437.331
1058.59
1058.63
1058.74
1059.01
1059.7
1061.28
1064.42
1068.25
1060.67
472.996
324.387
324.402
324.451
324.606
325.104
326.696
331.786
348.064
400.121
66.6007
)
;

boundaryField
{
    fixedWall_Bottom
    {
        type            greyDiffusiveRadiation;
        refValue        uniform 0;
        refGradient     uniform 0;
        valueFraction   uniform 0;
        source          uniform 0;
        value           nonuniform List<scalar> 10(1346.7 1345.98 1344.44 1341.2 1334.53 1320.94 1293.58 1238.95 1130.43 415.403);
    }
    fixedWall_Right
    {
        type            greyDiffusiveRadiation;
        refValue        uniform 0;
        refGradient     uniform 0;
        valueFraction   uniform 1;
        source          uniform 0;
        value           uniform 0;
    }
    fixedWall_Left
    {
        type            greyDiffusiveRadiation;
        refValue        uniform 0;
        refGradient     uniform 0;
        valueFraction   uniform 0;
        source          uniform 0;
        value           nonuniform List<scalar> 10(1346.7 1344.72 1341.08 1334.41 1322.26 1300.23 1260.39 1188.43 1058.59 324.387);
    }
    fixedWall_Top
    {
        type            greyDiffusiveRadiation;
        refValue        uniform 0;
        refGradient     uniform 0;
        valueFraction   uniform 1;
        source          uniform 0;
        value           uniform 0;
    }
    frontAndBack
    {
        type            empty;
    }
}


// ************************************************************************* //
