/*--------------------------------*- C++ -*----------------------------------*\
| =========                 |                                                 |
| \\      /  F ield         | OpenFOAM: The Open Source CFD Toolbox           |
|  \\    /   O peration     | Version:  2306                                  |
|   \\  /    A nd           | Website:  www.openfoam.com                      |
|    \\/     M anipulation  |                                                 |
\*---------------------------------------------------------------------------*/
FoamFile
{
    version     2.0;
    format      ascii;
    arch        "LSB;label=32;scalar=64";
    class       volScalarField;
    location    "0.005";
    object      ILambda_4_0;
}
// * * * * * * * * * * * * * * * * * * * * * * * * * * * * * * * * * * * * * //

dimensions      [1 0 -3 0 0 0 0];

internalField   nonuniform List<scalar> 
100
(
66.6007
472.996
437.331
423.742
418.565
416.592
415.84
415.554
415.444
415.403
400.121
1060.67
1110.69
1125.5
1129.53
1130.44
1130.56
1130.51
1130.46
1130.43
348.064
1068.25
1167.79
1210.35
1227.82
1234.76
1237.45
1238.45
1238.82
1238.95
331.786
1064.42
1184.18
1243.12
1271.05
1283.85
1289.57
1292.07
1293.13
1293.58
326.696
1061.28
1188.12
1254.87
1289.04
1306.06
1314.34
1318.27
1320.1
1320.94
325.104
1059.7
1188.74
1258.78
1296.15
1315.72
1325.76
1330.81
1333.31
1334.53
324.606
1059.01
1188.67
1259.98
1298.83
1319.76
1330.87
1336.68
1339.68
1341.2
324.451
1058.74
1188.55
1260.31
1299.8
1321.39
1333.09
1339.36
1342.69
1344.44
324.402
1058.63
1188.47
1260.38
1300.13
1322.02
1334.02
1340.56
1344.09
1345.98
324.387
1058.59
1188.43
1260.39
1300.23
1322.26
1334.41
1341.08
1344.72
1346.7
)
;

boundaryField
{
    fixedWall_Bottom
    {
        type            greyDiffusiveRadiation;
        refValue        uniform 0;
        refGradient     uniform 0;
        valueFraction   uniform 1;
        source          uniform 0;
        value           uniform 0;
    }
    fixedWall_Right
    {
        type            greyDiffusiveRadiation;
        refValue        uniform 0;
        refGradient     uniform 0;
        valueFraction   uniform 0;
        source          uniform 0;
        value           nonuniform List<scalar> 10(415.403 1130.43 1238.95 1293.58 1320.94 1334.53 1341.2 1344.44 1345.98 1346.7);
    }
    fixedWall_Left
    {
        type            greyDiffusiveRadiation;
        refValue        uniform 0;
        refGradient     uniform 0;
        valueFraction   uniform 1;
        source          uniform 0;
        value           uniform 0;
    }
    fixedWall_Top
    {
        type            greyDiffusiveRadiation;
        refValue        uniform 0;
        refGradient     uniform 0;
        valueFraction   uniform 0;
        source          uniform 0;
        value           nonuniform List<scalar> 10(324.387 1058.59 1188.43 1260.39 1300.23 1322.26 1334.41 1341.08 1344.72 1346.7);
    }
    frontAndBack
    {
        type            empty;
    }
}


// ************************************************************************* //
