/*--------------------------------*- C++ -*----------------------------------*\
| =========                 |                                                 |
| \\      /  F ield         | OpenFOAM: The Open Source CFD Toolbox           |
|  \\    /   O peration     | Version:  2112                                  |
|   \\  /    A nd           | Website:  www.openfoam.com                      |
|    \\/     M anipulation  |                                                 |
\*---------------------------------------------------------------------------*/
FoamFile
{
    version     2.0;
    format      ascii;
    arch        "LSB;label=32;scalar=64";
    class       volScalarField;
    location    "0.015";
    object      G;
}
// * * * * * * * * * * * * * * * * * * * * * * * * * * * * * * * * * * * * * //

dimensions      [1 0 -3 0 0 0 0];

internalField   nonuniform List<scalar> 
900
(
84491.5
101273
106151
108019
109031
109705
110190
110554
110833
111049
111215
111341
111431
111489
111518
111518
111489
111431
111341
111215
111049
110833
110554
110190
109705
109031
108019
106151
101273
84491.5
65246.1
81993.6
91068.8
95969.2
98878.6
100790
102138
103133
103884
104456
104890
105212
105441
105587
105659
105659
105587
105441
105212
104890
104456
103884
103133
102138
100790
98878.6
95969.2
91068.8
81993.6
65246
57895.8
70384.1
79480.8
85631.4
89778.7
92666.4
94754.7
96311.4
97492.7
98393.9
99076.9
99583.5
99941.9
100171
100283
100283
100171
99941.9
99583.5
99077
98393.9
97492.7
96311.5
94754.8
92666.4
89778.8
85631.4
79480.8
70384.1
57895.8
53433.5
62914.6
70855.8
77044.5
81670.2
85102.9
87674.8
89627.5
91123.1
92269.4
93140.1
93786.3
94243.7
94536.2
94678.9
94678.9
94536.2
94243.6
93786.3
93140
92269.3
91123
89627.5
87674.9
85103
81670.4
77044.6
70855.9
62914.7
53433.7
49409.4
57052.1
63819.9
69544.6
74142.5
77739.2
80528.8
82690.3
84364.4
85654.8
86637.2
87366.7
87882.7
88212.6
88373.4
88373.4
88212.6
87882.7
87366.6
86637.1
85654.6
84364.1
82690
80528.4
77738.8
74142.2
69544.4
63819.7
57051.9
49409.2
45351.8
51791.9
57596.2
62728
67043.4
70552.4
73354.7
75569.8
77307.4
78657.2
79689.6
80458
81002.3
81350.5
81520.2
81520.2
81350.6
81002.5
80458.3
79689.8
78657.5
77307.6
75569.8
73354.4
70552
67043.1
62727.8
57596
51791.7
45351.6
41270.1
46848.2
51879
56427.7
60360.4
63642
66321.2
68474.8
70184.2
71522.8
72552
73320.7
73866.3
74215.6
74386.1
74386.1
74215.7
73866.5
73321
72552.5
71523.4
70185
68475.6
66321.8
63642.3
60360.5
56427.9
51879.2
46848.4
41270.4
37239.3
42151.4
46544.9
50557.2
54083
57073.1
59551.9
61570.1
63187.5
64463
65448.4
66186.8
66712
67048.7
67213
67212.9
67048.5
66711.8
66186.7
65448.4
64463.2
63188.1
61570.9
59552.8
57073.7
54083.3
50557.4
46545.3
42151.8
37239.7
33324.7
37690.5
41542.1
45067.8
48195.8
50873.5
53115.7
54958
56445.5
57625.3
58540.6
59228.5
59718.8
60033.4
60187
60186.9
60033
59718.1
59227.8
58539.9
57624.7
56445.3
54958.2
53116.2
50873.9
48195.9
45067.8
41542.3
37690.7
33325
29582.7
33479.5
36859.6
39944.8
42697.5
45065.7
47060.5
48710
50049
51115.7
51946.2
52572
53018.7
53305.8
53446.1
53445.9
53305.3
53017.9
52570.9
51945
51114.6
50048.2
48709.8
47060.9
45066.1
42697.7
39944.9
36859.8
33479.8
29583.1
26059.5
29540.8
32504.9
35192
37597.5
39671.4
41423.7
42878.3
44063.6
45010.9
45750.4
46308.8
46708.1
46964.9
47090.5
47090.4
46964.5
46707.4
46307.9
45749.4
45009.9
44062.9
42878.2
41424.3
39672.3
37598.4
35192.8
32505.8
29541.8
26060.7
22788.5
25893.7
28488.1
30816.6
32905.2
34706.5
36229.8
37497.1
38532.2
39361.3
40009.8
40500.2
40851.4
41077.5
41188.1
41188.1
41077.4
40851.2
40500
40009.5
39361
38532.2
37497.6
36231.2
34708.5
32907.3
30818.7
28490.4
25896.2
22791.2
19790.2
22551
24815.9
26822.8
28625.1
30178.4
31491.1
32584.1
33478.1
34195
34756.5
35181.6
35486.3
35682.7
35778.9
35779
35683.1
35486.9
35182.4
34757.3
34195.9
33479.3
32585.9
31493.8
30181.9
28628.9
26826.7
24820
22555.4
19794.8
17073.7
19517.4
21488.7
23209.1
24754.9
26085.9
27208.5
28143.1
28907.8
29521.6
30002.5
30367
30628.3
30797
30879.7
30880.1
30798
30629.9
30369
30004.8
29524
28910.6
28146.4
27212.8
26091.1
24760.6
23214.9
21494.8
19523.8
17080.3
14638.4
16790.4
18500.5
19967.3
21285.4
22419.2
23372.9
24165.9
24814.8
25335.6
25743.9
26053.3
26275.4
26418.8
26489.4
26489.9
26420.5
26278
26056.6
25747.6
25339.7
24819.2
24170.9
23378.8
22426
21292.9
19975
18508.4
16798.7
14647
12476.5
14360.9
15839.3
17083.4
18200.9
19161.4
19966.7
20635.2
21181.8
21620.4
21964.2
22224.9
22412
22533
22592.6
22593.4
22535.2
22415.5
22229.4
21969.4
21626.1
21187.8
20641.7
19974.1
19169.7
18209.9
17092.7
15848.8
14370.7
12486.7
10574.5
12214.7
13488.4
14538.4
15480.4
16289.9
16966.3
17526.4
17983.9
18350.9
18638.3
18856.3
19012.8
19114.1
19164.2
19165.1
19116.7
19017
18861.7
18644.6
18357.7
17991.2
17534.1
16974.8
16299.3
15490.6
14548.9
13499.1
12225.7
10585.8
8914.81
10333.9
11427.4
12309.4
13099.1
13778
14343.3
14810
15190.8
15495.9
15734.8
15915.9
16046
16130.2
16172
16173
16133.2
16050.7
15922
15741.9
15503.6
15198.9
14818.6
14352.6
13788.2
13110
12320.7
11438.9
10345.7
8926.89
7477.75
8698
9633.61
10371.3
11029.7
11596.4
12066.6
12453.6
12768.8
13021.2
13218.6
13368.2
13475.7
13545.4
13580.1
13581.1
13548.5
13480.7
13374.7
13226.2
13029.4
12777.5
12462.7
12076.3
11606.9
11040.9
10382.8
9645.39
8710.08
7490.1
6242.29
7285.22
8082.95
8697.38
9243.53
9714.37
10103.9
10423.3
10683
10890.6
11053
11176
11264.3
11321.6
11350.2
11351.3
11324.8
11269.3
11182.5
11060.7
10899.1
10691.9
10432.6
10113.7
9724.83
9254.66
8708.88
8094.64
7297.19
6254.51
5187.18
6073.25
6751.07
7261.02
7711.7
8101.18
8422.57
8685.05
8898.02
9068.14
9201.04
9301.62
9373.89
9420.81
9444.33
9445.38
9423.9
9378.82
9308.07
9208.62
9076.48
8906.81
8694.18
8432.11
8111.3
7722.45
7272.13
6762.36
6084.78
5198.95
4291.69
5040.09
5614.06
6035.9
6405.98
6726.74
6990.93
7205.81
7379.73
7518.5
7626.81
7708.73
7767.59
7805.84
7825.08
7826.08
7808.78
7772.29
7714.9
7634.07
7526.5
7388.17
7214.55
7000
6736.31
6416.12
6046.38
5624.7
5050.95
4302.75
3536.09
4164.61
4648.98
4996.91
5299.39
5562.41
5778.8
5954.08
6095.56
6208.31
6296.23
6362.69
6410.43
6441.48
6457.16
6458.09
6444.22
6414.81
6368.44
6303.02
6215.8
6103.48
5962.26
5787.24
5571.26
5308.75
5006.59
4658.8
4174.63
3546.28
2902.01
3426.93
3834.29
4120.51
4366.63
4581.4
4758.04
4900.53
5015.21
5106.46
5177.57
5231.28
5269.86
5294.97
5307.7
5308.56
5297.48
5273.86
5236.55
5183.8
5113.35
5022.49
4908.04
4765.74
4589.43
4375.13
4129.3
3843.2
3436.01
2911.24
2372.64
2808.69
3150.11
3385.03
3584.45
3759.07
3902.79
4018.27
4110.9
4184.51
4241.81
4285.07
4316.14
4336.38
4346.68
4347.44
4338.63
4319.73
4289.81
4247.43
4190.73
4117.49
4025.05
3909.71
3766.26
3592.03
3392.88
3158.06
2816.79
2380.87
1932.83
2293.18
2578.35
2770.78
2931.71
3073.12
3189.67
3282.99
3357.58
3416.74
3462.77
3497.5
3522.44
3538.7
3546.99
3547.67
3540.68
3525.62
3501.7
3467.76
3422.29
3363.45
3289.02
3195.79
3079.45
2938.4
2777.69
2585.35
2300.31
1940.07
1569.16
1865.46
2102.84
2260.18
2389.59
2503.62
2597.85
2673.06
2732.94
2780.35
2817.21
2845.01
2864.96
2877.97
2884.64
2885.23
2879.71
2867.73
2848.68
2821.58
2785.23
2738.11
2678.35
2603.2
2509.14
2395.41
2266.2
2108.93
1871.66
1575.45
1269.18
1511.52
1708.35
1836.75
1940.42
2031.98
2107.89
2168.33
2216.25
2254.12
2283.54
2305.71
2321.63
2332.02
2337.36
2337.86
2333.51
2324.02
2308.89
2287.33
2258.36
2220.74
2172.91
2112.51
2036.73
1945.43
1841.93
1713.59
1516.85
1274.58
1029
1227.5
1391.07
1496.29
1579.54
1653.14
1714.41
1763.09
1801.53
1831.83
1855.34
1873.06
1885.77
1894.07
1898.35
1898.79
1895.36
1887.84
1875.8
1858.63
1835.5
1805.43
1767.06
1718.39
1657.23
1583.84
1500.74
1395.57
1232.08
1033.63
778.036
929.005
1056.14
1136.84
1199.11
1254.28
1300.53
1337.28
1366.18
1388.91
1406.55
1419.84
1429.38
1435.61
1438.83
1439.18
1436.62
1431.01
1422
1409.15
1391.82
1369.27
1340.41
1303.67
1257.49
1202.5
1140.33
1059.68
932.604
781.687
)
;

boundaryField
{
    fixedWall_Bottom
    {
        type            calculated;
        value           uniform 113408;
    }
    fixedWall_Right
    {
        type            calculated;
        value           nonuniform List<scalar> 
30
(
56137.8
53661.2
51212.1
48646.7
45637.6
42246.7
38651.2
34994.5
31380.6
27890.3
24584.6
21505.4
18678.1
16114.7
13816.5
11776.5
9982.3
8417.22
7062.41
5897.85
4903.34
4059.21
3346.79
2748.74
2249.22
1833.97
1490.35
1206.7
979.298
741.966
)
;
    }
    fixedWall_Left
    {
        type            calculated;
        value           nonuniform List<scalar> 
30
(
56137.8
53661.2
51212.1
48646.5
45637.8
42246.9
38650.9
34994.1
31380.4
27889.9
24583.4
21502.7
18673.5
16108.1
13807.9
11766.4
9970.94
8405.14
7050.06
5885.63
4891.58
4048.15
3336.6
2739.52
2241
1826.73
1484.06
1201.3
974.662
738.315
)
;
    }
    fixedWall_Top
    {
        type            calculated;
        value           nonuniform List<scalar> 
30
(
778.036
929.005
1056.14
1136.84
1199.11
1254.28
1300.53
1337.28
1366.18
1388.91
1406.55
1419.84
1429.38
1435.61
1438.83
1439.18
1436.62
1431.01
1422
1409.15
1391.82
1369.27
1340.41
1303.67
1257.49
1202.5
1140.33
1059.68
932.604
781.687
)
;
    }
    frontAndBack
    {
        type            empty;
    }
}


// ************************************************************************* //
