/*--------------------------------*- C++ -*----------------------------------*\
| =========                 |                                                 |
| \\      /  F ield         | OpenFOAM: The Open Source CFD Toolbox           |
|  \\    /   O peration     | Version:  2112                                  |
|   \\  /    A nd           | Website:  www.openfoam.com                      |
|    \\/     M anipulation  |                                                 |
\*---------------------------------------------------------------------------*/
FoamFile
{
    version     2.0;
    format      ascii;
    arch        "LSB;label=32;scalar=64";
    class       volScalarField;
    location    "0.015";
    object      qin;
}
// * * * * * * * * * * * * * * * * * * * * * * * * * * * * * * * * * * * * * //

dimensions      [1 0 -3 0 0 0 0];

internalField   uniform 0;

boundaryField
{
    fixedWall_Bottom
    {
        type            calculated;
        value           uniform 0;
    }
    fixedWall_Right
    {
        type            calculated;
        value           nonuniform List<scalar> 
30
(
27789.1
25652.1
23420.2
20913.1
18169.8
15473.3
12995.6
10792.5
8876.02
7238.97
5861.3
4715.95
3773.34
3004.23
2381.3
1879.99
1478.82
1159.41
906.211
706.315
549.076
425.803
329.455
254.363
195.992
150.729
115.712
88.6577
68.0968
48.9666
)
;
    }
    fixedWall_Left
    {
        type            calculated;
        value           nonuniform List<scalar> 
30
(
27789.1
25652.2
23420.1
20913.2
18170
15473.1
12995.2
10792.5
8876.26
7238.61
5859.65
4712.73
3768.64
2998.32
2374.56
1872.82
1471.58
1152.37
899.59
700.254
543.651
421.038
325.339
250.859
193.045
148.278
113.694
87.0115
66.755
47.9621
)
;
    }
    fixedWall_Top
    {
        type            calculated;
        value           nonuniform List<scalar> 
30
(
335.484
405.087
461.684
497.362
524.359
547.486
566.387
581.104
592.439
601.159
607.791
612.71
616.203
618.481
619.679
619.862
619.019
617.075
613.877
609.201
602.742
594.111
582.776
568.006
549.089
526.028
499.086
463.413
406.834
337.245
)
;
    }
    frontAndBack
    {
        type            empty;
    }
}


// ************************************************************************* //
