/*--------------------------------*- C++ -*----------------------------------*\
| =========                 |                                                 |
| \\      /  F ield         | OpenFOAM: The Open Source CFD Toolbox           |
|  \\    /   O peration     | Version:  2306                                  |
|   \\  /    A nd           | Website:  www.openfoam.com                      |
|    \\/     M anipulation  |                                                 |
\*---------------------------------------------------------------------------*/
FoamFile
{
    version     2.0;
    format      ascii;
    arch        "LSB;label=32;scalar=64";
    class       volScalarField;
    location    "10";
    object      Keff;
}
// * * * * * * * * * * * * * * * * * * * * * * * * * * * * * * * * * * * * * //

dimensions      [1 1 -3 -1 0 0 0];

internalField   nonuniform List<scalar> 
32768
(
67.2037
67.2017
67.1976
67.1915
67.1832
67.1728
67.1603
67.1458
67.1291
67.1103
67.0893
67.0662
67.0409
67.0134
66.9836
66.9516
66.9174
66.8808
66.842
66.8008
66.7573
66.7114
66.6631
66.6124
66.5593
66.5037
66.4458
66.3853
66.3225
66.2572
66.1894
66.1192
66.0467
65.9717
65.8943
65.8147
65.7327
65.6485
65.5621
65.4736
65.383
65.2903
65.1958
65.0994
65.0013
64.9015
64.8002
64.6974
64.5932
64.4879
64.3815
64.274
64.1658
64.0567
63.9471
63.837
63.7266
63.6159
63.5052
63.3944
63.2838
63.1734
63.0635
62.9539
62.845
62.7367
62.6292
62.5225
62.4168
62.312
62.2083
62.1057
62.0042
61.904
61.805
61.7073
61.6109
61.5158
61.422
61.3296
61.2386
61.1489
61.0605
60.9735
60.8878
60.8035
60.7204
60.6386
60.5581
60.4788
60.4007
60.3238
60.2481
60.1735
60.1001
60.0277
59.9565
59.8863
59.8171
59.749
59.6819
59.6158
59.5508
59.4867
59.4236
59.3615
59.3004
59.2402
59.1812
59.1231
59.0661
59.0101
58.9552
58.9014
58.8487
58.7972
58.7469
58.6978
58.6499
58.6034
58.5582
58.5143
58.4719
58.4309
58.3914
58.3534
58.317
58.2823
58.2492
58.2179
58.1883
58.1606
58.1347
58.1107
58.0886
58.0686
58.0505
58.0346
58.0207
58.0091
57.9995
57.9923
57.9872
57.9845
57.9841
57.986
57.9903
57.997
58.0061
58.0177
58.0318
58.0483
58.0673
58.0889
58.113
58.1396
58.1688
58.2005
58.2348
58.2716
58.311
58.353
58.3975
58.4445
58.4941
58.5462
58.6008
58.6579
58.7175
58.7796
58.8441
58.9109
58.9802
59.0518
59.1257
59.2018
59.2802
59.3608
59.4435
59.5284
59.6152
59.7041
59.7948
59.8875
59.9819
60.0781
60.1759
60.2754
60.3764
60.4788
60.5826
60.6877
60.7939
60.9014
61.0098
61.1192
61.2294
61.3405
61.4522
61.5644
61.6772
61.7904
61.9039
62.0176
62.1315
62.2454
62.3592
62.4729
62.5864
62.6995
62.8123
62.9246
63.0364
63.1475
63.258
63.3677
63.4765
63.5845
63.6915
63.7975
63.9025
64.0063
64.1091
64.2106
64.3109
64.4099
64.5076
64.604
64.6991
64.7928
64.8851
64.9761
65.0656
65.1538
65.2406
65.3259
65.4099
65.4924
65.5736
65.6534
65.7319
65.809
65.8848
65.9593
66.0325
66.1045
66.1752
66.2448
66.313
66.3805
66.4461
66.5122
66.5737
66.6427
66.6906
66.7892
67.2037
67.2017
67.1976
67.1915
67.1832
67.1728
67.1604
67.1458
67.1291
67.1103
67.0894
67.0662
67.0409
67.0134
66.9837
66.9517
66.9175
66.8809
66.8421
66.8009
66.7574
66.7114
66.6631
66.6124
66.5593
66.5038
66.4458
66.3853
66.3224
66.2571
66.1893
66.119
66.0464
65.9714
65.894
65.8142
65.7322
65.6479
65.5614
65.4727
65.382
65.2893
65.1946
65.0981
64.9999
64.8999
64.7985
64.6955
64.5913
64.4858
64.3792
64.2716
64.1632
64.054
63.9443
63.834
63.7234
63.6126
63.5017
63.3909
63.2801
63.1697
63.0596
62.9499
62.8409
62.7325
62.6249
62.5182
62.4123
62.3075
62.2037
62.1011
61.9996
61.8993
61.8003
61.7025
61.6061
61.511
61.4172
61.3248
61.2338
61.1441
61.0557
60.9687
60.8831
60.7987
60.7157
60.6339
60.5534
60.4741
60.3961
60.3192
60.2435
60.169
60.0955
60.0232
59.952
59.8818
59.8126
59.7445
59.6774
59.6114
59.5463
59.4822
59.4191
59.357
59.2959
59.2357
59.1766
59.1185
59.0615
59.0055
58.9506
58.8968
58.8441
58.7925
58.7422
58.693
58.6451
58.5985
58.5533
58.5094
58.4669
58.4259
58.3863
58.3483
58.3119
58.2771
58.244
58.2126
58.183
58.1552
58.1293
58.1052
58.0831
58.063
58.045
58.029
58.0151
58.0034
57.9938
57.9865
57.9815
57.9787
57.9782
57.9801
57.9844
57.9911
58.0002
58.0118
58.0258
58.0423
58.0614
58.0829
58.107
58.1336
58.1627
58.1945
58.2287
58.2656
58.305
58.3469
58.3915
58.4385
58.4881
58.5402
58.5949
58.652
58.7116
58.7737
58.8382
58.9051
58.9744
59.046
59.1199
59.1961
59.2746
59.3552
59.438
59.5228
59.6098
59.6987
59.7895
59.8822
59.9767
60.0729
60.1709
60.2704
60.3714
60.4739
60.5778
60.683
60.7894
60.8969
61.0054
61.1149
61.2252
61.3364
61.4482
61.5606
61.6734
61.7867
61.9003
62.0142
62.1281
62.2421
62.356
62.4698
62.5834
62.6967
62.8096
62.922
63.0339
63.1451
63.2556
63.3654
63.4744
63.5824
63.6895
63.7956
63.9007
64.0046
64.1074
64.209
64.3093
64.4084
64.5062
64.6027
64.6978
64.7916
64.8839
64.9749
65.0645
65.1527
65.2395
65.3249
65.4088
65.4914
65.5726
65.6524
65.7309
65.808
65.8838
65.9583
66.0316
66.1035
66.1743
66.2438
66.3121
66.3795
66.4452
66.5113
66.5727
66.6418
66.6895
66.7881
67.2037
67.2017
67.1976
67.1915
67.1832
67.1728
67.1604
67.1459
67.1292
67.1104
67.0895
67.0664
67.0411
67.0136
66.9838
66.9519
66.9176
66.8811
66.8422
66.8011
66.7575
66.7116
66.6633
66.6126
66.5594
66.5038
66.4458
66.3852
66.3223
66.2569
66.189
66.1187
66.0459
65.9707
65.8932
65.8133
65.7311
65.6466
65.5599
65.4711
65.3802
65.2872
65.1923
65.0956
64.997
64.8969
64.7951
64.6919
64.5873
64.4815
64.3747
64.2668
64.1581
64.0486
63.9385
63.828
63.7171
63.6061
63.4949
63.3838
63.2728
63.1621
63.0517
62.9419
62.8327
62.7241
62.6163
62.5094
62.4034
62.2985
62.1946
62.0918
61.9903
61.8899
61.7908
61.693
61.5966
61.5014
61.4077
61.3152
61.2242
61.1345
61.0462
60.9592
60.8736
60.7892
60.7062
60.6245
60.544
60.4648
60.3868
60.31
60.2343
60.1598
60.0864
60.0141
59.9429
59.8728
59.8037
59.7356
59.6685
59.6024
59.5373
59.4733
59.4101
59.348
59.2869
59.2267
59.1676
59.1095
59.0524
58.9964
58.9414
58.8875
58.8348
58.7831
58.7327
58.6835
58.6355
58.5889
58.5435
58.4995
58.457
58.4158
58.3762
58.3381
58.3016
58.2668
58.2336
58.2021
58.1724
58.1445
58.1185
58.0944
58.0722
58.052
58.0339
58.0178
58.0038
57.992
57.9824
57.975
57.9699
57.9671
57.9666
57.9684
57.9727
57.9793
57.9884
57.9999
58.0139
58.0304
58.0494
58.0709
58.095
58.1216
58.1507
58.1824
58.2167
58.2535
58.293
58.3349
58.3794
58.4265
58.4761
58.5283
58.583
58.6401
58.6998
58.7619
58.8264
58.8934
58.9627
59.0344
59.1084
59.1847
59.2632
59.344
59.4268
59.5118
59.5988
59.6878
59.7788
59.8716
59.9663
60.0627
60.1607
60.2604
60.3616
60.4643
60.5683
60.6737
60.7802
60.8879
60.9966
61.1063
61.2169
61.3282
61.4402
61.5528
61.6659
61.7794
61.8932
62.0072
62.1214
62.2356
62.3498
62.4638
62.5776
62.6911
62.8042
62.9168
63.0288
63.1403
63.251
63.361
63.4701
63.5784
63.6856
63.7919
63.8971
64.0012
64.1041
64.2058
64.3063
64.4055
64.5034
64.6
64.6952
64.7891
64.8815
64.9726
65.0623
65.1505
65.2374
65.3228
65.4068
65.4895
65.5707
65.6505
65.729
65.8062
65.882
65.9565
66.0297
66.1017
66.1724
66.242
66.3102
66.3776
66.4433
66.5093
66.5707
66.6398
66.6875
66.7861
67.2037
67.2017
67.1977
67.1915
67.1832
67.1729
67.1605
67.1459
67.1293
67.1105
67.0896
67.0665
67.0412
67.0138
66.9841
66.9521
66.9179
66.8814
66.8425
66.8013
66.7578
66.7118
66.6635
66.6127
66.5595
66.5039
66.4458
66.3852
66.3221
66.2566
66.1886
66.1181
66.0452
65.9698
65.8921
65.812
65.7295
65.6448
65.5578
65.4687
65.3774
65.2841
65.1889
65.0917
64.9928
64.8922
64.7901
64.6864
64.5814
64.4752
64.3679
64.2595
64.1504
64.0405
63.93
63.819
63.7077
63.5962
63.4846
63.3731
63.2618
63.1507
63.04
62.9299
62.8203
62.7115
62.6035
62.4963
62.3901
62.285
62.1809
62.078
61.9763
61.8758
61.7766
61.6788
61.5823
61.4871
61.3933
61.3009
61.2098
61.1201
61.0318
60.9449
60.8593
60.775
60.6921
60.6104
60.53
60.4508
60.3729
60.2961
60.2206
60.1461
60.0728
60.0005
59.9294
59.8593
59.7902
59.7221
59.6551
59.589
59.524
59.4599
59.3968
59.3346
59.2735
59.2133
59.1541
59.0959
59.0388
58.9827
58.9276
58.8737
58.8208
58.7691
58.7186
58.6693
58.6212
58.5744
58.5289
58.4848
58.4421
58.4009
58.3611
58.3229
58.2862
58.2512
58.2179
58.1863
58.1565
58.1284
58.1023
58.078
58.0558
58.0355
58.0172
58.001
57.9869
57.975
57.9653
57.9579
57.9526
57.9497
57.9491
57.9509
57.9551
57.9617
57.9707
57.9821
57.9961
58.0125
58.0315
58.053
58.077
58.1036
58.1327
58.1644
58.1987
58.2355
58.2749
58.3169
58.3615
58.4086
58.4582
58.5104
58.5651
58.6223
58.682
58.7442
58.8088
58.8759
58.9453
59.0171
59.0912
59.1676
59.2463
59.3271
59.4102
59.4953
59.5825
59.6716
59.7628
59.8558
59.9506
60.0472
60.1455
60.2454
60.3469
60.4498
60.5541
60.6597
60.7665
60.8745
60.9835
61.0935
61.2043
61.3159
61.4283
61.5412
61.6546
61.7684
61.8825
61.9969
62.1114
62.2259
62.3404
62.4547
62.5688
62.6826
62.796
62.909
63.0213
63.133
63.2441
63.3543
63.4637
63.5722
63.6798
63.7863
63.8917
63.996
64.0992
64.2011
64.3018
64.4012
64.4993
64.596
64.6914
64.7854
64.878
64.9692
65.0589
65.1473
65.2342
65.3197
65.4038
65.4865
65.5678
65.6477
65.7262
65.8034
65.8792
65.9537
66.027
66.0989
66.1696
66.2392
66.3075
66.3748
66.4404
66.5065
66.5678
66.6369
66.6846
66.7831
67.2037
67.2017
67.1977
67.1915
67.1833
67.1729
67.1605
67.146
67.1294
67.1107
67.0898
67.0667
67.0415
67.0141
66.9844
66.9524
66.9182
66.8817
66.8429
66.8017
66.7582
66.7122
66.6638
66.613
66.5598
66.504
66.4458
66.3851
66.3219
66.2562
66.1881
66.1174
66.0442
65.9687
65.8906
65.8102
65.7274
65.6423
65.555
65.4654
65.3738
65.28
65.1843
65.0866
64.9872
64.8861
64.7833
64.6791
64.5736
64.4667
64.3588
64.2499
64.1401
64.0296
63.9185
63.807
63.6951
63.5831
63.4709
63.3589
63.247
63.1355
63.0244
62.9138
62.8038
62.6946
62.5863
62.4788
62.3723
62.2669
62.1626
62.0595
61.9576
61.857
61.7577
61.6598
61.5632
61.4679
61.3741
61.2817
61.1906
61.101
61.0127
60.9258
60.8403
60.7561
60.6732
60.5916
60.5113
60.4323
60.3544
60.2777
60.2022
60.1279
60.0546
59.9825
59.9114
59.8413
59.7723
59.7043
59.6373
59.5712
59.5062
59.4421
59.379
59.3168
59.2556
59.1954
59.1361
59.0779
59.0207
58.9645
58.9093
58.8552
58.8023
58.7504
58.6998
58.6503
58.6021
58.5551
58.5095
58.4652
58.4223
58.3809
58.341
58.3026
58.2658
58.2306
58.1971
58.1653
58.1353
58.1071
58.0808
58.0563
58.0339
58.0134
57.995
57.9787
57.9645
57.9524
57.9426
57.935
57.9296
57.9266
57.9259
57.9276
57.9317
57.9382
57.9471
57.9585
57.9724
57.9887
58.0076
58.0291
58.0531
58.0796
58.1087
58.1404
58.1747
58.2115
58.2509
58.2929
58.3375
58.3846
58.4343
58.4866
58.5414
58.5986
58.6584
58.7207
58.7854
58.8526
58.9221
58.9941
59.0683
59.1449
59.2237
59.3047
59.3879
59.4733
59.5607
59.6501
59.7414
59.8347
59.9298
60.0267
60.1253
60.2255
60.3272
60.4305
60.5351
60.6411
60.7483
60.8566
60.966
61.0764
61.1876
61.2996
61.4123
61.5257
61.6395
61.7538
61.8683
61.9831
62.098
62.213
62.3279
62.4427
62.5572
62.6714
62.7852
62.8986
63.0113
63.1234
63.2349
63.3455
63.4553
63.5641
63.672
63.7788
63.8846
63.9892
64.0926
64.1948
64.2958
64.3954
64.4937
64.5907
64.6863
64.7805
64.8732
64.9646
65.0545
65.143
65.2301
65.3157
65.3999
65.4826
65.564
65.6439
65.7225
65.7997
65.8755
65.9501
66.0233
66.0953
66.166
66.2355
66.3038
66.3711
66.4367
66.5027
66.564
66.633
66.6806
66.7791
67.2037
67.2017
67.1977
67.1915
67.1833
67.173
67.1606
67.1462
67.1296
67.1109
67.09
67.067
67.0418
67.0144
66.9848
66.9529
66.9187
66.8822
66.8434
66.8022
66.7586
66.7127
66.6643
66.6134
66.5601
66.5042
66.4459
66.3851
66.3217
66.2559
66.1875
66.1165
66.0431
65.9672
65.8889
65.8081
65.7249
65.6394
65.5515
65.4615
65.3693
65.2749
65.1786
65.0803
64.9802
64.8784
64.775
64.6701
64.5638
64.4562
64.3475
64.2378
64.1273
64.0161
63.9042
63.792
63.6794
63.5666
63.4538
63.3411
63.2286
63.1165
63.0048
62.8937
62.7832
62.6735
62.5647
62.4569
62.35
62.2443
62.1397
62.0364
61.9343
61.8335
61.7341
61.636
61.5393
61.444
61.3502
61.2577
61.1667
61.0771
60.9889
60.9021
60.8166
60.7325
60.6497
60.5682
60.488
60.4091
60.3313
60.2548
60.1794
60.1052
60.032
59.96
59.8889
59.819
59.75
59.6821
59.6151
59.5491
59.484
59.4199
59.3568
59.2946
59.2334
59.1731
59.1138
59.0554
58.9981
58.9418
58.8865
58.8323
58.7792
58.7272
58.6763
58.6267
58.5783
58.5311
58.4853
58.4408
58.3977
58.3561
58.3159
58.2773
58.2402
58.2048
58.1711
58.1391
58.1089
58.0805
58.0539
58.0293
58.0066
57.986
57.9674
57.9508
57.9365
57.9242
57.9142
57.9065
57.901
57.8978
57.897
57.8985
57.9025
57.9088
57.9177
57.929
57.9428
57.9591
57.9779
57.9993
58.0232
58.0497
58.0788
58.1105
58.1447
58.1816
58.221
58.263
58.3076
58.3548
58.4046
58.4569
58.5117
58.5691
58.629
58.6914
58.7562
58.8235
58.8932
58.9653
59.0397
59.1165
59.1955
59.2767
59.3602
59.4458
59.5334
59.6231
59.7148
59.8084
59.9038
60.001
60.1
60.2006
60.3027
60.4064
60.5114
60.6178
60.7255
60.8343
60.9441
61.055
61.1667
61.2793
61.3925
61.5063
61.6207
61.7355
61.8506
61.9659
62.0814
62.1969
62.3123
62.4276
62.5427
62.6574
62.7717
62.8856
62.9989
63.1115
63.2234
63.3345
63.4447
63.554
63.6623
63.7696
63.8757
63.9807
64.0845
64.1871
64.2883
64.3883
64.4869
64.5841
64.68
64.7744
64.8674
64.9589
65.049
65.1377
65.2249
65.3106
65.3949
65.4778
65.5592
65.6392
65.7179
65.7951
65.871
65.9456
66.0188
66.0908
66.1614
66.231
66.2991
66.3665
66.432
66.4979
66.5592
66.6281
66.6757
66.7741
67.2037
67.2017
67.1977
67.1916
67.1834
67.1731
67.1608
67.1463
67.1298
67.1112
67.0904
67.0674
67.0422
67.0149
66.9853
66.9534
66.9193
66.8828
66.844
66.8028
66.7593
66.7133
66.6648
66.6139
66.5605
66.5046
66.4461
66.3851
66.3216
66.2555
66.1868
66.1156
66.0419
65.9656
65.8869
65.8056
65.7219
65.6359
65.5475
65.4568
65.3639
65.2689
65.1718
65.0728
64.9719
64.8693
64.765
64.6592
64.5521
64.4436
64.334
64.2234
64.112
63.9998
63.8871
63.7739
63.6605
63.5468
63.4332
63.3197
63.2065
63.0936
62.9812
62.8695
62.7584
62.6482
62.5389
62.4305
62.3233
62.2172
62.1122
62.0086
61.9063
61.8053
61.7056
61.6074
61.5107
61.4153
61.3214
61.229
61.138
61.0484
60.9603
60.8736
60.7882
60.7042
60.6216
60.5402
60.4602
60.3813
60.3038
60.2274
60.1521
60.078
60.005
59.933
59.8621
59.7923
59.7234
59.6555
59.5886
59.5226
59.4576
59.3935
59.3303
59.2681
59.2068
59.1464
59.087
59.0286
58.9712
58.9147
58.8593
58.8049
58.7516
58.6994
58.6483
58.5985
58.5498
58.5024
58.4564
58.4116
58.3683
58.3264
58.2859
58.247
58.2097
58.1741
58.1401
58.1078
58.0773
58.0486
58.0218
57.9969
57.974
57.9531
57.9343
57.9175
57.9029
57.8905
57.8803
57.8723
57.8667
57.8633
57.8623
57.8637
57.8675
57.8738
57.8825
57.8936
57.9073
57.9236
57.9423
57.9636
57.9875
58.014
58.043
58.0747
58.1089
58.1457
58.1852
58.2272
58.2719
58.3191
58.3689
58.4213
58.4762
58.5337
58.5937
58.6562
58.7212
58.7886
58.8585
58.9308
59.0055
59.0824
59.1617
59.2432
59.3269
59.4128
59.5008
59.5908
59.6829
59.7768
59.8727
59.9703
60.0697
60.1707
60.2734
60.3775
60.4831
60.59
60.6982
60.8075
60.9179
61.0294
61.1417
61.2549
61.3687
61.4832
61.5982
61.7136
61.8293
61.9453
62.0614
62.1776
62.2937
62.4096
62.5253
62.6407
62.7556
62.8701
62.984
63.0972
63.2097
63.3213
63.4321
63.5419
63.6508
63.7585
63.8651
63.9706
64.0748
64.1778
64.2795
64.3798
64.4787
64.5763
64.6724
64.7672
64.8604
64.9522
65.0425
65.1314
65.2187
65.3046
65.3891
65.4721
65.5536
65.6337
65.7124
65.7897
65.8656
65.9402
66.0134
66.0854
66.156
66.2255
66.2937
66.3609
66.4264
66.4923
66.5535
66.6223
66.6698
66.7681
67.2037
67.2017
67.1977
67.1916
67.1835
67.1732
67.1609
67.1466
67.1301
67.1115
67.0907
67.0678
67.0427
67.0154
66.9859
66.9541
66.92
66.8836
66.8448
66.8036
66.7601
66.714
66.6656
66.6146
66.5611
66.505
66.4464
66.3853
66.3215
66.2552
66.1862
66.1147
66.0405
65.9639
65.8846
65.8029
65.7186
65.6319
65.5429
65.4515
65.3578
65.262
65.1641
65.0642
64.9624
64.8588
64.7535
64.6467
64.5384
64.4289
64.3183
64.2066
64.0941
63.9808
63.867
63.7528
63.6384
63.5238
63.4092
63.2948
63.1806
63.0669
62.9537
62.8412
62.7294
62.6186
62.5086
62.3998
62.292
62.1854
62.0801
61.9761
61.8735
61.7723
61.6725
61.5741
61.4772
61.3818
61.2879
61.1955
61.1045
61.015
60.927
60.8404
60.7551
60.6713
60.5888
60.5076
60.4277
60.3491
60.2717
60.1955
60.1204
60.0464
59.9736
59.9018
59.831
59.7612
59.6925
59.6247
59.5578
59.4919
59.4269
59.3628
59.2996
59.2373
59.176
59.1156
59.0561
58.9975
58.9399
58.8833
58.8277
58.7731
58.7196
58.6672
58.6159
58.5657
58.5168
58.4692
58.4228
58.3777
58.3341
58.2919
58.2511
58.2119
58.1743
58.1383
58.104
58.0714
58.0406
58.0116
57.9845
57.9593
57.9361
57.915
57.8958
57.8788
57.864
57.8513
57.8408
57.8326
57.8268
57.8232
57.822
57.8232
57.8269
57.833
57.8415
57.8526
57.8662
57.8823
57.9009
57.9222
57.946
57.9724
58.0014
58.033
58.0672
58.1041
58.1435
58.1856
58.2303
58.2775
58.3274
58.3799
58.4349
58.4925
58.5526
58.6153
58.6805
58.7481
58.8182
58.8907
58.9656
59.0428
59.1224
59.2042
59.2882
59.3745
59.4628
59.5532
59.6457
59.7401
59.8364
59.9345
60.0344
60.136
60.2391
60.3438
60.45
60.5575
60.6663
60.7763
60.8874
60.9996
61.1126
61.2264
61.341
61.4562
61.572
61.6881
61.8046
61.9214
62.0382
62.1551
62.272
62.3887
62.5051
62.6212
62.7369
62.8521
62.9667
63.0806
63.1937
63.3061
63.4175
63.528
63.6374
63.7457
63.8529
63.9589
64.0636
64.1671
64.2692
64.37
64.4693
64.5673
64.6638
64.7588
64.8524
64.9444
65.035
65.1241
65.2117
65.2978
65.3823
65.4655
65.5471
65.6273
65.706
65.7834
65.8593
65.9339
66.0072
66.0791
66.1498
66.2192
66.2873
66.3545
66.4199
66.4857
66.5469
66.6156
66.663
66.7611
67.2037
67.2017
67.1978
67.1917
67.1835
67.1734
67.1611
67.1468
67.1304
67.1119
67.0912
67.0684
67.0433
67.0161
66.9866
66.9549
66.9209
66.8845
66.8457
66.8046
66.761
66.715
66.6665
66.6154
66.5618
66.5057
66.4469
66.3856
66.3216
66.2549
66.1856
66.1137
66.0392
65.962
65.8822
65.7999
65.715
65.6276
65.5378
65.4455
65.351
65.2543
65.1554
65.0544
64.9515
64.8468
64.7404
64.6324
64.523
64.4122
64.3003
64.1874
64.0736
63.9592
63.8442
63.7287
63.6131
63.4973
63.3816
63.2662
63.151
63.0363
62.9222
62.8088
62.6963
62.5846
62.474
62.3645
62.2562
62.1491
62.0434
61.939
61.8361
61.7346
61.6346
61.5361
61.4391
61.3436
61.2497
61.1572
61.0663
60.9769
60.889
60.8025
60.7174
60.6338
60.5515
60.4705
60.3908
60.3124
60.2352
60.1592
60.0843
60.0105
59.9379
59.8662
59.7956
59.726
59.6574
59.5896
59.5229
59.457
59.392
59.3279
59.2648
59.2024
59.141
59.0805
59.0209
58.9622
58.9044
58.8476
58.7918
58.737
58.6832
58.6306
58.579
58.5286
58.4793
58.4313
58.3846
58.3393
58.2953
58.2527
58.2116
58.172
58.134
58.0977
58.063
58.03
57.9989
57.9695
57.9421
57.9166
57.893
57.8715
57.8521
57.8348
57.8196
57.8067
57.7959
57.7875
57.7814
57.7776
57.7762
57.7772
57.7806
57.7865
57.7949
57.8058
57.8193
57.8353
57.8538
57.875
57.8987
57.925
57.954
57.9856
58.0198
58.0566
58.0961
58.1382
58.1829
58.2302
58.2802
58.3327
58.3879
58.4456
58.5059
58.5687
58.634
58.7019
58.7722
58.845
58.9201
58.9977
59.0775
59.1597
59.2441
59.3307
59.4195
59.5104
59.6033
59.6982
59.795
59.8937
59.9941
60.0963
60.2001
60.3055
60.4123
60.5205
60.63
60.7408
60.8527
60.9655
61.0794
61.194
61.3094
61.4255
61.5421
61.6591
61.7765
61.8941
62.0118
62.1296
62.2473
62.3648
62.4821
62.5991
62.7156
62.8316
62.947
63.0617
63.1757
63.2888
63.4009
63.5121
63.6222
63.7312
63.839
63.9456
64.051
64.155
64.2576
64.3589
64.4587
64.5571
64.654
64.7494
64.8433
64.9357
65.0266
65.1159
65.2037
65.29
65.3747
65.458
65.5398
65.6201
65.6989
65.7763
65.8523
65.9269
66.0002
66.0721
66.1427
66.2121
66.2801
66.3473
66.4126
66.4783
66.5393
66.608
66.6553
66.7532
67.2037
67.2017
67.1978
67.1917
67.1837
67.1735
67.1613
67.1471
67.1308
67.1123
67.0917
67.069
67.0441
67.0169
66.9875
66.9559
66.9219
66.8856
66.8469
66.8058
66.7622
66.7162
66.6676
66.6165
66.5628
66.5066
66.4476
66.386
66.3218
66.2548
66.1852
66.1129
66.0378
65.9601
65.8797
65.7967
65.7111
65.6229
65.5322
65.4391
65.3436
65.2457
65.1457
65.0436
64.9395
64.8335
64.7258
64.6164
64.5056
64.3935
64.2802
64.1659
64.0507
63.9348
63.8184
63.7016
63.5846
63.4676
63.3506
63.2339
63.1176
63.0018
62.8867
62.7723
62.6588
62.5463
62.435
62.3248
62.2158
62.1082
62.002
61.8972
61.7939
61.6921
61.5919
61.4932
61.3961
61.3006
61.2066
61.1142
61.0234
60.9341
60.8463
60.76
60.6751
60.5917
60.5096
60.4289
60.3494
60.2713
60.1943
60.1185
60.0439
59.9704
59.8979
59.8265
59.7561
59.6866
59.6181
59.5505
59.4839
59.4181
59.3531
59.2891
59.2259
59.1635
59.102
59.0414
58.9816
58.9228
58.8648
58.8078
58.7518
58.6967
58.6427
58.5897
58.5378
58.487
58.4375
58.3891
58.342
58.2963
58.2519
58.2089
58.1674
58.1274
58.089
58.0522
58.0171
57.9838
57.9522
57.9225
57.8946
57.8687
57.8448
57.8229
57.8031
57.7855
57.77
57.7567
57.7457
57.737
57.7305
57.7265
57.7248
57.7256
57.7288
57.7346
57.7428
57.7535
57.7668
57.7826
57.8011
57.8221
57.8457
57.872
57.9009
57.9324
57.9666
58.0034
58.0429
58.085
58.1298
58.1772
58.2272
58.2799
58.3351
58.393
58.4534
58.5164
58.582
58.6501
58.7206
58.7937
58.8691
58.947
59.0272
59.1098
59.1946
59.2817
59.3709
59.4623
59.5557
59.6512
59.7486
59.8479
59.9489
60.0518
60.1563
60.2624
60.37
60.479
60.5893
60.7009
60.8136
60.9274
61.0421
61.1577
61.274
61.391
61.5085
61.6265
61.7449
61.8634
61.9822
62.1009
62.2196
62.3382
62.4564
62.5744
62.6918
62.8088
62.9251
63.0407
63.1555
63.2694
63.3824
63.4944
63.6053
63.715
63.8236
63.9309
64.0369
64.1415
64.2447
64.3466
64.4469
64.5458
64.6431
64.739
64.8333
64.926
65.0172
65.1068
65.1949
65.2814
65.3663
65.4498
65.5317
65.6121
65.691
65.7685
65.8445
65.9191
65.9924
66.0643
66.1348
66.2042
66.2721
66.3392
66.4044
66.47
66.5309
66.5994
66.6467
66.7443
67.2037
67.2018
67.1978
67.1918
67.1838
67.1737
67.1616
67.1474
67.1312
67.1128
67.0923
67.0697
67.0449
67.0179
66.9886
66.957
66.9231
66.8869
66.8483
66.8072
66.7637
66.7177
66.6691
66.6179
66.5641
66.5077
66.4486
66.3868
66.3223
66.255
66.1849
66.1122
66.0366
65.9583
65.8772
65.7935
65.7071
65.618
65.5263
65.4321
65.3355
65.2365
65.1353
65.0318
64.9263
64.8189
64.7097
64.5989
64.4865
64.3728
64.2579
64.142
64.0252
63.9078
63.7898
63.6715
63.5529
63.4344
63.3161
63.198
63.0804
62.9633
62.847
62.7316
62.6171
62.5037
62.3915
62.2805
62.1709
62.0626
61.9559
61.8506
61.747
61.6449
61.5444
61.4456
61.3484
61.2528
61.1589
61.0665
60.9758
60.8866
60.799
60.7129
60.6283
60.5451
60.4633
60.3828
60.3037
60.2258
60.1492
60.0737
59.9994
59.9261
59.8539
59.7827
59.7125
59.6432
59.5749
59.5075
59.4409
59.3752
59.3103
59.2462
59.183
59.1206
59.0591
58.9983
58.9384
58.8794
58.8213
58.764
58.7077
58.6523
58.598
58.5447
58.4924
58.4413
58.3913
58.3426
58.2951
58.2489
58.204
58.1606
58.1186
58.0782
58.0393
58.0021
57.9665
57.9327
57.9007
57.8705
57.8422
57.8159
57.7916
57.7693
57.7491
57.7311
57.7152
57.7016
57.6902
57.6811
57.6744
57.6701
57.6681
57.6687
57.6716
57.6771
57.6851
57.6957
57.7088
57.7245
57.7428
57.7637
57.7872
57.8134
57.8422
57.8737
57.9078
57.9447
57.9841
58.0263
58.0711
58.1185
58.1687
58.2214
58.2768
58.3348
58.3954
58.4586
58.5244
58.5927
58.6636
58.7369
58.8127
58.8909
58.9715
59.0545
59.1398
59.2273
59.3171
59.409
59.503
59.5991
59.6971
59.7971
59.8989
60.0025
60.1077
60.2146
60.3231
60.4329
60.5442
60.6567
60.7703
60.8851
61.0008
61.1174
61.2348
61.3528
61.4714
61.5905
61.7099
61.8296
61.9494
62.0692
62.189
62.3086
62.428
62.547
62.6655
62.7835
62.9008
63.0175
63.1332
63.2481
63.3621
63.4749
63.5867
63.6973
63.8066
63.9147
64.0214
64.1267
64.2306
64.3331
64.434
64.5334
64.6313
64.7276
64.8223
64.9154
65.007
65.0969
65.1852
65.272
65.3572
65.4408
65.5228
65.6034
65.6824
65.7599
65.836
65.9106
65.9838
66.0557
66.1262
66.1955
66.2634
66.3303
66.3954
66.4609
66.5217
66.59
66.6372
66.7345
67.2037
67.2018
67.1979
67.1919
67.1839
67.1739
67.1619
67.1478
67.1317
67.1134
67.0931
67.0706
67.0459
67.019
66.9898
66.9584
66.9246
66.8885
66.8499
66.8089
66.7655
66.7194
66.6708
66.6196
66.5658
66.5092
66.4499
66.3879
66.323
66.2554
66.185
66.1117
66.0356
65.9566
65.8748
65.7903
65.7029
65.6129
65.5202
65.4248
65.327
65.2267
65.124
65.0191
64.9121
64.8031
64.6923
64.5797
64.4656
64.3502
64.2335
64.1158
63.9972
63.878
63.7583
63.6382
63.5181
63.3979
63.278
63.1584
63.0393
62.9209
62.8033
62.6867
62.5711
62.4566
62.3435
62.2317
62.1213
62.0124
61.9051
61.7994
61.6953
61.5929
61.4922
61.3932
61.2959
61.2003
61.1064
61.0141
60.9235
60.8346
60.7472
60.6613
60.577
60.4941
60.4126
60.3325
60.2537
60.1762
60.0999
60.0247
59.9507
59.8778
59.8059
59.7349
59.665
59.596
59.5278
59.4605
59.3941
59.3285
59.2637
59.1996
59.1364
59.074
59.0123
58.9515
58.8914
58.8322
58.7738
58.7163
58.6597
58.6041
58.5494
58.4957
58.443
58.3915
58.3411
58.2918
58.2439
58.1972
58.1519
58.1079
58.0655
58.0245
57.9851
57.9474
57.9113
57.877
57.8445
57.8138
57.785
57.7582
57.7334
57.7107
57.6901
57.6716
57.6553
57.6413
57.6296
57.6202
57.6131
57.6084
57.6062
57.6064
57.6091
57.6144
57.6221
57.6325
57.6454
57.6609
57.679
57.6998
57.7232
57.7493
57.7781
57.8095
57.8436
57.8804
57.9199
57.962
58.0069
58.0544
58.1046
58.1575
58.213
58.2712
58.332
58.3954
58.4614
58.53
58.6011
58.6748
58.7509
58.8295
58.9105
58.994
59.0797
59.1678
59.2581
59.3506
59.4452
59.5419
59.6407
59.7414
59.844
59.9484
60.0545
60.1623
60.2716
60.3825
60.4947
60.6082
60.7229
60.8387
60.9555
61.0733
61.1918
61.311
61.4307
61.551
61.6716
61.7925
61.9135
62.0346
62.1556
62.2764
62.3969
62.5171
62.6368
62.7559
62.8744
62.9921
63.109
63.2249
63.3399
63.4537
63.5665
63.678
63.7882
63.8971
64.0046
64.1107
64.2154
64.3185
64.42
64.5201
64.6185
64.7153
64.8105
64.904
64.9959
65.0862
65.1749
65.2619
65.3473
65.4311
65.5133
65.594
65.6731
65.7506
65.8267
65.9014
65.9746
66.0464
66.1169
66.186
66.2538
66.3206
66.3856
66.451
66.5116
66.5798
66.6268
66.7238
67.2037
67.2018
67.1979
67.192
67.1841
67.1742
67.1622
67.1483
67.1323
67.1141
67.0939
67.0716
67.047
67.0203
66.9913
66.96
66.9263
66.8903
66.8519
66.811
66.7676
66.7216
66.673
66.6217
66.5678
66.5111
66.4516
66.3894
66.3242
66.2562
66.1853
66.1115
66.0348
65.9552
65.8726
65.7872
65.6989
65.6077
65.5139
65.4173
65.3181
65.2163
65.1121
65.0056
64.8969
64.7862
64.6735
64.5591
64.4431
64.3257
64.207
64.0873
63.9668
63.8456
63.7239
63.602
63.4799
63.358
63.2363
63.115
62.9944
62.8745
62.7555
62.6375
62.5207
62.4051
62.291
62.1782
62.0671
61.9575
61.8496
61.7433
61.6389
61.5361
61.4352
61.336
61.2387
61.1431
61.0492
60.9571
60.8667
60.7779
60.6908
60.6052
60.5212
60.4387
60.3576
60.2779
60.1995
60.1224
60.0465
59.9717
59.8981
59.8255
59.7539
59.6834
59.6137
59.5449
59.477
59.4099
59.3436
59.2781
59.2134
59.1494
59.0862
59.0237
58.962
58.901
58.8408
58.7813
58.7227
58.6649
58.608
58.552
58.4969
58.4428
58.3897
58.3377
58.2868
58.2371
58.1886
58.1414
58.0955
58.0511
58.008
57.9665
57.9266
57.8883
57.8516
57.8168
57.7837
57.7525
57.7232
57.6959
57.6706
57.6473
57.6262
57.6073
57.5906
57.5761
57.564
57.5542
57.5467
57.5417
57.5391
57.5391
57.5415
57.5464
57.554
57.5641
57.5768
57.5921
57.6101
57.6307
57.654
57.6799
57.7086
57.74
57.774
57.8108
57.8502
57.8924
57.9373
57.9849
58.0352
58.0882
58.1438
58.2022
58.2632
58.3268
58.393
58.4619
58.5333
58.6073
58.6838
58.7629
58.8443
58.9282
59.0145
59.1031
59.194
59.2871
59.3825
59.4799
59.5794
59.6809
59.7843
59.8896
59.9966
60.1054
60.2157
60.3276
60.4409
60.5555
60.6713
60.7883
60.9063
61.0253
61.145
61.2655
61.3866
61.5081
61.63
61.7522
61.8746
61.997
62.1193
62.2414
62.3633
62.4848
62.6057
62.7261
62.8458
62.9648
63.0828
63.1999
63.316
63.4309
63.5447
63.6572
63.7684
63.8782
63.9867
64.0936
64.199
64.3029
64.4051
64.5058
64.6048
64.7022
64.7979
64.8919
64.9842
65.0749
65.1638
65.2511
65.3368
65.4208
65.5031
65.5839
65.6631
65.7408
65.8169
65.8915
65.9647
66.0365
66.1068
66.1759
66.2436
66.3103
66.3751
66.4403
66.5007
66.5687
66.6155
66.7122
67.2037
67.2018
67.198
67.1921
67.1843
67.1745
67.1626
67.1488
67.1329
67.115
67.0949
67.0727
67.0483
67.0218
66.9929
66.9618
66.9283
66.8925
66.8542
66.8134
66.7701
66.7241
66.6756
66.6243
66.5703
66.5135
66.4539
66.3913
66.3259
66.2575
66.1862
66.1118
66.0344
65.9541
65.8707
65.7843
65.6949
65.6027
65.5075
65.4096
65.3089
65.2055
65.0997
64.9914
64.8808
64.7681
64.6534
64.537
64.4188
64.2993
64.1785
64.0566
63.9339
63.8105
63.6867
63.5626
63.4385
63.3146
63.191
63.0679
62.9455
62.824
62.7034
62.5841
62.4659
62.3492
62.2339
62.1202
62.0082
61.8978
61.7893
61.6825
61.5776
61.4746
61.3734
61.2741
61.1767
61.0811
60.9874
60.8954
60.8052
60.7168
60.63
60.5448
60.4612
60.3791
60.2984
60.2192
60.1412
60.0646
59.9891
59.9148
59.8416
59.7695
59.6983
59.6281
59.5588
59.4903
59.4227
59.3558
59.2897
59.2243
59.1597
59.0958
59.0325
58.97
58.9082
58.847
58.7867
58.727
58.6681
58.61
58.5528
58.4964
58.4409
58.3863
58.3328
58.2803
58.2288
58.1786
58.1295
58.0817
58.0353
57.9902
57.9466
57.9044
57.8639
57.8249
57.7877
57.7522
57.7185
57.6867
57.6569
57.629
57.6031
57.5794
57.5577
57.5383
57.5211
57.5062
57.4936
57.4833
57.4755
57.4701
57.4672
57.4667
57.4688
57.4735
57.4807
57.4906
57.5031
57.5182
57.536
57.5564
57.5796
57.6054
57.634
57.6652
57.6992
57.736
57.7754
57.8176
57.8625
57.9102
57.9606
58.0137
58.0695
58.128
58.1891
58.253
58.3195
58.3887
58.4604
58.5348
58.6117
58.6911
58.773
58.8574
58.9442
59.0334
59.125
59.2188
59.3148
59.413
59.5133
59.6157
59.72
59.8262
59.9342
60.044
60.1554
60.2684
60.3828
60.4987
60.6157
60.734
60.8533
60.9736
61.0947
61.2165
61.339
61.4619
61.5853
61.7089
61.8327
61.9565
62.0803
62.2038
62.3271
62.45
62.5724
62.6941
62.8152
62.9354
63.0548
63.1731
63.2904
63.4066
63.5215
63.6351
63.7473
63.8582
63.9675
64.0754
64.1816
64.2863
64.3893
64.4907
64.5903
64.6883
64.7845
64.879
64.9718
65.0629
65.1522
65.2398
65.3257
65.4099
65.4924
65.5733
65.6526
65.7303
65.8065
65.8811
65.9542
66.0259
66.0962
66.1651
66.2327
66.2992
66.3638
66.4288
66.4891
66.5568
66.6035
66.6998
67.2037
67.2018
67.198
67.1923
67.1845
67.1748
67.1631
67.1494
67.1337
67.1159
67.096
67.074
67.0498
67.0235
66.9948
66.9639
66.9306
66.895
66.8568
66.8162
66.773
66.7272
66.6786
66.6274
66.5733
66.5164
66.4567
66.3939
66.3282
66.2594
66.1876
66.1126
66.0346
65.9534
65.8691
65.7818
65.6913
65.5978
65.5013
65.4018
65.2995
65.1945
65.0868
64.9765
64.8639
64.7491
64.6322
64.5135
64.393
64.2711
64.1479
64.0236
63.8985
63.7727
63.6466
63.5202
63.3939
63.2678
63.1421
63.017
62.8927
62.7694
62.6472
62.5262
62.4067
62.2887
62.1722
62.0575
61.9445
61.8334
61.7242
61.6169
61.5116
61.4083
61.3069
61.2075
61.1101
61.0145
60.9209
60.8292
60.7393
60.6512
60.5648
60.48
60.3969
60.3153
60.2351
60.1564
60.079
60.0029
59.928
59.8542
59.7815
59.7099
59.6392
59.5694
59.5004
59.4323
59.365
59.2984
59.2325
59.1673
59.1027