/*--------------------------------*- C++ -*----------------------------------*\
| =========                 |                                                 |
| \\      /  F ield         | OpenFOAM: The Open Source CFD Toolbox           |
|  \\    /   O peration     | Version:  2306                                  |
|   \\  /    A nd           | Website:  www.openfoam.com                      |
|    \\/     M anipulation  |                                                 |
\*---------------------------------------------------------------------------*/
FoamFile
{
    version     2.0;
    format      ascii;
    arch        "LSB;label=32;scalar=64";
    class       volScalarField;
    location    "10";
    object      p;
}
// * * * * * * * * * * * * * * * * * * * * * * * * * * * * * * * * * * * * * //

dimensions      [0 2 -2 0 0 0 0];

internalField   nonuniform List<scalar> 
32768
(
0.275712
0.275579
0.275289
0.274832
0.274209
0.273423
0.272472
0.271356
0.270073
0.268619
0.266995
0.265196
0.263222
0.261069
0.258735
0.256217
0.253512
0.250617
0.247528
0.244243
0.240757
0.237068
0.233172
0.229066
0.224746
0.220209
0.215452
0.210471
0.205265
0.19983
0.194165
0.188266
0.182132
0.175762
0.169155
0.16231
0.155228
0.147909
0.140354
0.132564
0.124543
0.116292
0.107817
0.0991205
0.0902082
0.0810859
0.0717599
0.0622373
0.0525261
0.0426346
0.0325719
0.0223476
0.0119719
0.00145538
-0.00919084
-0.0199553
-0.0308264
-0.041792
-0.0528401
-0.0639585
-0.0751348
-0.0863569
-0.0976127
-0.10889
-0.120178
-0.131465
-0.142739
-0.153991
-0.165211
-0.176388
-0.187513
-0.198579
-0.209578
-0.220501
-0.231344
-0.242099
-0.252761
-0.263326
-0.27379
-0.284148
-0.294399
-0.30454
-0.314569
-0.324485
-0.334286
-0.343972
-0.353544
-0.363001
-0.372344
-0.381574
-0.390691
-0.399697
-0.408593
-0.41738
-0.426059
-0.434632
-0.4431
-0.451464
-0.459726
-0.467885
-0.475943
-0.4839
-0.491756
-0.499512
-0.507166
-0.514719
-0.522169
-0.529514
-0.536755
-0.543888
-0.550911
-0.557823
-0.564619
-0.571297
-0.577853
-0.584284
-0.590585
-0.596752
-0.602781
-0.608667
-0.614405
-0.619989
-0.625415
-0.630677
-0.635769
-0.640686
-0.645422
-0.649972
-0.654329
-0.658488
-0.662443
-0.666189
-0.66972
-0.673031
-0.676116
-0.678971
-0.681589
-0.683967
-0.6861
-0.687984
-0.689614
-0.690986
-0.692097
-0.692944
-0.693524
-0.693833
-0.69387
-0.693632
-0.693117
-0.692324
-0.691252
-0.689901
-0.688268
-0.686355
-0.684162
-0.681688
-0.678936
-0.675906
-0.6726
-0.66902
-0.665168
-0.661047
-0.656659
-0.652009
-0.647099
-0.641934
-0.636518
-0.630856
-0.624953
-0.618815
-0.612446
-0.605854
-0.599043
-0.592022
-0.584797
-0.577376
-0.569765
-0.561973
-0.554007
-0.545877
-0.537591
-0.529158
-0.520586
-0.511886
-0.503065
-0.494135
-0.485105
-0.475984
-0.466783
-0.457511
-0.448179
-0.438797
-0.429373
-0.41992
-0.410446
-0.400961
-0.391475
-0.381997
-0.372537
-0.363104
-0.353707
-0.344354
-0.335053
-0.325813
-0.316642
-0.307546
-0.298533
-0.28961
-0.280781
-0.272055
-0.263435
-0.254927
-0.246535
-0.238264
-0.230117
-0.222098
-0.214209
-0.206453
-0.198832
-0.191348
-0.184001
-0.176793
-0.169725
-0.162795
-0.156005
-0.149353
-0.14284
-0.136462
-0.13022
-0.124112
-0.118135
-0.112287
-0.106566
-0.10097
-0.0954953
-0.0901394
-0.0848992
-0.0797714
-0.0747528
-0.0698399
-0.0650293
-0.0603174
-0.0557006
-0.0511753
-0.0467377
-0.0423842
-0.038111
-0.033915
-0.0297907
-0.025739
-0.0217458
-0.0178324
-0.0139362
-0.0101925
-0.00625105
-0.00283616
0.275873
0.27574
0.27545
0.274994
0.274371
0.273586
0.272636
0.271521
0.270238
0.268786
0.267162
0.265365
0.263392
0.26124
0.258908
0.256391
0.253687
0.250793
0.247705
0.244421
0.240936
0.237247
0.233352
0.229246
0.224926
0.220389
0.215632
0.210651
0.205443
0.200007
0.194339
0.188438
0.182301
0.175928
0.169317
0.162468
0.155381
0.148056
0.140494
0.132698
0.124669
0.11641
0.107926
0.0992204
0.0902983
0.0811656
0.0718288
0.062295
0.0525721
0.0426686
0.0325936
0.0223567
0.0119683
0.00143903
-0.00922001
-0.0199973
-0.0308811
-0.0418592
-0.0529196
-0.0640499
-0.0752379
-0.0864712
-0.0977377
-0.109026
-0.120323
-0.131619
-0.142902
-0.154161
-0.165388
-0.176571
-0.187702
-0.198773
-0.209776
-0.220703
-0.231548
-0.242306
-0.25297
-0.263536
-0.274
-0.284359
-0.294609
-0.304749
-0.314776
-0.32469
-0.334489
-0.344173
-0.353741
-0.363195
-0.372535
-0.381762
-0.390875
-0.399878
-0.40877
-0.417554
-0.42623
-0.4348
-0.443265
-0.451627
-0.459885
-0.468042
-0.476098
-0.484053
-0.491908
-0.499662
-0.507316
-0.514868
-0.522317
-0.529663
-0.536904
-0.544038
-0.551063
-0.557975
-0.564773
-0.571453
-0.578011
-0.584445
-0.590749
-0.596919
-0.602951
-0.608841
-0.614582
-0.62017
-0.6256
-0.630866
-0.635962
-0.640883
-0.645624
-0.650178
-0.654539
-0.658703
-0.662663
-0.666413
-0.669948
-0.673263
-0.676352
-0.679211
-0.681833
-0.684215
-0.686351
-0.688238
-0.689872
-0.691247
-0.692362
-0.693211
-0.693794
-0.694105
-0.694145
-0.693909
-0.693396
-0.692605
-0.691535
-0.690185
-0.688553
-0.686642
-0.684449
-0.681977
-0.679225
-0.676195
-0.67289
-0.669309
-0.665457
-0.661335
-0.656947
-0.652296
-0.647385
-0.642219
-0.636802
-0.631139
-0.625234
-0.619093
-0.612723
-0.606128
-0.599315
-0.592291
-0.585062
-0.577637
-0.570023
-0.562227
-0.554258
-0.546123
-0.537833
-0.529394
-0.520818
-0.512112
-0.503286
-0.49435
-0.485314
-0.476187
-0.46698
-0.457701
-0.448363
-0.438973
-0.429543
-0.420083
-0.410601
-0.401109
-0.391616
-0.382131
-0.372663
-0.363223
-0.353818
-0.344458
-0.33515
-0.325903
-0.316724
-0.307622
-0.298602
-0.289671
-0.280837
-0.272104
-0.263478
-0.254964
-0.246566
-0.23829
-0.230138
-0.222113
-0.21422
-0.206459
-0.198834
-0.191346
-0.183996
-0.176784
-0.169713
-0.162781
-0.155988
-0.149334
-0.142818
-0.136439
-0.130196
-0.124086
-0.118108
-0.112259
-0.106538
-0.100942
-0.095467
-0.0901113
-0.0848714
-0.0797441
-0.0747262
-0.0698141
-0.0650045
-0.0602937
-0.0556781
-0.0511541
-0.0467179
-0.042366
-0.0380943
-0.0338999
-0.0297773
-0.0257274
-0.0217357
-0.0178245
-0.0139282
-0.0101891
-0.00623993
-0.0028481
0.276196
0.276063
0.275774
0.275318
0.274696
0.273912
0.272964
0.27185
0.270569
0.269119
0.267498
0.265703
0.263732
0.261583
0.259253
0.256738
0.254037
0.251145
0.24806
0.244777
0.241294
0.237607
0.233713
0.229608
0.225288
0.220751
0.215992
0.21101
0.2058
0.200361
0.194689
0.188783
0.182641
0.176261
0.169642
0.162784
0.155686
0.14835
0.140776
0.132965
0.124921
0.116647
0.108145
0.0994208
0.090479
0.0813256
0.071967
0.0624106
0.0526643
0.0427367
0.032637
0.022375
0.0119611
0.00140612
-0.0092787
-0.0200817
-0.0309909
-0.0419942
-0.0530793
-0.0642337
-0.0754449
-0.0867007
-0.0979888
-0.109297
-0.120614
-0.131928
-0.143228
-0.154503
-0.165743
-0.176939
-0.188082
-0.199163
-0.210174
-0.221109
-0.23196
-0.242721
-0.253389
-0.263957
-0.274422
-0.28478
-0.295029
-0.305166
-0.315191
-0.3251
-0.334895
-0.344574
-0.354137
-0.363585
-0.372918
-0.382138
-0.391245
-0.400241
-0.409126
-0.417903
-0.426573
-0.435136
-0.443595
-0.451951
-0.460205
-0.468357
-0.476408
-0.48436
-0.492212
-0.499963
-0.507615
-0.515166
-0.522615
-0.529961
-0.537203
-0.544339
-0.551365
-0.558281
-0.565082
-0.571766
-0.578329
-0.584767
-0.591077
-0.597254
-0.603292
-0.609189
-0.614937
-0.620533
-0.625971
-0.631245
-0.63635
-0.641279
-0.646028
-0.650591
-0.654961
-0.659133
-0.663102
-0.666861
-0.670404
-0.673728
-0.676825
-0.679691
-0.682322
-0.684711
-0.686855
-0.688749
-0.690389
-0.691771
-0.692891
-0.693747
-0.694335
-0.694651
-0.694695
-0.694464
-0.693955
-0.693168
-0.692101
-0.690754
-0.689125
-0.687216
-0.685025
-0.682554
-0.679804
-0.676775
-0.673469
-0.669889
-0.666037
-0.661914
-0.657525
-0.652872
-0.64796
-0.642791
-0.637371
-0.631705
-0.625797
-0.619652
-0.613277
-0.606677
-0.599858
-0.592829
-0.585594
-0.578162
-0.570541
-0.562737
-0.554759
-0.546616
-0.538316
-0.529869
-0.521282
-0.512565
-0.503729
-0.494781
-0.485733
-0.476594
-0.467374
-0.458083
-0.448731
-0.439328
-0.429884
-0.420409
-0.410913
-0.401407
-0.391899
-0.382399
-0.372917
-0.363461
-0.354042
-0.344667
-0.335344
-0.326083
-0.31689
-0.307773
-0.29874
-0.289796
-0.280948
-0.272202
-0.263564
-0.255038
-0.246629
-0.238341
-0.230179
-0.222144
-0.214241
-0.206472
-0.198838
-0.191342
-0.183984
-0.176766
-0.169689
-0.162751
-0.155953
-0.149295
-0.142775
-0.136393
-0.130146
-0.124034
-0.118054
-0.112204
-0.106482
-0.100885
-0.0954102
-0.0900548
-0.0848155
-0.0796893
-0.0746727
-0.0697623
-0.0649546
-0.0602461
-0.0556329
-0.0511116
-0.0466783
-0.0423294
-0.0380608
-0.0338697
-0.0297505
-0.025704
-0.0217156
-0.0178081
-0.0139149
-0.0101798
-0.00623347
-0.00284999
0.276679
0.276547
0.276259
0.275804
0.275184
0.274401
0.273455
0.272344
0.271066
0.269619
0.268
0.266209
0.264242
0.262097
0.25977
0.25726
0.254562
0.251673
0.248591
0.245312
0.241832
0.238147
0.234255
0.230151
0.225832
0.221294
0.216534
0.21155
0.206337
0.200893
0.195215
0.189302
0.183151
0.176761
0.17013
0.163258
0.156145
0.148792
0.141199
0.133368
0.125301
0.117002
0.108474
0.0997222
0.0907507
0.0815661
0.0721748
0.0625843
0.0528028
0.0428388
0.0327019
0.022402
0.0119496
0.00135592
-0.00936773
-0.0202094
-0.0311571
-0.0421983
-0.0533205
-0.0645111
-0.0757575
-0.0870471
-0.0983676
-0.109707
-0.121053
-0.132394
-0.143719
-0.155017
-0.166279
-0.177494
-0.188654
-0.19975
-0.210774
-0.221719
-0.232579
-0.243347
-0.254019
-0.26459
-0.275056
-0.285414
-0.295661
-0.305794
-0.315814
-0.325718
-0.335505
-0.345176
-0.354731
-0.364169
-0.373493
-0.382703
-0.391799
-0.400785
-0.40966
-0.418426
-0.427086
-0.43564
-0.44409
-0.452437
-0.460683
-0.468828
-0.476873
-0.484819
-0.492667
-0.500415
-0.508064
-0.515613
-0.523061
-0.530408
-0.537651
-0.544789
-0.551819
-0.558738
-0.565545
-0.572235
-0.578805
-0.585251
-0.591569
-0.597755
-0.603804
-0.609711
-0.61547
-0.621078
-0.626527
-0.631814
-0.636931
-0.641873
-0.646635
-0.651211
-0.655594
-0.65978
-0.663761
-0.667533
-0.671089
-0.674425
-0.677535
-0.680413
-0.683055
-0.685456
-0.687611
-0.689515
-0.691165
-0.692557
-0.693687
-0.694551
-0.695147
-0.695472
-0.695522
-0.695298
-0.694795
-0.694014
-0.692952
-0.691609
-0.689984
-0.688078
-0.68589
-0.683422
-0.680673
-0.677645
-0.67434
-0.67076
-0.666907
-0.662784
-0.658393
-0.653738
-0.648822
-0.64365
-0.638227
-0.632555
-0.626642
-0.620491
-0.614109
-0.607502
-0.600675
-0.593637
-0.586393
-0.578951
-0.571318
-0.563503
-0.555513
-0.547357
-0.539044
-0.530581
-0.521979
-0.513247
-0.504394
-0.495429
-0.486363
-0.477206
-0.467967
-0.458656
-0.449284
-0.43986
-0.430395
-0.420899
-0.411382
-0.401854
-0.392324
-0.382802
-0.373297
-0.36382
-0.354378
-0.344981
-0.335636
-0.326353
-0.317139
-0.308001
-0.298947
-0.289982
-0.281115
-0.27235
-0.263693
-0.255149
-0.246723
-0.238418
-0.23024
-0.22219
-0.214273
-0.20649
-0.198844
-0.191336
-0.183967
-0.176739
-0.169652
-0.162706
-0.155901
-0.149235
-0.14271
-0.136322
-0.130071
-0.123956
-0.117973
-0.112121
-0.106397
-0.1008
-0.0953246
-0.0899695
-0.0847313
-0.0796066
-0.0745921
-0.0696842
-0.0648795
-0.0601742
-0.0555648
-0.0510475
-0.0466185
-0.0422741
-0.0380103
-0.0338242
-0.02971
-0.0256688
-0.0216856
-0.0177834
-0.0138955
-0.010166
-0.00622502
-0.00284755
0.277324
0.277192
0.276904
0.276451
0.275833
0.275053
0.27411
0.273002
0.271728
0.270284
0.268671
0.266884
0.264922
0.262781
0.26046
0.257955
0.255262
0.252378
0.249301
0.246026
0.242549
0.238868
0.234978
0.230876
0.226557
0.222019
0.217258
0.212271
0.207053
0.201604
0.195918
0.189996
0.183833
0.177429
0.170783
0.163893
0.15676
0.149384
0.141765
0.133907
0.12581
0.117478
0.108915
0.100125
0.0911143
0.0818878
0.0724526
0.0628165
0.0529875
0.0429748
0.0327879
0.0224371
0.0119332
0.00128746
-0.00948831
-0.020382
-0.0313812
-0.0424732
-0.0536452
-0.0648844
-0.0761779
-0.0875129
-0.0988767
-0.110257
-0.121642
-0.13302
-0.144379
-0.155708
-0.166998
-0.178239
-0.189422
-0.200537
-0.211578
-0.222537
-0.233408
-0.244185
-0.254863
-0.265438
-0.275905
-0.286262
-0.296506
-0.306635
-0.316647
-0.326543
-0.336321
-0.345981
-0.355524
-0.36495
-0.37426
-0.383456
-0.392539
-0.40151
-0.410371
-0.419124
-0.427771
-0.436312
-0.44475
-0.453085
-0.46132
-0.469456
-0.477493
-0.485431
-0.493272
-0.501015
-0.508661
-0.516208
-0.523655
-0.531002
-0.538247
-0.545388
-0.552422
-0.559348
-0.566161
-0.57286
-0.579439
-0.585896
-0.592225
-0.598424
-0.604486
-0.610407
-0.616181
-0.621804
-0.62727
-0.632572
-0.637707
-0.642666
-0.647446
-0.652039
-0.65644
-0.660643
-0.664642
-0.668431
-0.672005
-0.675357
-0.678483
-0.681378
-0.684035
-0.686451
-0.688621
-0.69054
-0.692203
-0.693608
-0.69475
-0.695626
-0.696232
-0.696567
-0.696628
-0.696412
-0.695918
-0.695143
-0.694088
-0.692751
-0.691132
-0.68923
-0.687046
-0.684581
-0.681834
-0.678808
-0.675504
-0.671924
-0.668071
-0.663946
-0.659553
-0.654895
-0.649975
-0.644799
-0.63937
-0.633692
-0.627771
-0.621613
-0.615222
-0.608605
-0.601768
-0.594718
-0.587461
-0.580006
-0.572359
-0.564528
-0.556522
-0.548348
-0.540016
-0.531535
-0.522913
-0.514159
-0.505284
-0.496296
-0.487207
-0.478024
-0.46876
-0.459423
-0.450024
-0.440573
-0.43108
-0.421556
-0.41201
-0.402452
-0.392892
-0.383341
-0.373807
-0.364299
-0.354828
-0.345401
-0.336027
-0.326714
-0.317471
-0.308305
-0.299223
-0.290232
-0.281338
-0.272547
-0.263865
-0.255297
-0.246848
-0.238521
-0.230321
-0.222252
-0.214315
-0.206514
-0.198851
-0.191327
-0.183944
-0.176702
-0.169603
-0.162645
-0.15583
-0.149155
-0.142622
-0.136227
-0.129971
-0.12385
-0.117864
-0.112009
-0.106283
-0.100685
-0.0952095
-0.0898551
-0.0846182
-0.0794956
-0.0744838
-0.0695794
-0.0647786
-0.0600778
-0.0554734
-0.0509614
-0.0465382
-0.0422
-0.0379426
-0.0337631
-0.0296558
-0.0256215
-0.0216454
-0.0177504
-0.0138696
-0.0101475
-0.00621346
-0.00284334
0.278128
0.277997
0.277711
0.277259
0.276644
0.275866
0.274927
0.273824
0.272554
0.271116
0.269508
0.267727
0.265771
0.263637
0.261323
0.258824
0.256137
0.25326
0.250189
0.246919
0.243447
0.23977
0.235884
0.231784
0.227466
0.222928
0.218165
0.213174
0.207952
0.202495
0.196801
0.190866
0.184689
0.178269
0.171603
0.16469
0.157532
0.150127
0.142477
0.134584
0.126449
0.118076
0.109469
0.100632
0.0915709
0.0822916
0.0728012
0.0631074
0.0532188
0.0431446
0.0328947
0.0224797
0.0119107
0.00119943
-0.00964207
-0.0206013
-0.0316654
-0.0428215
-0.0540563
-0.0653567
-0.0767094
-0.0881015
-0.0995199
-0.110952
-0.122386
-0.133809
-0.145211
-0.156579
-0.167905
-0.179178
-0.190388
-0.201528
-0.21259
-0.223567
-0.234452
-0.245239
-0.255925
-0.266503
-0.276972
-0.287327
-0.297567
-0.307689
-0.317693
-0.327578
-0.337344
-0.34699
-0.356518
-0.365928
-0.375221
-0.3844
-0.393465
-0.402418
-0.411261
-0.419997
-0.428626
-0.437151
-0.445573
-0.453894
-0.462116
-0.470239
-0.478265
-0.486195
-0.494028
-0.501765
-0.509405
-0.516949
-0.524396
-0.531743
-0.538991
-0.546135
-0.553176
-0.560108
-0.566931
-0.57364
-0.580231
-0.586701
-0.593045
-0.599259
-0.605338
-0.611277
-0.61707
-0.622713
-0.628198
-0.633522
-0.638678
-0.643659
-0.64846
-0.653076
-0.657499
-0.661724
-0.665745
-0.669556
-0.673151
-0.676525
-0.679672
-0.682586
-0.685264
-0.687699
-0.689887
-0.691823
-0.693504
-0.694925
-0.696082
-0.696972
-0.697593
-0.697941
-0.698013
-0.697809
-0.697325
-0.69656
-0.695513
-0.694184
-0.692571
-0.690675
-0.688496
-0.686034
-0.683291
-0.680267
-0.676964
-0.673384
-0.669529
-0.665403
-0.661007
-0.656345
-0.651421
-0.646239
-0.640803
-0.635118
-0.629188
-0.623019
-0.616617
-0.609988
-0.603138
-0.596073
-0.588801
-0.581329
-0.573664
-0.565814
-0.557787
-0.549592
-0.541237
-0.532731
-0.524084
-0.515304
-0.506401
-0.497385
-0.488265
-0.479052
-0.469756
-0.460386
-0.450953
-0.441468
-0.43194
-0.42238
-0.412798
-0.403203
-0.393607
-0.384018
-0.374446
-0.364901
-0.355392
-0.345928
-0.336517
-0.327168
-0.317889
-0.308687
-0.29957
-0.290545
-0.281617
-0.272794
-0.264081
-0.255482
-0.247004
-0.238649
-0.230423
-0.222328
-0.214367
-0.206543
-0.198859
-0.191315
-0.183913
-0.176655
-0.16954
-0.162568
-0.15574
-0.149054
-0.142511
-0.136108
-0.129844
-0.123717
-0.117726
-0.111868
-0.10614
-0.10054
-0.0950642
-0.0897106
-0.0844755
-0.0793555
-0.0743473
-0.0694471
-0.0646513
-0.0599562
-0.055358
-0.0508529
-0.046437
-0.0421065
-0.0378572
-0.0336861
-0.0295874
-0.0255619
-0.0215948
-0.0177088
-0.0138371
-0.010124
-0.00619891
-0.00283782
0.279092
0.278961
0.278677
0.278227
0.277615
0.276842
0.275907
0.274809
0.273545
0.272113
0.270512
0.268739
0.26679
0.264664
0.262358
0.259867
0.257188
0.254319
0.251255
0.247992
0.244527
0.240855
0.236972
0.232875
0.22856
0.224022
0.219257
0.214263
0.209034
0.203569
0.197864
0.191915
0.185722
0.179281
0.172591
0.165652
0.158463
0.151024
0.143336
0.135401
0.12722
0.118798
0.110137
0.101244
0.0921218
0.0827787
0.0732213
0.0634577
0.0534968
0.043348
0.0330217
0.0225289
0.011881
0.00109013
-0.00983109
-0.0208698
-0.0320127
-0.0432464
-0.0545572
-0.0659317
-0.0773562
-0.0888172
-0.100302
-0.111796
-0.123289
-0.134768
-0.14622
-0.157636
-0.169004
-0.180315
-0.191559
-0.202729
-0.213816
-0.224813
-0.235714
-0.246514
-0.257208
-0.267791
-0.27826
-0.288613
-0.298847
-0.308961
-0.318954
-0.328826
-0.338576
-0.348205
-0.357714
-0.367104
-0.376377
-0.385534
-0.394577
-0.403508
-0.41233
-0.421044
-0.429652
-0.438157
-0.44656
-0.454864
-0.463069
-0.471178
-0.47919
-0.487108
-0.494932
-0.502661
-0.510297
-0.517837
-0.525282
-0.532631
-0.539881
-0.547031
-0.554078
-0.561019
-0.567853
-0.574574
-0.58118
-0.587666
-0.594028
-0.600261
-0.606361
-0.612321
-0.618137
-0.623804
-0.629314
-0.634663
-0.639844
-0.644852
-0.64968
-0.654322
-0.658772
-0.663024
-0.667072
-0.670909
-0.67453
-0.67793
-0.681102
-0.684041
-0.686742
-0.689201
-0.691411
-0.693369
-0.69507
-0.69651
-0.697686
-0.698594
-0.699231
-0.699595
-0.699682
-0.69949
-0.699019
-0.698265
-0.697229
-0.695908
-0.694304
-0.692414
-0.690241
-0.687784
-0.685044
-0.682023
-0.678721
-0.675141
-0.671286
-0.667157
-0.662758
-0.658092
-0.653162
-0.647974
-0.642529
-0.636835
-0.630895
-0.624714
-0.618299
-0.611655
-0.604789
-0.597707
-0.590416
-0.582924
-0.575237
-0.567364
-0.559313
-0.551091
-0.542709
-0.534174
-0.525496
-0.516684
-0.507748
-0.498697
-0.489542
-0.480292
-0.470957
-0.461548
-0.452075
-0.442548
-0.432978
-0.423374
-0.413748
-0.404109
-0.394468
-0.384834
-0.375217
-0.365627
-0.356073
-0.346564
-0.337108
-0.327715
-0.318392
-0.309147
-0.299988
-0.290921
-0.281954
-0.273091
-0.26434
-0.255705
-0.247191
-0.238803
-0.230544
-0.222418
-0.214428
-0.206577
-0.198867
-0.191299
-0.183875
-0.176596
-0.169462
-0.162473
-0.15563
-0.148931
-0.142375
-0.135962
-0.129689
-0.123555
-0.117558
-0.111696
-0.105965
-0.100363
-0.0948878
-0.0895352
-0.0843023
-0.0791856
-0.0741816
-0.0692866
-0.0644969
-0.0598087
-0.0552181
-0.0507213
-0.0463142
-0.0419931
-0.0377536
-0.0335927
-0.0295044
-0.0254897
-0.0215334
-0.0176584
-0.0137976
-0.0100954
-0.00618131
-0.00283097
0.280215
0.280085
0.279802
0.279355
0.278746
0.277978
0.277048
0.275956
0.274699
0.273276
0.271683
0.269918
0.267979
0.265862
0.263565
0.261084
0.258415
0.255555
0.2525
0.249246
0.245788
0.242123
0.238246
0.234153
0.22984
0.225302
0.220536
0.215538
0.210303
0.204828
0.19911
0.193146
0.186933
0.180469
0.173752
0.166782
0.159557
0.152078
0.144346
0.136361
0.128127
0.119646
0.110923
0.101962
0.092769
0.0833505
0.0737141
0.0638682
0.0538218
0.0435849
0.0331683
0.0225835
0.0118423
0.000957484
-0.0100579
-0.0211905
-0.0324264
-0.0437517
-0.0551523
-0.0666142
-0.0781232
-0.0896655
-0.101228
-0.112796
-0.124358
-0.135901
-0.147414
-0.158884
-0.170302
-0.181657
-0.192941
-0.204144
-0.21526
-0.226281
-0.237201
-0.248014
-0.258717
-0.269305
-0.279775
-0.290124
-0.300351
-0.310454
-0.320434
-0.330289
-0.34002
-0.349628
-0.359115
-0.368481
-0.377729
-0.38686
-0.395877
-0.404782
-0.413577
-0.422265
-0.430849
-0.43933
-0.447711
-0.455993
-0.464179
-0.47227
-0.480267
-0.488171
-0.495984
-0.503704
-0.511333
-0.51887
-0.526313
-0.533663
-0.540916
-0.548072
-0.555127
-0.56208
-0.568926
-0.575663
-0.582286
-0.588791
-0.595174
-0.60143
-0.607554
-0.61354
-0.619383
-0.625078
-0.630617
-0.635996
-0.641208
-0.646247
-0.651107
-0.65578
-0.660262
-0.664545
-0.668625
-0.672493
-0.676145
-0.679575
-0.682777
-0.685745
-0.688474
-0.690959
-0.693195
-0.695178
-0.696904
-0.698367
-0.699565
-0.700494
-0.70115
-0.701532
-0.701636
-0.70146
-0.701003
-0.700263
-0.699238
-0.697929
-0.696333
-0.694452
-0.692286
-0.689834
-0.687098
-0.68408
-0.68078
-0.6772
-0.673344
-0.669213
-0.66481
-0.660139
-0.655203
-0.650006
-0.644553
-0.638848
-0.632895
-0.626701
-0.620271
-0.61361
-0.606725
-0.599623
-0.59231
-0.584794
-0.577082
-0.569182
-0.561102
-0.552851
-0.544436
-0.535868
-0.527154
-0.518305
-0.50933
-0.500238
-0.491041
-0.481747
-0.472367
-0.462912
-0.453391
-0.443816
-0.434196
-0.424542
-0.414864
-0.405174
-0.39548
-0.385793
-0.376123
-0.366479
-0.356872
-0.34731
-0.337802
-0.328356
-0.318982
-0.309687
-0.300478
-0.291362
-0.282347
-0.273439
-0.264643
-0.255965
-0.247409
-0.238981
-0.230685
-0.222523
-0.214499
-0.206615
-0.198875
-0.191279
-0.183829
-0.176525
-0.169369
-0.16236
-0.155499
-0.148784
-0.142214
-0.135788
-0.129506
-0.123363
-0.11736
-0.111492
-0.105758
-0.100155
-0.0946791
-0.0893278
-0.0840974
-0.0789846
-0.0739857
-0.0690969
-0.0643144
-0.0596344
-0.0550528
-0.0505658
-0.0461692
-0.0418591
-0.0376312
-0.0334823
-0.0294065
-0.0254044
-0.0214609
-0.0175988
-0.013751
-0.0100617
-0.00616056
-0.00282276
0.281495
0.281366
0.281085
0.280641
0.280037
0.279274
0.278351
0.277266
0.276017
0.274602
0.273019
0.271265
0.269336
0.267231
0.264945
0.262476
0.259818
0.256969
0.253925
0.250681
0.247232
0.243575
0.239705
0.235617
0.231307
0.226771
0.222004
0.217001
0.211759
0.206274
0.200543
0.194561
0.188326
0.181836
0.175089
0.168083
0.160817
0.153293
0.145509
0.137468
0.129172
0.120624
0.111828
0.10279
0.0935144
0.0840088
0.074281
0.0643395
0.0541941
0.0438551
0.0333338
0.0226422
0.0117929
0.000799021
-0.0103256
-0.021567
-0.0329107
-0.0443422
-0.0558467
-0.0674097
-0.0790164
-0.0906527
-0.102304
-0.113958
-0.125599
-0.137217
-0.148798
-0.160331
-0.171806
-0.183212
-0.19454
-0.205782
-0.21693
-0.227978
-0.238918
-0.249747
-0.260459
-0.271051
-0.28152
-0.291865
-0.302082
-0.312173
-0.322135
-0.331971
-0.341679
-0.351262
-0.360722
-0.37006
-0.379278
-0.388378
-0.397364
-0.406238
-0.415003
-0.423661
-0.432216
-0.440669
-0.449023
-0.457281
-0.465444
-0.473514
-0.481493
-0.489382
-0.497181
-0.504892
-0.512513
-0.520045
-0.527487
-0.534838
-0.542095
-0.549258
-0.556324
-0.563289
-0.57015
-0.576905
-0.583548
-0.590076
-0.596483
-0.602766
-0.608918
-0.614934
-0.620808
-0.626535
-0.632109
-0.637523
-0.64277
-0.647845
-0.652741
-0.657451
-0.66197
-0.66629
-0.670405
-0.67431
-0.677998
-0.681462
-0.684698
-0.687699
-0.690461
-0.692977
-0.695244
-0.697256
-0.699009
-0.700499
-0.701722
-0.702675
-0.703354
-0.703756
-0.70388
-0.703722
-0.703282
-0.702557
-0.701546
-0.700248
-0.698664
-0.696792
-0.694633
-0.692188
-0.689457
-0.686442
-0.683144
-0.679565
-0.675708
-0.671574
-0.667167
-0.66249
-0.657547
-0.652342
-0.646878
-0.64116
-0.635194
-0.628984
-0.622536
-0.615856
-0.608951
-0.601826
-0.594488
-0.586945
-0.579204
-0.571274
-0.563161
-0.554874
-0.546423
-0.537816
-0.529061
-0.520169
-0.51115
-0.502012
-0.492766
-0.483422
-0.473991
-0.464482
-0.454907
-0.445275
-0.435598
-0.425886
-0.41615
-0.406399
-0.396645
-0.386897
-0.377165
-0.367461
-0.357792
-0.348168
-0.3386
-0.329094
-0.319661
-0.310307
-0.301041
-0.291869
-0.282799
-0.273838
-0.26499
-0.256262
-0.247659
-0.239185
-0.230845
-0.222641
-0.214578
-0.206657
-0.198882
-0.191253
-0.183773
-0.176441
-0.16926
-0.162228
-0.155346
-0.148612
-0.142026
-0.135587
-0.129292
-0.12314
-0.117129
-0.111256
-0.105518
-0.0999127
-0.0944368
-0.089087
-0.0838597
-0.0787514
-0.0737584
-0.0688768
-0.0641027
-0.0594322
-0.0548611
-0.0503854
-0.046001
-0.0417038
-0.0374893
-0.0333544
-0.0292929
-0.0253054
-0.0213769
-0.0175297
-0.0136969
-0.0100226
-0.00613652
-0.00281313
0.282931
0.282804
0.282525
0.282085
0.281486
0.280729
0.279813
0.278737
0.277497
0.276093
0.274521
0.272778
0.270862
0.26877
0.266498
0.264042
0.261398
0.258562
0.25553
0.252298
0.24886
0.245213
0.241351
0.23727
0.232965
0.228431
0.223663
0.218656
0.213408
0.207912
0.202165
0.196164
0.189905
0.183386
0.176605
0.169559
0.162248
0.154671
0.14683
0.138725
0.130359
0.121735
0.112857
0.10373
0.0943606
0.0847556
0.0749233
0.0648727
0.0546141
0.0441583
0.0335172
0.0227035
0.0117304
0.000611818
-0.0106378
-0.0220036
-0.0334706
-0.0450233
-0.0566465
-0.0683248
-0.080043
-0.0917862
-0.10354
-0.115289
-0.127022
-0.138723
-0.150382
-0.161987
-0.173525
-0.184988
-0.196366
-0.207651
-0.218835
-0.229911
-0.240874
-0.251719
-0.26244
-0.273036
-0.283504
-0.293841
-0.304047
-0.314121
-0.324063
-0.333875
-0.343557
-0.35311
-0.362538
-0.371842
-0.381026
-0.390091
-0.399041
-0.407879
-0.416608
-0.425231
-0.433752
-0.442173
-0.450497
-0.458726
-0.466863
-0.47491
-0.482868
-0.490739
-0.498523
-0.506222
-0.513835
-0.521362
-0.528802
-0.536154
-0.543417
-0.550588
-0.557664
-0.564644
-0.571523
-0.578298
-0.584964
-0.591518
-0.597954
-0.604267
-0.610451
-0.616502
-0.622413
-0.628177
-0.633789
-0.639243
-0.644531
-0.649647
-0.654585
-0.659337
-0.663898
-0.66826
-0.672417
-0.676362
-0.68009
-0.683595
-0.686869
-0.689909
-0.692707
-0.695259
-0.69756
-0.699605
-0.70139
-0.70291
-0.704161
-0.705141
-0.705845
-0.706272
-0.706418
-0.70628
-0.705859
-0.705151
-0.704155
-0.702872
-0.701299
-0.699438
-0.697288
-0.69485
-0.692125
-0.689114
-0.685818
-0.68224
-0.678381
-0.674245
-0.669833
-0.66515
-0.660199
-0.654984
-0.649508
-0.643777
-0.637796
-0.631568
-0.625101
-0.6184
-0.61147
-0.60432
-0.596954
-0.589381
-0.581608
-0.573643
-0.565493
-0.557168
-0.548675
-0.540024
-0.531224
-0.522284
-0.513213
-0.504023
-0.494723
-0.485322
-0.475833
-0.466264
-0.456627
-0.446932
-0.43719
-0.427412
-0.417608
-0.407789
-0.397966
-0.388149
-0.378348
-0.368573
-0.358835
-0.349142
-0.339504
-0.329931
-0.320429
-0.311009
-0.301678
-0.292442
-0.28331
-0.274288
-0.265382
-0.256598
-0.24794
-0.239414
-0.231023
-0.222772
-0.214664
-0.206701
-0.198886
-0.19122
-0.183706
-0.176343
-0.169133
-0.162074
-0.155168
-0.148414
-0.14181
-0.135355
-0.129047
-0.122884
-0.116864
-0.110985
-0.105243
-0.0996353
-0.0941594
-0.0888113
-0.0835876
-0.0784846
-0.0734984
-0.0686251
-0.0638606
-0.059201
-0.0546419
-0.0501792
-0.0458087
-0.0415262
-0.0373271
-0.0332081
-0.029163
-0.0251923
-0.0212808
-0.0174508
-0.0136352
-0.0099778
-0.00610905
-0.00280203
0.284523
0.284397
0.284121
0.283685
0.283091
0.282341
0.281434
0.280367
0.279139
0.277746
0.276187
0.274458
0.272557
0.27048
0.268223
0.265782
0.263154
0.260333
0.257316
0.254098
0.250674
0.247038
0.243187
0.239114
0.234814
0.230283
0.225516
0.220506
0.215251
0.209744
0.203981
0.197959
0.191675
0.185124
0.178305
0.171215
0.163853
0.156219
0.148314
0.140137
0.131693
0.122983
0.114012
0.104786
0.0953105
0.0855933
0.0756429
0.065469
0.0550822
0.0444943
0.0337176
0.0227656
0.0116523
0.000392475
-0.0109986
-0.0225053
-0.0341116
-0.0458015
-0.0575587
-0.0693672
-0.0812111
-0.0930747
-0.104943
-0.116801
-0.128635
-0.140431
-0.152176
-0.16386
-0.175469
-0.186995
-0.198429
-0.20976
-0.220983
-0.232091
-0.243077
-0.253938
-0.264669
-0.275268
-0.285731
-0.296059
-0.30625
-0.316304
-0.326223
-0.336006
-0.345656
-0.355175
-0.364566
-0.373831
-0.382974
-0.391998
-0.400907
-0.409704
-0.418392
-0.426975
-0.435457
-0.443841
-0.45213
-0.460327
-0.468434
-0.476454
-0.484388
-0.492239
-0.500006
-0.507692
-0.515295
-0.522817
-0.530255
-0.537609
-0.544878
-0.552058
-0.559148
-0.566144
-0.573043
-0.579842
-0.586535
-0.593118
-0.599586
-0.605934
-0.612155
-0.618245
-0.624197
-0.630004
-0.63566
-0.641159
-0.646493
-0.651656
-0.65664
-0.66144
-0.666048
-0.670457
-0.674661
-0.678653
-0.682427
-0.685976
-0.689295
-0.692376
-0.695216
-0.697808
-0.700148
-0.70223
-0.70405
-0.705604
-0.706887
-0.707897
-0.70863
-0.709083
-0.709253
-0.709139
-0.708739
-0.70805
-0.707072
-0.705804
-0.704245
-0.702396
-0.700256
-0.697826
-0.695107
-0.6921
-0.688807
-0.68523
-0.68137
-0.677231
-0.672814
-0.668125
-0.663165
-0.657939
-0.65245
-0.646704
-0.640706
-0.634459
-0.627971
-0.621246
-0.61429
-0.607111
-0.599715
-0.592109
-0.5843
-0.576296
-0.568106
-0.559737
-0.551198
-0.542498
-0.533647
-0.524653
-0.515527
-0.506278
-0.496917
-0.487453
-0.477898
-0.468262
-0.458555
-0.448789
-0.438975
-0.429122
-0.419243
-0.409348
-0.399448
-0.389553
-0.379674
-0.369821
-0.360004
-0.350233
-0.340518
-0.330867
-0.32129
-0.311795
-0.30239
-0.293083
-0.283881
-0.274791
-0.265819
-0.256971
-0.248252
-0.239667
-0.23122
-0.222916
-0.214757
-0.206747
-0.198887
-0.19118
-0.183627
-0.176229
-0.168986
-0.161898
-0.154966
-0.148188
-0.141563
-0.13509
-0.128767
-0.122593
-0.116563
-0.110677
-0.10493
-0.0993209
-0.0938449
-0.088499
-0.0832794
-0.0781824
-0.073204
-0.0683401
-0.0635866
-0.0589393
-0.0543938
-0.0499459
-0.0455911
-0.0413253
-0.0371436
-0.0330427
-0.0290161
-0.0250644
-0.021172
-0.0173614
-0.0135653
-0.00992713
-0.00607798
-0.00278937
0.286269
0.286144
0.285871
0.28544
0.284853
0.28411
0.283213
0.282157
0.280941
0.279562
0.278017
0.276304
0.274419
0.272359
0.27012
0.267697
0.265087
0.262284
0.259285
0.256083
0.252674
0.249053
0.245213
0.241151
0.236859
0.232333
0.227566
0.222555
0.217292
0.211774
0.205995
0.199952
0.193639
0.187054
0.180194
0.173056
0.165639
0.157941
0.149965
0.141709
0.133178
0.124373
0.115299
0.105961
0.0963673
0.0865245
0.0764418
0.0661296
0.0555991
0.0448627
0.0339337
0.0228263
0.0115555
0.000137067
-0.0114129
-0.0230777
-0.0348404
-0.046684
-0.0585914
-0.0705457
-0.08253
-0.0945281
-0.106524
-0.118503
-0.130449
-0.14235
-0.154192
-0.165962
-0.17765
-0.189245
-0.200738
-0.212121
-0.223385
-0.234526
-0.245537
-0.256414
-0.267154
-0.277753
-0.288211
-0.298526
-0.308699
-0.318729
-0.328618
-0.338369
-0.347982
-0.357461
-0.366809
-0.376029
-0.385126
-0.394103
-0.402964
-0.411713
-0.420354
-0.428892
-0.43733
-0.445672
-0.453922
-0.462082
-0.470155
-0.478145
-0.486052
-0.49388
-0.501629
-0.509299
-0.516892
-0.524407
-0.531844
-0.539201
-0.546476
-0.553667
-0.560772
-0.567787
-0.57471
-0.581535
-0.588258
-0.594874
-0.601379
-0.607766
-0.614029
-0.620163
-0.626161
-0.632016
-0.637721
-0.643271
-0.648657
-0.653872
-0.658909
-0.663762
-0.668423
-0.672886
-0.677142
-0.681186
-0.685011
-0.68861
-0.691977
-0.695107
-0.697993