/*--------------------------------*- C++ -*----------------------------------*\
| =========                 |                                                 |
| \\      /  F ield         | OpenFOAM: The Open Source CFD Toolbox           |
|  \\    /   O peration     | Version:  2306                                  |
|   \\  /    A nd           | Website:  www.openfoam.com                      |
|    \\/     M anipulation  |                                                 |
\*---------------------------------------------------------------------------*/
FoamFile
{
    version     2.0;
    format      ascii;
    arch        "LSB;label=32;scalar=64";
    class       surfaceScalarField;
    location    "10";
    object      phi;
}
// * * * * * * * * * * * * * * * * * * * * * * * * * * * * * * * * * * * * * //

dimensions      [0 3 -1 0 0 0 0];

oriented        oriented;

internalField   nonuniform List<scalar> 
65152
(
0.0062505
-5.03947e-07
0.00625202
-1.51378e-06
0.00625454
-2.52426e-06
0.00625808
-3.53651e-06
0.00626263
-4.55218e-06
0.0062682
-5.57237e-06
0.0062748
-6.59775e-06
0.00628243
-7.62907e-06
0.0062911
-8.66711e-06
0.00630081
-9.71266e-06
0.00631158
-1.07664e-05
0.0063234
-1.18289e-05
0.00633631
-1.29008e-05
0.00635029
-1.39824e-05
0.00636536
-1.5074e-05
0.00638154
-1.6176e-05
0.00639883
-1.72885e-05
0.00641724
-1.84113e-05
0.00643678
-1.95445e-05
0.00645747
-2.06877e-05
0.00647931
-2.18404e-05
0.00650231
-2.30022e-05
0.00652648
-2.41722e-05
0.00655183
-2.53495e-05
0.00657837
-2.65331e-05
0.00660609
-2.77217e-05
0.006635
-2.89137e-05
0.00666511
-3.01076e-05
0.00669641
-3.13016e-05
0.00672891
-3.24936e-05
0.00676259
-3.36815e-05
0.00679745
-3.4863e-05
0.00683349
-3.60354e-05
0.00687068
-3.71961e-05
0.00690902
-3.83424e-05
0.0069485
-3.94713e-05
0.00698908
-4.05798e-05
0.00703074
-4.16648e-05
0.00707346
-4.27231e-05
0.00711721
-4.37515e-05
0.00716196
-4.47467e-05
0.00720767
-4.57057e-05
0.00725429
-4.66253e-05
0.0073018
-4.75025e-05
0.00735013
-4.83343e-05
0.00739925
-4.91179e-05
0.0074491
-4.98508e-05
0.00749963
-5.05306e-05
0.00755078
-5.11551e-05
0.00760251
-5.17224e-05
0.00765474
-5.2231e-05
0.00770742
-5.26795e-05
0.00776048
-5.3067e-05
0.00781388
-5.33928e-05
0.00786753
-5.36565e-05
0.00792139
-5.38583e-05
0.00797539
-5.39984e-05
0.00802947
-5.40775e-05
0.00808356
-5.40968e-05
0.00813762
-5.40574e-05
0.00819158
-5.39611e-05
0.00824539
-5.38097e-05
0.008299
-5.36054e-05
0.00835235
-5.33506e-05
0.0084054
-5.30477e-05
0.0084581
-5.26997e-05
0.00851041
-5.23094e-05
0.00856228
-5.18798e-05
0.0086137
-5.14141e-05
0.00866461
-5.09154e-05
0.008715
-5.03868e-05
0.00876483
-4.98318e-05
0.00881409
-4.92533e-05
0.00886274
-4.86546e-05
0.00891078
-4.80388e-05
0.00895819
-4.74089e-05
0.00900496
-4.67676e-05
0.00905107
-4.61178e-05
0.00909654
-4.54622e-05
0.00914134
-4.48031e-05
0.00918548
-4.41428e-05
0.00922897
-4.34834e-05
0.00927179
-4.2827e-05
0.00931397
-4.21751e-05
0.0093555
-4.15294e-05
0.00939639
-4.08912e-05
0.00943665
-4.02615e-05
0.00947629
-3.96413e-05
0.00951532
-3.90314e-05
0.00955375
-3.84323e-05
0.0095916
-3.78443e-05
0.00962887
-3.72675e-05
0.00966557
-3.6702e-05
0.00970172
-3.61475e-05
0.00973732
-3.56036e-05
0.00977239
-3.50699e-05
0.00980694
-3.45458e-05
0.00984097
-3.40303e-05
0.00987449
-3.35226e-05
0.00990751
-3.30217e-05
0.00994004
-3.25265e-05
0.00997207
-3.20357e-05
0.0100036
-3.15481e-05
0.0100347
-3.10625e-05
0.0100653
-3.05773e-05
0.0100954
-3.00912e-05
0.010125
-2.96028e-05
0.0101541
-2.91106e-05
0.0101827
-2.86132e-05
0.0102108
-2.81092e-05
0.0102384
-2.75971e-05
0.0102655
-2.70757e-05
0.010292
-2.65434e-05
0.010318
-2.59991e-05
0.0103434
-2.54416e-05
0.0103683
-2.48695e-05
0.0103926
-2.4282e-05
0.0104163
-2.36778e-05
0.0104393
-2.30562e-05
0.0104617
-2.24161e-05
0.0104835
-2.17568e-05
0.0105046
-2.10777e-05
0.010525
-2.03781e-05
0.0105446
-1.96575e-05
0.0105635
-1.89154e-05
0.0105817
-1.81516e-05
0.010599
-1.73657e-05
0.0106156
-1.65576e-05
0.0106313
-1.57273e-05
0.0106462
-1.48747e-05
0.0106602
-1.4e-05
0.0106733
-1.31032e-05
0.0106855
-1.21846e-05
0.0106967
-1.12446e-05
0.010707
-1.02835e-05
0.0107163
-9.30162e-06
0.0107246
-8.2996e-06
0.0107319
-7.27794e-06
0.0107381
-6.23722e-06
0.0107433
-5.17809e-06
0.0107474
-4.10123e-06
0.0107504
-3.00736e-06
0.0107523
-1.89723e-06
0.0107531
-7.71652e-07
0.0107527
3.68621e-07
0.0107512
1.5227e-06
0.0107485
2.68974e-06
0.0107446
3.86885e-06
0.0107396
5.05915e-06
0.0107333
6.25971e-06
0.0107259
7.4696e-06
0.0107172
8.68789e-06
0.0107073
9.9136e-06
0.0106961
1.11458e-05
0.0106837
1.23835e-05
0.0106701
1.36256e-05
0.0106552
1.48713e-05
0.0106391
1.61194e-05
0.0106217
1.7369e-05
0.0106031
1.8619e-05
0.0105833
1.98683e-05
0.0105621
2.11158e-05
0.0105398
2.23606e-05
0.0105162
2.36014e-05
0.0104913
2.48371e-05
0.0104653
2.60666e-05
0.010438
2.72887e-05
0.0104095
2.85022e-05
0.0103798
2.97059e-05
0.0103489
3.08985e-05
0.0103168
3.20788e-05
0.0102836
3.32454e-05
0.0102492
3.43972e-05
0.0102136
3.55327e-05
0.010177
3.66505e-05
0.0101392
3.77494e-05
0.0101004
3.88279e-05
0.0100605
3.98846e-05
0.0100196
4.09182e-05
0.00997767
4.19271e-05
0.00993476
4.29101e-05
0.00989089
4.38656e-05
0.0098461
4.47924e-05
0.00980041
4.56889e-05
0.00975385
4.65539e-05
0.00970647
4.73861e-05
0.00965828
4.8184e-05
0.00960934
4.89466e-05
0.00955967
4.96725e-05
0.0095093
5.03606e-05
0.00945829
5.10099e-05
0.00940668
5.16193e-05
0.00935449
5.21878e-05
0.00930177
5.27147e-05
0.00924857
5.31991e-05
0.00919493
5.36404e-05
0.0091409
5.40381e-05
0.0090865
5.43915e-05
0.0090318
5.47005e-05
0.00897684
5.49647e-05
0.00892165
5.51841e-05
0.0088663
5.53586e-05
0.00881081
5.54883e-05
0.00875523
5.55735e-05
0.00869962
5.56146e-05
0.00864401
5.5612e-05
0.00858844
5.55663e-05
0.00853296
5.54783e-05
0.00847761
5.53488e-05
0.00842244
5.51787e-05
0.00836747
5.49691e-05
0.00831275
5.47211e-05
0.00825831
5.4436e-05
0.00820419
5.41151e-05
0.00815043
5.37599e-05
0.00809706
5.33717e-05
0.00804411
5.29522e-05
0.00799161
5.25031e-05
0.00793958
5.20259e-05
0.00788806
5.15224e-05
0.00783706
5.09943e-05
0.00778662
5.04435e-05
0.00773675
4.98717e-05
0.00768747
4.92808e-05
0.0076388
4.86725e-05
0.00759075
4.80487e-05
0.00754334
4.74113e-05
0.00749657
4.67619e-05
0.00745047
4.61025e-05
0.00740504
4.54347e-05
0.00736028
4.47602e-05
0.0073162
4.40807e-05
0.0072728
4.33979e-05
0.00723009
4.27133e-05
0.00718806
4.20284e-05
0.00714671
4.13448e-05
0.00710605
4.06638e-05
0.00706606
3.99867e-05
0.00702675
3.93149e-05
0.0069881
3.86495e-05
0.00695011
3.79916e-05
0.00691276
3.73424e-05
0.00687606
3.67028e-05
0.00683999
3.60738e-05
0.00680453
3.5456e-05
0.00676968
3.48504e-05
0.00673542
3.42575e-05
0.00670174
3.36782e-05
0.00666863
3.31121e-05
0.00663607
3.25616e-05
0.00660405
3.20229e-05
0.00657254
3.15038e-05
0.00654155
3.09896e-05
0.00651106
3.04986e-05
0.00648103
3.00226e-05
2.94695e-05
0.0062505
-1.0084e-06
0.00625202
-3.02573e-06
0.00625454
-5.04565e-06
0.00625807
-7.07008e-06
0.00626262
-9.10109e-06
0.00626819
-1.11407e-05
0.00627478
-1.31907e-05
0.00628241
-1.52526e-05
0.00629107
-1.73282e-05
0.00630077
-1.94188e-05
0.00631153
-2.15258e-05
0.00632335
-2.36505e-05
0.00633625
-2.57939e-05
0.00635022
-2.79569e-05
0.00636529
-3.01402e-05
0.00638146
-3.23443e-05
0.00639874
-3.45693e-05
0.00641714
-3.68154e-05
0.00643668
-3.90822e-05
0.00645736
-4.13692e-05
0.00647919
-4.36755e-05
0.00650219
-4.59999e-05
0.00652636
-4.8341e-05
0.00655171
-5.0697e-05
0.00657824
-5.30656e-05
0.00660596
-5.54443e-05
0.00663488
-5.78302e-05
0.00666499
-6.02201e-05
0.0066963
-6.26102e-05
0.0067288
-6.49967e-05
0.0067625
-6.7375e-05
0.00679738
-6.97405e-05
0.00683343
-7.20882e-05
0.00687064
-7.44127e-05
0.00690901
-7.67084e-05
0.00694851
-7.89694e-05
0.00698912
-8.11896e-05
0.00703082
-8.33629e-05
0.00707358
-8.54828e-05
0.00711737
-8.75429e-05
0.00716216
-8.95368e-05
0.00720791
-9.14581e-05
0.00725458
-9.33004e-05
0.00730214
-9.50578e-05
0.00735053
-9.67242e-05
0.00739971
-9.82942e-05
0.00744962
-9.97625e-05
0.00750021
-0.000101124
0.00755143
-0.000102375
0.00760322
-0.000103512
0.00765552
-0.00010453
0.00770827
-0.000105428
0.00776141
-0.000106204
0.00781487
-0.000106856
0.0078686
-0.000107383
0.00792252
-0.000107787
0.00797659
-0.000108066
0.00803074
-0.000108223
0.0080849
-0.000108261
0.00813902
-0.00010818
0.00819305
-0.000107986
0.00824692
-0.000107681
0.00830058
-0.00010727
0.00835399
-0.000106757
0.00840709
-0.000106149
0.00845984
-0.00010545
0.0085122
-0.000104666
0.00856412
-0.000103804
0.00861558
-0.000102869
0.00866653
-0.000101869
0.00871695
-0.000100808
0.00876682
-9.96948e-05
0.0088161
-9.85347e-05
0.00886478
-9.73342e-05
0.00891284
-9.60995e-05
0.00896027
-9.48365e-05
0.00900705
-9.35512e-05
0.00905318
-9.2249e-05
0.00909865
-9.09351e-05
0.00914347
-8.96144e-05
0.00918761
-8.82917e-05
0.0092311
-8.6971e-05
0.00927393
-8.56562e-05
0.00931611
-8.43509e-05
0.00935764
-8.3058e-05
0.00939852
-8.17803e-05
0.00943878
-8.05199e-05
0.00947842
-7.92787e-05
0.00951745
-7.80583e-05
0.00955587
-7.68596e-05
0.00959371
-7.56833e-05
0.00963098
-7.45297e-05
0.00966767
-7.33987e-05
0.00970381
-7.22899e-05
0.00973941
-7.12027e-05
0.00977448
-7.01359e-05
0.00980902
-6.90882e-05
0.00984305
-6.8058e-05
0.00987657
-6.70436e-05
0.00990959
-6.60428e-05
0.00994212
-6.50535e-05
0.00997416
-6.40731e-05
0.0100057
-6.30992e-05
0.0100368
-6.21292e-05
0.0100674
-6.11601e-05
0.0100975
-6.01893e-05
0.0101271
-5.92138e-05
0.0101562
-5.82308e-05
0.0101848
-5.72374e-05
0.0102129
-5.62307e-05
0.0102405
-5.52078e-05
0.0102676
-5.41661e-05
0.0102942
-5.31028e-05
0.0103202
-5.20153e-05
0.0103457
-5.09013e-05
0.0103706
-4.97582e-05
0.0103949
-4.8584e-05
0.0104186
-4.73766e-05
0.0104416
-4.6134e-05
0.0104641
-4.48545e-05
0.0104859
-4.35366e-05
0.010507
-4.21788e-05
0.0105274
-4.07799e-05
0.010547
-3.9339e-05
0.010566
-3.78551e-05
0.0105842
-3.63275e-05
0.0106015
-3.47558e-05
0.0106181
-3.31396e-05
0.0106339
-3.14788e-05
0.0106488
-2.97734e-05
0.0106628
-2.80236e-05
0.0106759
-2.62296e-05
0.0106881
-2.43921e-05
0.0106994
-2.25114e-05
0.0107097
-2.05885e-05
0.010719
-1.86242e-05
0.0107273
-1.66194e-05
0.0107346
-1.45753e-05
0.0107409
-1.24931e-05
0.0107461
-1.03739e-05
0.0107502
-8.21929e-06
0.0107532
-6.0306e-06
0.0107551
-3.80936e-06
0.0107559
-1.55714e-06
0.0107556
7.24428e-07
0.0107541
3.03366e-06
0.0107514
5.36883e-06
0.0107475
7.72818e-06
0.0107425
1.01099e-05
0.0107362
1.25122e-05
0.0107288
1.49331e-05
0.0107201
1.73709e-05
0.0107102
1.98235e-05
0.010699
2.22891e-05
0.0106866
2.47657e-05
0.010673
2.72512e-05
0.0106581
2.97438e-05
0.010642
3.22413e-05
0.0106247
3.47417e-05
0.010606
3.7243e-05
0.0105862
3.97429e-05
0.010565
4.22394e-05
0.0105427
4.47302e-05
0.010519
4.72132e-05
0.0104942
4.9686e-05
0.0104681
5.21464e-05
0.0104408
5.4592e-05
0.0104123
5.70205e-05
0.0103826
5.94293e-05
0.0103517
6.1816e-05
0.0103196
6.41781e-05
0.0102863
6.6513e-05
0.0102519
6.8818e-05
0.0102163
7.10905e-05
0.0101796
7.33278e-05
0.0101419
7.55271e-05
0.010103
7.76857e-05
0.0100631
7.98008e-05
0.0100221
8.18695e-05
0.00998017
8.3889e-05
0.00993722
8.58565e-05
0.00989332
8.77691e-05
0.00984849
8.96242e-05
0.00980276
9.14188e-05
0.00975616
9.31504e-05
0.00970873
9.48161e-05
0.0096605
9.64134e-05
0.00961151
9.79399e-05
0.00956179
9.9393e-05
0.00951138
0.00010077
0.00946032
0.00010207
0.00940865
0.00010329
0.00935641
0.000104428
0.00930364
0.000105483
0.00925039
0.000106452
0.00919669
0.000107335
0.0091426
0.000108131
0.00908815
0.000108839
0.0090334
0.000109457
0.00897837
0.000109985
0.00892313
0.000110424
0.00886772
0.000110773
0.00881218
0.000111032
0.00875655
0.000111202
0.00870088
0.000111284
0.00864521
0.000111278
0.00858959
0.000111186
0.00853406
0.000111009
0.00847866
0.000110749
0.00842343
0.000110408
0.00836841
0.000109988
0.00831364
0.00010949
0.00825916
0.000108919
0.008205
0.000108276
0.0081512
0.000107563
0.00809778
0.000106786
0.00804479
0.000105945
0.00799225
0.000105045
0.00794018
0.000104089
0.00788863
0.00010308
0.0078376
0.000102022
0.00778712
0.000100918
0.00773722
9.97727e-05
0.00768792
9.85889e-05
0.00763922
9.73704e-05
0.00759115
9.6121e-05
0.00754371
9.48441e-05
0.00749693
9.35435e-05
0.00745081
9.22227e-05
0.00740536
9.08852e-05
0.00736059
8.95345e-05
0.00731649
8.81738e-05
0.00727308
8.68064e-05
0.00723036
8.54355e-05
0.00718833
8.40642e-05
0.00714698
8.26954e-05
0.00710631
8.13318e-05
0.00706632
7.99763e-05
0.007027
7.86313e-05
0.00698835
7.72992e-05
0.00695036
7.59824e-05
0.00691302
7.46828e-05
0.00687632
7.34026e-05
0.00684025
7.21435e-05
0.0068048
7.09071e-05
0.00676996
6.96951e-05
0.0067357
6.85086e-05
0.00670203
6.7349e-05
0.00666893
6.62171e-05
0.00663638
6.51138e-05
0.00660436
6.40406e-05
0.00657287
6.29931e-05
0.00654187
6.19905e-05
0.0065114
6.09677e-05
0.00648128
6.01433e-05
5.8837e-05
0.0062505
-1.51152e-06
0.00625201
-4.53539e-06
0.00625453
-7.56319e-06
0.00625806
-1.0598e-05
0.0062626
-1.36428e-05
0.00626816
-1.67005e-05
0.00627474
-1.97738e-05
0.00628236
-2.28651e-05
0.006291
-2.5977e-05
0.0063007
-2.91116e-05
0.00631144
-3.2271e-05
0.00632325
-3.54572e-05
0.00633613
-3.86716e-05
0.00635009
-4.19157e-05
0.00636514
-4.51905e-05
0.00638129
-4.84968e-05
0.00639855
-5.18348e-05
0.00641694
-5.52047e-05
0.00643647
-5.86061e-05
0.00645714
-6.2038e-05
0.00647896
-6.54994e-05
0.00650195
-6.89884e-05
0.00652611
-7.25029e-05
0.00655145
-7.604e-05
0.00657798
-7.95966e-05
0.00660571
-8.31688e-05
0.00663463
-8.67522e-05
0.00666475
-9.0342e-05
0.00669607
-9.39327e-05
0.0067286
-9.75183e-05
0.00676231
-0.000101092
0.00679722
-0.000104647
0.00683331
-0.000108176
0.00687057
-0.00011167
0.00690898
-0.000115121
0.00694853
-0.000118521
0.0069892
-0.000121859
0.00703096
-0.000125128
0.0070738
-0.000128316
0.00711767
-0.000131415
0.00716255
-0.000134414
0.00720839
-0.000137304
0.00725517
-0.000140075
0.00730283
-0.000142719
0.00735133
-0.000145226
0.00740062
-0.000147588
0.00745066
-0.000149796
0.00750138
-0.000151845
0.00755273
-0.000153726
0.00760465
-0.000155435
0.00765709
-0.000156966
0.00770997
-0.000158316
0.00776325
-0.000159481
0.00781686
-0.00016046
0.00787072
-0.000161251
0.00792479
-0.000161855
0.007979
-0.000162273
0.00803328
-0.000162506
0.00808758
-0.000162559
0.00814183
-0.000162434
0.00819598
-0.000162138
0.00824998
-0.000161675
0.00830376
-0.000161052
0.00835728
-0.000160277
0.00841049
-0.000159357
0.00846334
-0.000158302
0.00851579
-0.000157118
0.00856781
-0.000155817
0.00861934
-0.000154407
0.00867037
-0.000152897
0.00872086
-0.000151299
0.00877079
-0.00014962
0.00882012
-0.000147872
0.00886885
-0.000146063
0.00891696
-0.000144203
0.00896442
-0.000142302
0.00901124
-0.000140366
0.0090574
-0.000138406
0.00910289
-0.000136429
0.00914772
-0.000134442
0.00919188
-0.000132452
0.00923537
-0.000130466
0.00927821
-0.00012849
0.00932038
-0.000126527
0.00936191
-0.000124585
0.00940279
-0.000122665
0.00944305
-0.000120772
0.00948267
-0.000118908
0.00952169
-0.000117076
0.00956011
-0.000115277
0.00959794
-0.000113511
0.00963519
-0.000111781
0.00967187
-0.000110085
0.00970801
-0.000108422
0.0097436
-0.000106792
0.00977865
-0.000105194
0.00981319
-0.000103624
0.00984721
-0.000102081
0.00988073
-0.000100561
0.00991375
-9.90627e-05
0.00994628
-9.75815e-05
0.00997832
-9.61139e-05
0.0100099
-9.46562e-05
0.010041
-9.32043e-05
0.0100715
-9.1754e-05
0.0101017
-9.03012e-05
0.0101313
-8.88413e-05
0.0101604
-8.73702e-05
0.0101891
-8.58834e-05
0.0102172
-8.43766e-05
0.0102449
-8.28455e-05
0.010272
-8.1286e-05
0.0102986
-7.9694e-05
0.0103246
-7.80657e-05
0.0103501
-7.63973e-05
0.010375
-7.46852e-05
0.0103994
-7.29262e-05
0.0104231
-7.11172e-05
0.0104462
-6.92552e-05
0.0104687
-6.73376e-05
0.0104906
-6.53622e-05
0.0105117
-6.33267e-05
0.0105321
-6.12294e-05
0.0105519
-5.90687e-05
0.0105709
-5.68433e-05
0.0105891
-5.45523e-05
0.0106065
-5.21947e-05
0.0106232
-4.97703e-05
0.010639
-4.72787e-05
0.0106539
-4.472e-05
0.010668
-4.20945e-05
0.0106812
-3.94026e-05
0.0106934
-3.6645e-05
0.0107047
-3.38227e-05
0.0107151
-3.09368e-05
0.0107244
-2.79886e-05
0.0107328
-2.49797e-05
0.0107401
-2.19115e-05
0.0107464
-1.87861e-05
0.0107516
-1.56052e-05
0.0107558
-1.23709e-05
0.0107589
-9.0855e-06
0.0107608
-5.75116e-06
0.0107616
-2.37026e-06
0.0107613
1.0547e-06
0.0107598
4.52122e-06
0.0107571
8.02672e-06
0.0107533
1.15685e-05
0.0107483
1.5144e-05
0.010742
1.87502e-05
0.0107346
2.23846e-05
0.0107259
2.60442e-05
0.010716
2.97261e-05
0.0107049
3.34275e-05
0.0106925
3.71454e-05
0.0106789
4.08768e-05
0.010664
4.46188e-05
0.0106478
4.83682e-05
0.0106305
5.21221e-05
0.0106118
5.58772e-05
0.0105919
5.96303e-05
0.0105708
6.33783e-05
0.0105484
6.71179e-05
0.0105248
7.08458e-05
0.0104999
7.45585e-05
0.0104738
7.82526e-05
0.0104465
8.19246e-05
0.0104179
8.55709e-05
0.0103882
8.91878e-05
0.0103572
9.27716e-05
0.0103251
9.63185e-05
0.0102918
9.98246e-05
0.0102573
0.000103286
0.0102217
0.000106699
0.010185
0.000110059
0.0101471
0.000113362
0.0101082
0.000116603
0.0100682
0.00011978
0.0100272
0.000122887
0.00998517
0.00012592
0.00994215
0.000128876
0.00989817
0.000131749
0.00985326
0.000134535
0.00980745
0.000137231
0.00976077
0.000139832
0.00971325
0.000142334
0.00966493
0.000144734
0.00961584
0.000147027
0.00956603
0.000149209
0.00951552
0.000151279
0.00946436
0.000153231
0.00941259
0.000155063
0.00936024
0.000156773
0.00930737
0.000158357
0.00925401
0.000159813
0.0092002
0.00016114
0.009146
0.000162335
0.00909144
0.000163397
0.00903657
0.000164325
0.00898144
0.000165118
0.00892609
0.000165777
0.00887056
0.0001663
0.0088149
0.000166688
0.00875916
0.000166942
0.00870339
0.000167063
0.00864761
0.000167053
0.00859188
0.000166913
0.00853625
0.000166646
0.00848074
0.000166253
0.00842541
0.000165739
0.00837029
0.000165105
0.00831543
0.000164356
0.00826085
0.000163495
0.0082066
0.000162527
0.00815271
0.000161455
0.00809921
0.000160284
0.00804614
0.000159018
0.00799352
0.000157664
0.00794138
0.000156225
0.00788976
0.000154707
0.00783866
0.000153115
0.00778812
0.000151455
0.00773817
0.000149732
0.0076888
0.000147952
0.00764005
0.000146119
0.00759194
0.00014424
0.00754446
0.00014232
0.00749764
0.000140364
0.00745148
0.000138378
0.007406
0.000136367
0.0073612
0.000134337
0.00731708
0.000132291
0.00727365
0.000130236
0.00723091
0.000128175
0.00718886
0.000126114
0.0071475
0.000124057
0.00710682
0.000122008
0.00706683
0.000119971
0.00702751
0.000117951
0.00698886
0.000115949
0.00695087
0.000113971
0.00691353
0.000112019
0.00687684
0.000110096
0.00684078
0.000108205
0.00680534
0.000106348
0.0067705
0.000104528
0.00673627
0.000102747
0.00670261
0.000101005
0.00666952
9.93066e-05
0.00663698
9.76499e-05
0.00660498
9.60408e-05
0.00657351
9.44668e-05
0.00654253
9.29697e-05
0.00651207
9.14262e-05
0.00648201
9.02061e-05
8.82214e-05
0.0062505
-2.01341e-06
0.00625201
-6.04143e-06
0.00625452
-1.00747e-05
0.00625804
-1.41175e-05
0.00626257
-1.81738e-05
0.00626812
-2.22474e-05
0.00627468
-2.63419e-05
0.00628228
-3.04607e-05
0.00629091
-3.46071e-05
0.00630058
-3.87842e-05
0.00631131
-4.29947e-05
0.00632309
-4.72413e-05
0.00633595
-5.15259e-05
0.00634988
-5.58506e-05
0.00636491
-6.02167e-05
0.00638103
-6.46253e-05
0.00639828
-6.90769e-05
0.00641664
-7.35715e-05
0.00643615
-7.81088e-05
0.0064568
-8.26876e-05
0.0064786
-8.73063e-05
0.00650158
-9.19627e-05
0.00652573
-9.66538e-05
0.00655106
-0.000101376
0.00657759
-0.000106125
0.00660532
-0.000110895
0.00663425
-0.000115682
0.00666438
-0.000120478
0.00669573
-0.000125276
0.00672828
-0.000130067
0.00676203
-0.000134844
0.00679698
-0.000139597
0.00683312
-0.000144315
0.00687044
-0.000148988
0.00690892
-0.000153604
0.00694855
-0.000158152
0.00698931
-0.000162619
0.00703117
-0.000166992
0.00707412
-0.000171259
0.00711811
-0.000175406
0.00716312
-0.000179421
0.0072091
-0.00018329
0.00725603
-0.000187
0.00730385
-0.000190539
0.00735252
-0.000193895
0.00740199
-0.000197057
0.0074522
-0.000200014
0.00750312
-0.000202755
0.00755466
-0.000205273
0.00760679
-0.00020756
0.00765943
-0.000209608
0.00771253
-0.000211412
0.00776601
-0.000212969
0.00781983
-0.000214276
0.00787391
-0.000215331
0.00792819
-0.000216135
0.00798261
-0.000216689
0.0080371
-0.000216995
0.0080916
-0.000217059
0.00814605
-0.000216885
0.00820039
-0.000216481
0.00825457
-0.000215853
0.00830853
-0.000215012
0.00836222
-0.000213966
0.00841559
-0.000212727
0.00846859
-0.000211305
0.00852118
-0.000209713
0.00857333
-0.000207963
0.00862499
-0.000206067
0.00867613
-0.000204039
0.00872673
-0.000201892
0.00877674
-0.000199639
0.00882617
-0.000197293
0.00887497
-0.000194866
0.00892314
-0.000192372
0.00897066
-0.000189822
0.00901752
-0.000187229
0.00906372
-0.000184602
0.00910924
-0.000181954
0.00915409
-0.000179294
0.00919827
-0.00017663
0.00924178
-0.000173973
0.00928462
-0.000171329
0.00932679
-0.000168705
0.00936832
-0.000166107
0.00940919
-0.000163542
0.00944944
-0.000161013
0.00948905
-0.000158524
0.00952805
-0.000156078
0.00956645
-0.000153677
0.00960427
-0.000151323
0.0096415
-0.000149015
0.00967817
-0.000146754
0.00971429
-0.000144539
0.00974986
-0.000142368
0.00978491
-0.000140239
0.00981943
-0.000138149
0.00985345
-0.000136095
0.00988696
-0.000134074
0.00991998
-0.00013208
0.00995251
-0.000130111
0.00998455
-0.000128159
0.0100161
-0.000126222
0.0100472
-0.000124292
0.0100778
-0.000122364
0.0101079
-0.000120434
0.0101376
-0.000118493
0.0101668
-0.000116538
0.0101954
-0.000114562
0.0102236
-0.000112559
0.0102513
-0.000110524
0.0102785
-0.00010845
0.0103051
-0.000106333
0.0103312
-0.000104167
0.0103568
-0.000101948
0.0103817
-9.96698e-05
0.0104061
-9.73288e-05
0.01043
-9.49206e-05
0.0104531
-9.24415e-05
0.0104757
-8.98879e-05
0.0104976
-8.72567e-05
0.0105188
-8.4545e-05
0.0105393
-8.17504e-05
0.0105591
-7.88708e-05
0.0105782
-7.59046e-05
0.0105965
-7.28504e-05
0.010614
-6.97071e-05
0.0106307
-6.64742e-05
0.0106466
-6.31514e-05
0.0106616
-5.97386e-05
0.0106757
-5.62364e-05
0.010689
-5.26453e-05
0.0107013
-4.89663e-05
0.0107127
-4.52007e-05
0.0107231
-4.135e-05
0.0107325
-3.74159e-05
0.0107409
-3.34006e-05
0.0107483
-2.93061e-05
0.0107547
-2.51349e-05
0.01076
-2.08896e-05
0.0107642
-1.6573e-05
0.0107673
-1.21879e-05
0.0107693
-7.73753e-06
0.0107701
-3.22487e-06
0.0107698
1.34663e-06
0.0107684
5.97368e-06
0.0107657
1.06528e-05
0.0107619
1.53804e-05
0.0107569
2.0153e-05
0.0107507
2.49667e-05
0.0107433
2.9818e-05
0.0107346
3.47029e-05
0.0107247
3.96177e-05
0.0107136
4.45586e-05
0.0107012
4.95215e-05
0.0106876
5.45025e-05
0.0106727
5.94976e-05
0.0106566
6.45027e-05
0.0106392
6.95138e-05
0.0106205
7.45266e-05
0.0106006
7.95369e-05
0.0105795
8.45404e-05
0.010557
8.95328e-05
0.0105334
9.45096e-05
0.0105085
9.94664e-05
0.0104823
0.000104398
0.010455
0.000109301
0.0104264
0.000114169
0.0103965
0.000118999
0.0103655
0.000123784
0.0103333
0.00012852
0.0103
0.000133202
0.0102654
0.000137825
0.0102297
0.000142382
0.0101929
0.00014687
0.010155
0.000151281
0.010116
0.000155611
0.0100759
0.000159854
0.0100348
0.000164004
0.00999267
0.000168056
0.00994954
0.000172004
0.00990544
0.000175842
0.00986042
0.000179564
0.00981448
0.000183166
0.00976767
0.000186641
0.00972002
0.000189984
0.00967157
0.00019319
0.00962234
0.000196253
0.00957238
0.00019917
0.00952172
0.000201934
0.00947041
0.000204543
0.00941848
0.000206991
0.00936598
0.000209275
0.00931295
0.000211391
0.00925942
0.000213336
0.00920546
0.000215108
0.00915109
0.000216704
0.00909636
0.000218122
0.00904133
0.000219361
0.00898602
0.000220419
0.0089305
0.000221297
0.00887481
0.000221994
0.00881899
0.000222511
0.00876308
0.000222848
0.00870714
0.000223008
0.0086512
0.000222991
0.00859531
0.000222801
0.00853951
0.000222441
0.00848386
0.000221913
0.00842837
0.000221222
0.00837311
0.000220371
0.0083181
0.000219367
0.00826338
0.000218212
0.00820899
0.000216914
0.00815497
0.000215477
0.00810135
0.000213908
0.00804815
0.000212213
0.00799542
0.000210399
0.00794317
0.000208472
0.00789144
0.000206439
0.00784024
0.000204308
0.00778961
0.000202086
0.00773957
0.000199779
0.00769012
0.000197396
0.0076413
0.000194943
0.00759311
0.000192429
0.00754557
0.00018986
0.00749869
0.000187243
0.00745248
0.000184587
0.00740695
0.000181897
0.00736211
0.000179181
0.00731795
0.000176445
0.00727449
0.000173697
0.00723173
0.000170942
0.00718965
0.000168186
0.00714828
0.000165436
0.00710759
0.000162697
0.00706758
0.000159975
0.00702826
0.000157274
0.00698961
0.0001546
0.00695162
0.000151956
0.0069143
0.000149348
0.00687761
0.00014678
0.00684156
0.000144254
0.00680614
0.000141774
0.00677132
0.000139343
0.0067371
0.000136965
0.00670347
0.00013464
0.0066704
0.000132372
0.00663789
0.000130161
0.00660592
0.000128015
0.00657447
0.000125914
0.00654352
0.000123919
0.00651309
0.000121856
0.00648306
0.000120235
0.000117582
0.0062505
-2.51369e-06
0.006252
-7.54257e-06
0.0062545
-1.25781e-05
0.00625801
-1.76257e-05
0.00626253
-2.26903e-05
0.00626806
-2.77768e-05
0.00627461
-3.28897e-05
0.00628218
-3.80334e-05
0.00629078
-4.32121e-05
0.00630043
-4.84295e-05
0.00631112
-5.36893e-05
0.00632288
-5.89947e-05
0.0063357
-6.43485e-05
0.0063496
-6.9753e-05
0.0063646
-7.52101e-05
0.00638069
-8.07212e-05
0.0063979
-8.6287e-05
0.00641624
-9.19076e-05
0.00643571
-9.75826e-05
0.00645634
-0.000103311
0.00647812
-0.00010909
0.00650107
-0.000114917
0.00652521
-0.000120789
0.00655053
-0.000126701
0.00657706
-0.000132649
0.00660479
-0.000138624
0.00663373
-0.000144621
0.00666388
-0.000150631
0.00669525
-0.000156645
0.00672783
-0.000162652
0.00676163
-0.000168643
0.00679664
-0.000174604
0.00683284
-0.000180523
0.00687024
-0.000186387
0.00690882
-0.000192181
0.00694856
-0.00019789
0.00698944
-0.000203498
0.00703143
-0.00020899
0.00707452
-0.000214349
0.00711868
-0.000219559
0.00716386
-0.000224602
0.00721003
-0.000229463
0.00725716
-0.000234125
0.00730519
-0.000238572
0.00735408
-0.00024279
0.00740379
-0.000246763
0.00745425
-0.000250477
0.00750542
-0.000253922
0.00755723
-0.000257084
0.00760962
-0.000259955
0.00766254
-0.000262525
0.00771592
-0.000264789
0.00776969
-0.000266741
0.00782379
-0.000268377
0.00787815
-0.000269696
0.00793272
-0.000270698
0.00798741
-0.000271385
0.00804218
-0.00027176
0.00809695
-0.00027183
0.00815166
-0.0002716
0.00820626
-0.00027108
0.00826069
-0.000270279
0.00831489
-0.000269209
0.0083688
-0.000267882
0.00842239
-0.000266311
0.00847559
-0.000264511
0.00852838
-0.000262498
0.0085807
-0.000260286
0.00863253
-0.000257892
0.00868382
-0.000255332
0.00873455
-0.000252623
0.00878469
-0.000249782
0.00883422
-0.000246824
0.00888313
-0.000243767
0.00893138
-0.000240626
0.00897897
-0.000237416
0.0090259
-0.000234153
0.00907214
-0.000230849
0.00911771
-0.00022752
0.00916259
-0.000224176
0.00920679
-0.00022083
0.00925031
-0.000217493
0.00929316
-0.000214174
0.00933533
-0.000210882
0.00937685
-0.000207624
0.00941772
-0.000204408
0.00945794
-0.000201239
0.00949754
-0.000198122
0.00953652
-0.00019506
0.0095749
-0.000192056
0.00961269
-0.000189111
0.0096499
-0.000186226
0.00968655
-0.0001834
0.00972264
-0.000180633
0.0097582
-0.000177923
0.00979322
-0.000175266
0.00982773
-0.000172659
0.00986174
-0.000170098
0.00989524
-0.000167578
0.00992825
-0.000165095
0.00996079
-0.000162641
0.00999284
-0.000160211
0.0100244
-0.000157798
0.0100555
-0.000155396
0.0100861
-0.000152996
0.0101163
-0.000150593
0.010146
-0.000148178
0.0101752
-0.000145744
0.0102039
-0.000143284
0.0102322
-0.000140791
0.0102599
-0.000138256
0.0102871
-0.000135674
0.0103138
-0.000133036
0.01034
-0.000130338
0.0103656
-0.000127571
0.0103907
-0.000124731
0.0104151
-0.000121812
0.010439
-0.000118808
0.0104623
-0.000115715
0.010485
-0.000112528
0.0105069
-0.000109243
0.0105282
-0.000105857
0.0105489
-0.000102367
0.0105688
-9.87698e-05
0.0105879
-9.50635e-05
0.0106063
-9.12465e-05
0.0106239
-8.73176e-05
0.0106407
-8.32759e-05
0.0106567
-7.91212e-05
0.0106718
-7.48534e-05
0.0106861
-7.04732e-05
0.0106994
-6.59812e-05
0.0107118
-6.13789e-05
0.0107233
-5.66678e-05
0.0107338
-5.18498e-05
0.0107433
-4.69272e-05
0.0107518
-4.19025e-05
0.0107593
-3.67785e-05
0.0107657
-3.15583e-05
0.010771
-2.62451e-05
0.0107753
-2.08424e-05
0.0107785
-1.53539e-05
0.0107805
-9.78341e-06
0.0107814
-4.13492e-06
0.0107812
1.58735e-06
0.0107798
7.37923e-06
0.0107772
1.32364e-05
0.0107734
1.91543e-05
0.0107684
2.51285e-05
0.0107623
3.11543e-05
0.0107548
3.72271e-05
0.0107462
4.33422e-05
0.0107363
4.94946e-05
0.0107252
5.56797e-05
0.0107128
6.18925e-05
0.0106992
6.8128e-05
0.0106843
7.43812e-05
0.0106682
8.06471e-05
0.0106508
8.69204e-05
0.0106321
9.31961e-05
0.0106122
9.94688e-05
0.010591
0.000105733
0.0105685
0.000111984
0.0105448
0.000118215
0.0105199
0.000124421
0.0104937
0.000130597
0.0104662
0.000136736
0.0104376
0.000142832
0.0104077
0.00014888
0.0103766
0.000154873
0.0103443
0.000160804
0.0103109
0.000166668
0.0102762
0.000172458
0.0102404
0.000178166
0.0102035
0.000183787
0.0101655
0.000189313
0.0101264
0.000194738
0.0100862
0.000200054
0.0100449
0.000205253
0.0100026
0.00021033
0.00995937
0.000215277
0.00991513
0.000220086
0.00986994
0.000224751
0.00982384
0.000229264
0.00977686
0.000233619
0.00972904
0.000237809
0.0096804
0.000241827
0.00963099
0.000245667
0.00958083
0.000249322
0.00952998
0.000252787
0.00947847
0.000256056
0.00942633
0.000259124
0.00937362
0.000261987
0.00932038
0.000264638
0.00926664
0.000267076
0.00921245
0.000269295
0.00915786
0.000271294
0.00910291
0.00027307
0.00904765
0.000274621
0.00899213
0.000275945
0.00893638
0.000277043
0.00888046
0.000277913
0.00882441
0.000278558
0.00876829
0.000278977
0.00871212
0.000279173
0.00865596
0.000279147
0.00859986
0.000278904
0.00854386
0.000278447
0.00848799
0.00027778
0.0084323
0.000276908
0.00837684
0.000275836
0.00832163
0.00027457
0.00826673
0.000273116
0.00821216
0.000271482
0.00815796
0.000269675
0.00810417
0.000267701
0.00805081
0.000265569
0.00799793
0.000263288
0.00794553
0.000260866
0.00789366
0.000258311
0.00784233
0.000255633
0.00779158
0.00025284
0.00774142
0.000249943
0.00769186
0.000246949
0.00764294
0.000243869
0.00759466
0.000240711
0.00754703
0.000237485
0.00750007
0.0002342
0.0074538
0.000230865
0.0074082
0.000227489
0.0073633
0.00022408
0.0073191
0.000220647
0.0072756
0.000217199
0.0072328
0.000213743
0.0071907
0.000210286
0.0071493
0.000206837
0.00710859
0.000203402
0.00706858
0.000199988
0.00702925
0.000196602
0.0069906
0.00019325