/*--------------------------------*- C++ -*----------------------------------*\
| =========                 |                                                 |
| \\      /  F ield         | OpenFOAM: The Open Source CFD Toolbox           |
|  \\    /   O peration     | Version:  2306                                  |
|   \\  /    A nd           | Website:  www.openfoam.com                      |
|    \\/     M anipulation  |                                                 |
\*---------------------------------------------------------------------------*/
FoamFile
{
    version     2.0;
    format      ascii;
    arch        "LSB;label=32;scalar=64";
    class       volScalarField;
    location    "10";
    object      T;
}
// * * * * * * * * * * * * * * * * * * * * * * * * * * * * * * * * * * * * * //

dimensions      [0 0 0 1 0 0 0];

internalField   nonuniform List<scalar> 
32768
(
300
300
300
300
300
300
300
300
300
300
300
300
300
300
300
300
300
300
300
300
300
300
300
300
300
300
300
300
300
300
300
300
300
300
300
300
300
300
300
300
300
300
300
300
300
300
300
300
300
300
300
300
300
300
300
300
300
300
300
300
300
300
300
300
300
300
300
300
300
300
300
300
300
300
300
300
300
300
300
300
300
300
300
299.999
299.999
299.999
299.999
299.999
299.999
299.999
299.999
299.998
299.998
299.998
299.998
299.997
299.997
299.997
299.996
299.996
299.995
299.995
299.994
299.993
299.993
299.992
299.991
299.99
299.989
299.988
299.987
299.985
299.984
299.982
299.981
299.979
299.977
299.975
299.973
299.97
299.968
299.965
299.962
299.959
299.955
299.952
299.948
299.943
299.939
299.934
299.929
299.924
299.918
299.913
299.906
299.9
299.893
299.885
299.877
299.869
299.861
299.852
299.842
299.832
299.822
299.811
299.799
299.787
299.775
299.762
299.748
299.734
299.72
299.704
299.689
299.672
299.655
299.638
299.619
299.601
299.581
299.561
299.541
299.519
299.497
299.475
299.452
299.428
299.403
299.378
299.353
299.326
299.299
299.272
299.244
299.215
299.185
299.156
299.125
299.094
299.062
299.03
298.997
298.964
298.93
298.896
298.861
298.826
298.79
298.754
298.718
298.681
298.643
298.605
298.567
298.529
298.49
298.451
298.411
298.371
298.331
298.291
298.25
298.209
298.168
298.126
298.085
298.043
298.001
297.959
297.917
297.874
297.832
297.789
297.746
297.703
297.66
297.617
297.574
297.53
297.487
297.444
297.4
297.357
297.313
297.269
297.225
297.182
297.138
297.093
297.048
297.002
296.954
296.901
296.838
296.755
296.632
296.428
296.058
295.354
293.981
291.265
285.872
275.158
253.905
211.853
128.885
-34.2924
-354.2
-979.369
-2197.21
-4562.1
-9140.31
-17975.8
-34977.9
-67588
300
300
300
300
300
300
300
300
300
300
300
300
300
300
300
300
300
300
300
300
300
300
300
300
300
300
300
300
300
300
300
300
300
300
300
300
300
300
300
300
300
300
300
300
300
300
300
300
300
300
300
300
300
300
300
300
300
300
300
300
300
300
300
300
300
300
300
300
300
300
300
300
300
300
300
300
300
300
300
300
300
300
299.999
299.999
299.999
299.999
299.999
299.999
299.999
299.999
299.998
299.998
299.998
299.998
299.997
299.997
299.997
299.996
299.996
299.995
299.995
299.994
299.993
299.993
299.992
299.991
299.99
299.989
299.988
299.987
299.985
299.984
299.982
299.981
299.979
299.977
299.975
299.973
299.97
299.968
299.965
299.962
299.959
299.955
299.952
299.948
299.943
299.939
299.934
299.929
299.924
299.918
299.912
299.906
299.899
299.892
299.885
299.877
299.869
299.86
299.851
299.842
299.832
299.821
299.81
299.799
299.787
299.774
299.761
299.748
299.734
299.719
299.704
299.688
299.672
299.655
299.637
299.619
299.6
299.581
299.561
299.54
299.519
299.497
299.474
299.451
299.428
299.403
299.378
299.353
299.326
299.3
299.272
299.244
299.215
299.186
299.157
299.126
299.095
299.064
299.032
298.999
298.966
298.933
298.899
298.864
298.829
298.794
298.758
298.722
298.685
298.648
298.61
298.572
298.534
298.496
298.457
298.417
298.378
298.338
298.298
298.258
298.217
298.176
298.135
298.094
298.052
298.011
297.969
297.927
297.885
297.843
297.8
297.758
297.715
297.672
297.63
297.587
297.544
297.501
297.457
297.414
297.371
297.328
297.284
297.241
297.197
297.154
297.11
297.066
297.021
296.975
296.927
296.874
296.811
296.729
296.606
296.402
296.033
295.33
293.956
291.241
285.85
275.138
253.889
211.841
128.881
-34.2865
-354.186
-979.362
-2197.26
-4562.37
-9141.18
-17978.2
-34984.1
-67603
300
300
300
300
300
300
300
300
300
300
300
300
300
300
300
300
300
300
300
300
300
300
300
300
300
300
300
300
300
300
300
300
300
300
300
300
300
300
300
300
300
300
300
300
300
300
300
300
300
300
300
300
300
300
300
300
300
300
300
300
300
300
300
300
300
300
300
300
300
300
300
300
300
300
300
300
300
300
300
300
300
299.999
299.999
299.999
299.999
299.999
299.999
299.999
299.999
299.998
299.998
299.998
299.998
299.997
299.997
299.996
299.996
299.996
299.995
299.994
299.994
299.993
299.992
299.991
299.99
299.989
299.988
299.987
299.986
299.984
299.983
299.981
299.979
299.978
299.975
299.973
299.971
299.968
299.965
299.962
299.959
299.956
299.952
299.948
299.944
299.94
299.935
299.93
299.925
299.919
299.913
299.907
299.9
299.893
299.885
299.878
299.869
299.861
299.852
299.842
299.832
299.821
299.81
299.799
299.787
299.774
299.761
299.748
299.734
299.719
299.704
299.688
299.671
299.654
299.637
299.619
299.6
299.581
299.561
299.54
299.519
299.497
299.474
299.451
299.428
299.404
299.379
299.353
299.327
299.3
299.273
299.245
299.217
299.188
299.159
299.129
299.098
299.067
299.035
299.003
298.97
298.937
298.904
298.869
298.835
298.8
298.765
298.729
298.692
298.656
298.619
298.582
298.544
298.506
298.467
298.429
298.39
298.351
298.311
298.271
298.231
298.191
298.151
298.11
298.069
298.028
297.987
297.946
297.904
297.863
297.821
297.779
297.737
297.695
297.653
297.611
297.568
297.526
297.483
297.441
297.398
297.355
297.313
297.27
297.227
297.184
297.141
297.098
297.054
297.011
296.966
296.921
296.873
296.821
296.759
296.677
296.555
296.351
295.982
295.28
293.908
291.194
285.806
275.099
253.857
211.822
128.881
-34.2618
-354.137
-979.313
-2197.31
-4562.81
-9142.77
-17982.8
-34996.2
-67632.6
300
300
300
300
300
300
300
300
300
300
300
300
300
300
300
300
300
300
300
300
300
300
300
300
300
300
300
300
300
300
300
300
300
300
300
300
300
300
300
300
300
300
300
300
300
300
300
300
300
300
300
300
300
300
300
300
300
300
300
300
300
300
300
300
300
300
300
300
300
300
300
300
300
300
300
300
300
300
300
299.999
299.999
299.999
299.999
299.999
299.999
299.999
299.999
299.998
299.998
299.998
299.998
299.997
299.997
299.996
299.996
299.995
299.995
299.994
299.994
299.993
299.992
299.991
299.99
299.989
299.988
299.987
299.985
299.984
299.982
299.981
299.979
299.977
299.975
299.972
299.97
299.967
299.964
299.961
299.958
299.954
299.95
299.946
299.942
299.937
299.932
299.927
299.921
299.915
299.909
299.902
299.895
299.888
299.88
299.872
299.863
299.854
299.845
299.835
299.824
299.813
299.802
299.79
299.777
299.764
299.751
299.736
299.722
299.706
299.691
299.674
299.657
299.64
299.621
299.603
299.583
299.563
299.542
299.521
299.499
299.477
299.454
299.43
299.406
299.381
299.356
299.33
299.304
299.276
299.249
299.221
299.192
299.162
299.133
299.102
299.071
299.04
299.008
298.976
298.943
298.91
298.876
298.842
298.808
298.773
298.738
298.702
298.666
298.63
298.593
298.556
298.518
298.481
298.443
298.405
298.366
298.328
298.289
298.25
298.21
298.171
298.131
298.091
298.051
298.011
297.97
297.93
297.889
297.848
297.807
297.766
297.725
297.684
297.642
297.601
297.559
297.518
297.476
297.434
297.393
297.351
297.309
297.267
297.225
297.183
297.14
297.098
297.056
297.013
296.971
296.928
296.884
296.84
296.793
296.741
296.679
296.598
296.477
296.274
295.906
295.205
293.834
291.124
285.74
275.04
253.811
211.796
128.884
-34.2194
-354.053
-979.223
-2197.36
-4563.43
-9145.12
-17989.7
-35014.3
-67677
300
300
300
300
300
300
300
300
300
300
300
300
300
300
300
300
300
300
300
300
300
300
300
300
300
300
300
300
300
300
300
300
300
300
300
300
300
300
300
300
300
300
300
300
300
300
300
300
300
300
300
300
300
300
300
300
300
300
300
300
300
300
300
300
300
300
300
300
300
300
300
300
300
300
300
300
300
299.999
299.999
299.999
299.999
299.999
299.999
299.999
299.998
299.998
299.998
299.998
299.997
299.997
299.997
299.996
299.996
299.995
299.995
299.994
299.993
299.993
299.992
299.991
299.99
299.989
299.987
299.986
299.985
299.983
299.981
299.979
299.977
299.975
299.973
299.97
299.968
299.965
299.961
299.958
299.954
299.951
299.946
299.942
299.937
299.932
299.927
299.921
299.915
299.909
299.902
299.895
299.887
299.879
299.871
299.862
299.852
299.842
299.832
299.821
299.81
299.798
299.786
299.773
299.759
299.745
299.73
299.715
299.699
299.683
299.666
299.648
299.63
299.611
299.592
299.572
299.551
299.53
299.508
299.486
299.462
299.439
299.414
299.39
299.364
299.338
299.312
299.284
299.257
299.228
299.2
299.17
299.141
299.11
299.08
299.048
299.017
298.984
298.952
298.919
298.885
298.852
298.817
298.783
298.748
298.713
298.677
298.641
298.605
298.568
298.532
298.495
298.457
298.42
298.382
298.344
298.306
298.268
298.229
298.191
298.152
298.113
298.074
298.034
297.995
297.955
297.916
297.876
297.836
297.796
297.756
297.716
297.676
297.636
297.595
297.555
297.514
297.474
297.433
297.393
297.352
297.311
297.27
297.23
297.189
297.148
297.107
297.066
297.025
296.983
296.942
296.9
296.859
296.817
296.774
296.731
296.684
296.634
296.573
296.493
296.372
296.171
295.804
295.105
293.737
291.03
285.652
274.962
253.75
211.76
128.888
-34.1614
-353.94
-979.101
-2197.42
-4564.25
-9148.24
-17998.9
-35038.4
-67736.2
300
300
300
300
300
300
300
300
300
300
300
300
300
300
300
300
300
300
300
300
300
300
300
300
300
300
300
300
300
300
300
300
300
300
300
300
300
300
300
300
300
300
300
300
300
300
300
300
300
300
300
300
300
300
300
300
300
300
300
300
300
300
300
300
300
300
300
300
300
300
300
300
300
300
300
299.999
299.999
299.999
299.999
299.999
299.999
299.999
299.998
299.998
299.998
299.998
299.997
299.997
299.997
299.996
299.996
299.995
299.994
299.994
299.993
299.992
299.991
299.99
299.989
299.988
299.986
299.985
299.983
299.982
299.98
299.978
299.975
299.973
299.97
299.968
299.965
299.961
299.958
299.954
299.95
299.946
299.941
299.936
299.931
299.925
299.919
299.913
299.906
299.899
299.892
299.884
299.875
299.866
299.857
299.847
299.837
299.826
299.814
299.802
299.79
299.777
299.763
299.748
299.734
299.718
299.702
299.685
299.668
299.65
299.631
299.611
299.591
299.571
299.55
299.528
299.505
299.482
299.458
299.434
299.409
299.383
299.357
299.33
299.303
299.275
299.246
299.217
299.187
299.157
299.127
299.096
299.064
299.032
299
298.967
298.934
298.9
298.866
298.832
298.797
298.762
298.726
298.691
298.655
298.619
298.582
298.546
298.509
298.472
298.435
298.397
298.36
298.322
298.284
298.246
298.208
298.17
298.131
298.093
298.054
298.016
297.977
297.938
297.9
297.861
297.822
297.783
297.744
297.705
297.666
297.627
297.588
297.549
297.51
297.471
297.431
297.392
297.353
297.314
297.274
297.235
297.195
297.156
297.117
297.077
297.037
296.998
296.958
296.918
296.878
296.839
296.799
296.758
296.718
296.677
296.636
296.593
296.548
296.499
296.44
296.361
296.241
296.041
295.676
294.979
293.614
290.912
285.541
274.864
253.672
211.716
128.893
-34.0907
-353.801
-978.953
-2197.51
-4565.3
-9152.17
-18010.5
-35068.6
-67810.4
300
300
300
300
300
300
300
300
300
300
300
300
300
300
300
300
300
300
300
300
300
300
300
300
300
300
300
300
300
300
300
300
300
300
300
300
300
300
300
300
300
300
300
300
300
300
300
300
300
300
300
300
300
300
300
300
300
300
300
300
300
300
300
300
300
300
300
300
300
300
300
300
300
299.999
299.999
299.999
299.999
299.999
299.999
299.999
299.998
299.998
299.998
299.998
299.997
299.997
299.996
299.996
299.995
299.995
299.994
299.993
299.992
299.991
299.99
299.989
299.988
299.987
299.985
299.984
299.982
299.98
299.978
299.975
299.973
299.97
299.967
299.964
299.961
299.957
299.953
299.949
299.945
299.94
299.935
299.929
299.923
299.917
299.91
299.903
299.896
299.888
299.879
299.87
299.861
299.851
299.84
299.829
299.817
299.805
299.792
299.778
299.764
299.749
299.734
299.718
299.701
299.684
299.665
299.646
299.627
299.607
299.586
299.564
299.542
299.519
299.495
299.47
299.445
299.42
299.393
299.366
299.338
299.31
299.281
299.252
299.222
299.191
299.16
299.128
299.096
299.063
299.03
298.996
298.962
298.928
298.893
298.858
298.822
298.786
298.75
298.714
298.677
298.64
298.603
298.565
298.528
298.49
298.452
298.414
298.376
298.338
298.3
298.262
298.223
298.185
298.146
298.108
298.07
298.031
297.993
297.954
297.916
297.878
297.839
297.801
297.763
297.725
297.686
297.648
297.61
297.572
297.534
297.496
297.459
297.421
297.383
297.345
297.307
297.27
297.232
297.194
297.156
297.119
297.081
297.043
297.005
296.968
296.93
296.892
296.854
296.816
296.778
296.74
296.702
296.663
296.625
296.586
296.548
296.508
296.469
296.428
296.384
296.336
296.278
296.201
296.083
295.885
295.521
294.827
293.466
290.769
285.408
274.746
253.578
211.66
128.895
-34.0101
-353.641
-978.787
-2197.63
-4566.6
-9156.96
-18024.4
-35105.1
-67899.8
300
300
300
300
300
300
300
300
300
300
300
300
300
300
300
300
300
300
300
300
300
300
300
300
300
300
300
300
300
300
300
300
300
300
300
300
300
300
300
300
300
300
300
300
300
300
300
300
300
300
300
300
300
300
300
300
300
300
300
300
300
300
300
300
300
300
300
300
300
300
300
299.999
299.999
299.999
299.999
299.999
299.999
299.999
299.998
299.998
299.998
299.997
299.997
299.997
299.996
299.996
299.995
299.994
299.994
299.993
299.992
299.991
299.99
299.988
299.987
299.985
299.984
299.982
299.98
299.978
299.976
299.973
299.97
299.967
299.964
299.961
299.957
299.953
299.948
299.944
299.938
299.933
299.927
299.921
299.914
299.907
299.9
299.892
299.883
299.874
299.864
299.854
299.843
299.832
299.82
299.807
299.794
299.78
299.765
299.75
299.734
299.717
299.699
299.681
299.662
299.642
299.621
299.6
299.578
299.555
299.531
299.506
299.481
299.455
299.428
299.4
299.372
299.343
299.313
299.283
299.252
299.22
299.187
299.154
299.121
299.087
299.052
299.017
298.981
298.945
298.908
298.871
298.834
298.796
298.758
298.72
298.681
298.642
298.603
298.564
298.524
298.484
298.445
298.405
298.365
298.325
298.285
298.245
298.205
298.165
298.126
298.086
298.046
298.007
297.967
297.928
297.889
297.85
297.811
297.772
297.734
297.695
297.657
297.619
297.581
297.544
297.506
297.469
297.431
297.394
297.358
297.321
297.284
297.248
297.211
297.175
297.139
297.103
297.067
297.031
296.995
296.959
296.923
296.888
296.852
296.816
296.781
296.745
296.709
296.673
296.637
296.601
296.565
296.529
296.493
296.457
296.42
296.384
296.347
296.31
296.272
296.233
296.191
296.145
296.089
296.013
295.897
295.701
295.34
294.648
293.291
290.601
285.25
274.605
253.466
211.592
128.894
-33.9233
-353.466
-978.614
-2197.81
-4568.17
-9162.63
-18040.9
-35148
-68004.7
300
300
300
300
300
300
300
300
300
300
300
300
300
300
300
300
300
300
300
300
300
300
300
300
300
300
300
300
300
300
300
300
300
300
300
300
300
300
300
300
300
300
300
300
300
300
300
300
300
300
300
300
300
300
300
300
300
300
300
300
300
300
300
300
300
300
300
300
300
299.999
299.999
299.999
299.999
299.999
299.999
299.999
299.998
299.998
299.998
299.997
299.997
299.996
299.996
299.995
299.995
299.994
299.993
299.992
299.991
299.99
299.989
299.987
299.986
299.984
299.982
299.98
299.978
299.976
299.973
299.97
299.967
299.964
299.96
299.956
299.952
299.947
299.943
299.937
299.931
299.925
299.919
299.912
299.904
299.896
299.888
299.878
299.869
299.858
299.847
299.836
299.823
299.81
299.797
299.782
299.767
299.751
299.734
299.717
299.698
299.679
299.659
299.638
299.616
299.593
299.569
299.545
299.519
299.493
299.466
299.438
299.409
299.379
299.348
299.317
299.284
299.251
299.218
299.183
299.148
299.112
299.075
299.037
298.999
298.961
298.922
298.882
298.842
298.802
298.761
298.719
298.678
298.636
298.593
298.551
298.508
298.465
298.422
298.379
298.336
298.293
298.25
298.207
298.164
298.121
298.078
298.036
297.993
297.951
297.909
297.867
297.826
297.784
297.743
297.703
297.662
297.622
297.583
297.543
297.504
297.466
297.427
297.389
297.351
297.314
297.277
297.24
297.204
297.168
297.132
297.096
297.061
297.026
296.991
296.957
296.922
296.888
296.854
296.82
296.786
296.753
296.719
296.686
296.652
296.619
296.586
296.553
296.52
296.486
296.453
296.42
296.386
296.353
296.319
296.286
296.252
296.218
296.184
296.15
296.115
296.08
296.045
296.008
295.968
295.924
295.87
295.797
295.683
295.489
295.131
294.443
293.091
290.408
285.069
274.443
253.335
211.511
128.886
-33.834
-353.283
-978.443
-2198.06
-4570.04
-9169.26
-18059.9
-35197.4
-68125.2
300
300
300
300
300
300
300
300
300
300
300
300
300
300
300
300
300
300
300
300
300
300
300
300
300
300
300
300
300
300
300
300
300
300
300
300
300
300
300
300
300
300
300
300
300
300
300
300
300
300
300
300
300
300
300
300
300
300
300
300
300
300
300
300
300
300
300
299.999
299.999
299.999
299.999
299.999
299.999
299.999
299.998
299.998
299.998
299.997
299.997
299.996
299.996
299.995
299.994
299.994
299.993
299.992
299.991
299.989
299.988
299.986
299.985
299.983
299.981
299.979
299.976
299.974
299.971
299.967
299.964
299.96
299.956
299.952
299.947
299.942
299.936
299.93
299.924
299.917
299.909
299.901
299.893
299.884
299.874
299.864
299.852
299.841
299.828
299.815
299.801
299.786
299.77
299.754
299.736
299.718
299.699
299.679
299.657
299.635
299.612
299.588
299.563
299.537
299.509
299.481
299.452
299.422
299.39
299.358
299.325
299.29
299.255
299.219
299.182
299.144
299.105
299.066
299.025
298.984
298.942
298.899
298.856
298.812
298.768
298.723
298.677
298.631
298.585
298.538
298.491
298.444
298.397
298.349
298.302
298.254
298.206
298.158
298.111
298.063
298.016
297.969
297.922
297.875
297.828
297.782
297.736
297.691
297.646
297.602
297.558
297.514
297.471
297.428
297.386
297.345
297.304
297.263
297.223
297.184
297.145
297.106
297.069
297.031
296.995
296.958
296.923
296.887
296.853
296.818
296.784
296.751
296.718
296.685
296.652
296.62
296.588
296.557
296.526
296.495
296.464
296.433
296.402
296.372
296.342
296.311
296.281
296.251
296.221
296.191
296.16
296.13
296.1
296.069
296.039
296.008
295.977
295.946
295.915
295.884
295.852
295.819
295.786
295.752
295.715
295.673
295.622
295.551
295.44
295.248
294.894
294.209
292.863
290.188
284.862
274.257
253.183
211.414
128.869
-33.7466
-353.099
-978.287
-2198.4
-4572.24
-9176.88
-18081.6
-35253.5
-68261.7
300
300
300
300
300
300
300
300
300
300
300
300
300
300
300
300
300
300
300
300
300
300
300
300
300
300
300
300
300
300
300
300
300
300
300
300
300
300
300
300
300
300
300
300
300
300
300
300
300
300
300
300
300
300
300
300
300
300
300
300
300
300
300
300
300
300
299.999
299.999
299.999
299.999
299.999
299.999
299.998
299.998
299.998
299.997
299.997
299.996
299.996
299.995
299.994
299.993
299.992
299.991
299.99
299.989
299.987
299.985
299.984
299.982
299.979
299.977
299.974
299.971
299.968
299.964
299.961
299.956
299.952
299.947
299.942
299.936
299.929
299.923
299.915
299.908
299.899
299.89
299.88
299.87
299.859
299.847
299.835
299.821
299.807
299.792
299.776
299.759
299.741
299.722
299.702
299.681
299.659
299.636
299.611
299.586
299.559
299.531
299.502
299.472
299.441
299.408
299.375
299.34
299.304
299.266
299.228
299.188
299.148
299.106
299.063
299.02
298.975
298.929
298.883
298.835
298.787
298.738
298.688
298.638
298.587
298.536
298.484
298.431
298.378
298.325
298.272
298.219
298.165
298.111
298.057
298.004
297.95
297.897
297.843
297.79
297.738
297.685
297.633
297.582
297.531
297.48
297.43
297.381
297.332
297.284
297.237
297.19
297.144
297.099
297.055
297.011
296.968
296.926
296.885
296.844
296.805
296.766
296.728
296.69
296.654
296.618
296.583
296.548
296.514
296.481
296.449
296.417
296.385
296.355
296.324
296.294
296.265
296.236
296.208
296.179
296.151
296.124
296.097
296.069
296.042
296.016
295.989
295.962
295.936
295.909
295.883
295.856
295.83
295.803
295.776
295.749
295.722
295.695
295.668
295.64
295.612
295.584
295.555
295.526
295.496
295.465
295.431
295.392
295.343
295.275
295.167
294.979
294.627
293.948
292.607
289.942
284.629
274.048
253.011
211.299
128.84
-33.6662
-352.922
-978.16
-2198.86
-4574.83
-9185.57
-18106.1
-35316.5
-68414.5
300
300
300
300
300
300
300
300
300
300
300
300
300
300
300
300
300
300
300
300
300
300
300
300
300
300
300
300
300
300
300
300
300
300
300
300
300
300
300
300
300
300
300
300
300
300
300
300
300
300
300
300
300
300
300
300
300
300
300
300
300
300
300
300
299.999
299.999
299.999
299.999
299.999
299.999
299.998
299.998
299.998
299.997
299.997
299.996
299.995
299.995
299.994
299.993
299.992
299.991
299.989
299.988
299.986
299.985
299.983
299.98
299.978
299.975
299.972
299.969
299.965
299.961
299.957
299.952
299.947
299.942
299.936
299.929
299.922
299.915
299.906
299.898
299.888
299.878
299.867
299.855
299.843
299.829
299.815
299.8
299.784
299.766
299.748
299.729
299.708
299.687
299.664
299.64
299.614
299.588
299.56
299.53
299.5
299.468
299.434
299.4
299.363
299.326
299.287
299.247
299.205
299.162
299.118
299.072
299.025
298.977
298.927
298.877
298.825
298.772
298.718
298.664
298.608
298.551
298.494
298.436
298.378
298.318
298.259
298.199
298.138
298.077
298.016
297.955
297.894
297.833
297.772
297.711
297.65
297.59
297.53
297.47
297.411
297.353
297.295
297.237
297.181
297.125
297.07
297.015
296.962
296.91
296.858
296.808
296.758
296.71
296.662
296.616
296.571
296.527
296.483
296.441
296.401
296.361
296.322
296.284
296.247
296.212
296.177
296.143
296.11
296.078
296.047
296.017
295.988
295.959
295.931
295.904
295.877
295.851
295.826
295.801
295.776
295.752
295.729
295.705
295.682
295.659
295.637
295.614
295.592
295.57
295.548
295.526
295.504
295.481
295.459
295.437
295.414
295.392
295.369
295.345
295.322
295.298
295.274
295.25
295.225
295.199
295.173
295.145
295.114
295.079
295.033
294.968
294.864
294.679
294.332
293.657
292.323
289.667
284.37
273.813
252.815
211.165
128.795
-33.5981
-352.76
-978.077
-2199.46
-4577.83
-9195.41
-18133.6
-35386.6
-68584.2
300
300
300
300
300
300
300
300
300
300
300
300
300
300
300
300
300
300
300
300
300
300
300
300
300
300
300
300
300
300
300
300
300
300
300
300
300
300
300
300
300
300
300
300
300
300
300
300
300
300
300
300
300
300
300
300
300
300
300
300
300
300
299.999
299.999
299.999
299.999
299.999
299.999
299.998
299.998
299.998
299.997
299.997
299.996
299.995
299.995
299.994
299.993
299.992
299.99
299.989
299.987
299.986
299.984
299.981
299.979
299.976
299.973
299.97
299.966
299.962
299.958
299.953
299.948
299.942
299.936
299.93
299.922
299.914
299.906
299.897
299.887
299.876
299.865
299.852
299.839
299.825
299.81
299.794
299.776
299.758
299.738
299.718
299.695
299.672
299.647
299.621
299.594
299.565
299.534
299.502
299.468
299.433
299.396
299.358
299.318
299.276
299.233
299.188
299.141
299.093
299.044
298.992
298.939
298.885
298.829
298.772
298.713
298.654
298.592
298.53
298.467
298.402
298.337
298.271
298.204
298.136
298.068
297.999
297.93
297.86
297.79
297.72
297.65
297.58
297.51
297.44
297.371
297.301
297.233
297.165
297.097
297.03
296.964
296.899
296.834
296.771
296.709
296.647
296.587
296.528
296.471
296.414
296.359
296.305
296.253
296.201
296.152
296.103
296.057
296.011
295.967
295.924
295.883
295.843
295.805
295.768
295.732
295.698
295.664
295.633
295.602
295.572
295.544
295.517
295.49
295.465
295.441
295.417
295.394
295.372
295.351
295.331
295.311
295.291
295.272
295.254
295.236
295.218
295.2
295.183
295.166
295.149
295.132
295.115
295.098
295.081
295.064
295.047
295.03
295.012
294.994
294.976
294.958
294.939
294.919
294.9
294.88
294.859
294.838
294.815
294.791
294.765
294.733
294.691
294.63
294.529
294.348
294.006
293.336
292.009
289.364
284.083
273.552
252.595
211.009
128.731
-33.5485
-352.625
-978.055
-2200.23
-4581.3
-9206.48
-18164.1
-35464.1
-68771.1
300
300
300
300
300
300
300
300
300
300
300
300
300
300
300
300
300
300
300
300
300
300
300
300
300
300
300
300
300
300
300
300
300
300
300
300
300
300
300
300
300
300
300
300
300
300
300
300
300
300
300
300
300
300
300
300
300
300
300
300
300
299.999
299.999
299.999
299.999
299.999
299.998
299.998
299.998
299.997
299.997
299.996
299.995
299.995
299.994
299.993
299.991
299.99
299.989
299.987
299.985
299.983
299.98
299.978
299.975
299.972
299.968
299.964
299.96
299.955
299.95
299.944
299.938
299.931
299.923
299.915
299.906
299.897
299.887
299.875
299.863
299.851
299.837
299.822
299.806
299.789
299.77
299.751
299.73
299.708
299.684
299.659
299.633
299.604
299.575
299.543
299.51
299.475
299.438
299.4
299.359
299.317
299.273
299.227
299.179
299.129
299.077
299.023
298.968
298.91
298.851
298.79
298.727
298.662
298.596
298.528
298.459
298.388
298.316
298.242
298.167
298.092
298.015
297.937
297.859
297.78
297.7
297.62
297.54
297.459
297.378
297.298
297.217
297.137
297.056
296.977
296.898
296.819
296.741
296.664
296.588
296.513
296.439
296.367
296.295
296.225
296.156
296.089
296.023
295.959
295.896
295.836
295.776
295.719
295.663
295.609
295.557
295.507
295.459
295.412
295.367
295.324
295.283
295.244
295.206
295.17
295.136
295.103
295.072
295.043
295.015
294.988
294.963
294.939
294.917
294.896
294.876
294.857
294.839
294.822
294.806
294.791
294.776
294.762
294.749
294.736
294.724
294.712
294.701
294.69
294.679
294.668
294.657
294.646
294.636
294.625
294.614
294.603
294.591
294.58
294.568
294.556
294.543
294.53
294.517
294.503
294.488
294.473
294.457
294.44
294.423
294.403
294.381
294.354
294.316
294.259
294.163
293.986
293.648
292.985
291.665
289.031
283.767
273.262
252.349
210.828
128.644
-33.5239
-352.527
-978.113
-2201.2
-4585.3
-9218.88
-18197.8
-35549.3
-68975.7
300
300
300
300
300
300
300
300
300
300
300
300
300
300
300
300
300
300
300
300
300
300
300
300
300
300
300
300
300
300
300
300
300
300
300
300
300
300
300
300
300
300
300
300
300
300
300
300
300
300
300
300
300
300
300
300
300
300
300
299.999
299.999
299.999
299.999
299.999
299.998
299.998
299.998
299.997
299.997
299.996
299.995
299.995
299.994
299.993
299.991
299.99
299.988
299.986
299.984
299.982
299.979
299.977
299.973
299.97
299.966
299.962
299.957
299.952
299.946
299.939
299.933
299.925
299.917
299.908
299.898
299.887
299.876
299.863
299.85
299.836
299.82
299.803
299.785
299.766
299.745
299.723
299.7
299.675
299.648
299.62
299.589
299.557
299.523
299.488
299.45
299.41
299.368
299.324
299.278
299.229
299.178
299.126
299.07
299.013
298.953
298.891
298.827
298.76
298.692
298.621
298.548
298.473
298.397
298.318
298.238
298.156
298.072
297.987
297.9
297.812
297.723
297.633
297.542
297.451
297.359
297.266
297.173
297.079
296.986
296.893
296.8
296.707
296.615
296.523
296.432
296.342
296.253
296.164
296.078
295.992
295.908
295.825
295.744
295.665
295.587
295.511
295.438
295.366
295.296
295.228
295.163
295.099
295.038
294.979
294.923
294.868
294.816
294.767
294.719
294.674
294.631
294.59
294.551
294.515
294.481
294.449
294.418
294.39
294.364
294.34
294.317
294.296
294.277
294.259
294.243
294.228
294.215
294.203
294.192
294.182
294.173
294.165
294.158
294.152
294.146
294.141
294.136
294.132
294.128
294.124
294.121
294.117
294.114
294.11
294.107
294.103
294.099
294.095
294.091
294.086
294.08
294.075
294.068
294.062
294.054
294.046
294.037
294.028
294.018
294.006
293.994
293.98
293.962
293.94
293.907
293.855
293.763
293.591
293.259
292.602
291.29
288.668
283.421
272.944
252.074
210.62
128.529
-33.5317
-352.479
-978.272
-2202.41
-4589.89
-9232.7
-18235
-35642.4
-69198.8
300
300
300
300
300
300
300
300
300
300
300
300
300
300
300
300
300
300
300
300
300
300
300
300
300
300
300
300
300
300
300
300
300
300
300
300
300
300
300
300
300
300
300
300
300
300
300
300
300
300
300
300
300
300
300
300
300
300
299.999
299.999
299.999
299.999
299.999
299.998
299.998
299.997
299.997
299.996
299.995
299.995
299.994
299.992
299.991
299.99
299.988
299.986
299.984
299.981
299.979
299.976
299.972
299.968
299.964
299.959
299.954
299.948
299.942
299.935
299.927
299.919
299.91
299.9
299.889
299.877
299.865
299.851
299.836
299.82
299.802
299.784
299.764
299.742
299.719
299.694
299.667
299.639
299.609
299.577
299.543
299.506
299.468
299.427
299.384
299.339
299.291
299.24
299.188
299.132
299.074
299.013
298.95
298.884
298.815
298.744
298.67
298.593
298.514
298.432
298.348
298.261
298.173
298.082
297.988
297.893
297.796
297.697
297.597
297.495
297.392
297.287
297.182
297.076
296.969
296.861
296.753
296.645
296.537
296.429
296.321
296.214
296.107
296.002
295.897
295.793
295.69
295.589
295.49
295.392
295.295
295.201
295.109
295.018
294.93
294.845
294.761
294.68
294.602
294.526
294.453
294.383
294.315
294.25
294.188
294.129
294.072
294.018
293.968
293.92
293.874
293.832
293.792
293.755
293.72
293.689
293.659
293.632
293.608
293.586
293.566
293.548
293.533
293.519
293.507
293.497
293.489
293.482
293.477
293.474
293.471
293.47
293.47
293.471
293.472
293.475
293.478
293.482
293.486
293.491
293.496
293.501
293.506
293.511
293.516
293.521
293.526
293.531
293.535
293.539
293.542
293.545
293.547
293.549
293.55
293.55
293.55
293.549
293.546
293.543
293.539
293.534
293.528
293.519
293.508
293.49
293.463
293.416
293.33
293.163
292.837
292.186
290.884
288.273
283.045
272.596
251.77
210.382
128.381
-33.5801
-352.495
-978.556
-2203.91
-4595.13
-9248.08
-18275.8
-35744
-69440.8
300
300
300
300
300
300
300
300
300
300
300
300
300
300
300
300
300
300
300
300
300
300
300
300
300
300
300
300
300
300
300
300
300
300
300
300
300
300
300
300
300
300
300
300
300
300
300
300
300
300
300
300
300
300
300
300
299.999
299.999
299.999
299.999
299.999
299.998
299.998
299.998
299.997
299.996
299.996
299.995
299.994
299.993
299.991
299.99
299.988
299.986
299.984
299.981
299.978
299.975
299.971
299.967
299.962
299.957
299.952
299.945
299.938
299.931
299.922
299.913
299.903
299.892
299.88
299.867
299.853
299.838
299.821
299.803
299.784
299.763
299.74
299.716
299.69
299.662
299.633
299.601
299.567
299.531
299.492
299.451
299.407
299.361
299.312
299.261
299.206
299.149
299.089
299.026
298.959
298.89
298.817
298.741
298.662
298.58
298.495
298.407
298.316
298.221
298.124
298.024
297.922
297.816
297.708
297.598
297.486
297.371
297.255
297.137
297.017
296.896
296.773
296.65
296.526
296.401
296.276
296.15
296.025
295.9
295.775
295.651
295.528
295.405
295.284
295.164
295.046
294.929
294.815
294.702
294.592