/*--------------------------------*- C++ -*----------------------------------*\
| =========                 |                                                 |
| \\      /  F ield         | OpenFOAM: The Open Source CFD Toolbox           |
|  \\    /   O peration     | Version:  2306                                  |
|   \\  /    A nd           | Website:  www.openfoam.com                      |
|    \\/     M anipulation  |                                                 |
\*---------------------------------------------------------------------------*/
FoamFile
{
    version     2.0;
    format      ascii;
    arch        "LSB;label=32;scalar=64";
    class       volVectorField;
    location    "10";
    object      U;
}
// * * * * * * * * * * * * * * * * * * * * * * * * * * * * * * * * * * * * * //

dimensions      [0 1 -1 0 0 0 0];

internalField   nonuniform List<vector> 
32768
(
(1.00001 -4.02367e-05 0)
(1.00017 -0.000120919 0)
(1.00048 -0.000201757 0)
(1.00097 -0.000282754 0)
(1.00162 -0.000364013 0)
(1.00243 -0.000445629 0)
(1.0034 -0.000527668 0)
(1.00454 -0.000610185 0)
(1.00584 -0.000693239 0)
(1.00731 -0.000776892 0)
(1.00895 -0.000861199 0)
(1.01076 -0.000946208 0)
(1.01273 -0.00103196 0)
(1.01488 -0.00111849 0)
(1.01721 -0.00120583 0)
(1.01971 -0.00129399 0)
(1.02239 -0.00138298 0)
(1.02524 -0.0014728 0)
(1.02828 -0.00156345 0)
(1.0315 -0.0016549 0)
(1.0349 -0.0017471 0)
(1.03848 -0.00184003 0)
(1.04226 -0.00193361 0)
(1.04622 -0.00202778 0)
(1.05037 -0.00212244 0)
(1.05471 -0.0022175 0)
(1.05924 -0.00231284 0)
(1.06396 -0.00240832 0)
(1.06887 -0.0025038 0)
(1.07398 -0.00259913 0)
(1.07927 -0.00269412 0)
(1.08476 -0.00278859 0)
(1.09043 -0.00288234 0)
(1.09629 -0.00297515 0)
(1.10233 -0.00306681 0)
(1.10856 -0.00315707 0)
(1.11496 -0.0032457 0)
(1.12154 -0.00333244 0)
(1.12829 -0.00341705 0)
(1.13521 -0.00349927 0)
(1.14229 -0.00357884 0)
(1.14953 -0.00365551 0)
(1.15692 -0.00372902 0)
(1.16445 -0.00379915 0)
(1.17212 -0.00386565 0)
(1.17992 -0.0039283 0)
(1.18784 -0.00398689 0)
(1.19587 -0.00404124 0)
(1.20401 -0.00409117 0)
(1.21224 -0.00413654 0)
(1.22056 -0.00417721 0)
(1.22895 -0.00421308 0)
(1.23741 -0.00424407 0)
(1.24593 -0.00427013 0)
(1.2545 -0.00429124 0)
(1.2631 -0.0043074 0)
(1.27173 -0.00431863 0)
(1.28038 -0.00432499 0)
(1.28904 -0.00432656 0)
(1.29769 -0.00432345 0)
(1.30634 -0.00431579 0)
(1.31496 -0.00430372 0)
(1.32356 -0.00428743 0)
(1.33212 -0.0042671 0)
(1.34063 -0.00424293 0)
(1.34909 -0.00421515 0)
(1.35749 -0.00418399 0)
(1.36583 -0.00414969 0)
(1.3741 -0.0041125 0)
(1.38228 -0.00407267 0)
(1.39039 -0.00403045 0)
(1.39841 -0.00398612 0)
(1.40634 -0.00393991 0)
(1.41417 -0.00389208 0)
(1.42191 -0.00384287 0)
(1.42954 -0.00379254 0)
(1.43708 -0.0037413 0)
(1.44451 -0.00368937 0)
(1.45183 -0.00363697 0)
(1.45906 -0.00358429 0)
(1.46617 -0.00353151 0)
(1.47318 -0.0034788 0)
(1.48009 -0.00342632 0)
(1.48689 -0.00337421 0)
(1.49358 -0.00332258 0)
(1.50018 -0.00327154 0)
(1.50667 -0.00322119 0)
(1.51306 -0.00317159 0)
(1.51935 -0.00312281 0)
(1.52555 -0.00307489 0)
(1.53165 -0.00302786 0)
(1.53766 -0.00298172 0)
(1.54358 -0.00293647 0)
(1.54941 -0.00289211 0)
(1.55514 -0.00284859 0)
(1.5608 -0.00280589 0)
(1.56637 -0.00276394 0)
(1.57185 -0.00272268 0)
(1.57726 -0.00268205 0)
(1.58258 -0.00264196 0)
(1.58782 -0.00260232 0)
(1.59299 -0.00256304 0)
(1.59807 -0.00252401 0)
(1.60308 -0.00248513 0)
(1.60801 -0.00244629 0)
(1.61287 -0.00240738 0)
(1.61764 -0.00236828 0)
(1.62234 -0.00232888 0)
(1.62696 -0.00228907 0)
(1.6315 -0.00224872 0)
(1.63595 -0.00220773 0)
(1.64033 -0.00216599 0)
(1.64462 -0.00212339 0)
(1.64882 -0.00207983 0)
(1.65294 -0.0020352 0)
(1.65696 -0.00198942 0)
(1.6609 -0.0019424 0)
(1.66473 -0.00189406 0)
(1.66847 -0.00184431 0)
(1.67211 -0.00179309 0)
(1.67565 -0.00174034 0)
(1.67907 -0.00168601 0)
(1.68239 -0.00163003 0)
(1.68559 -0.00157238 0)
(1.68868 -0.00151301 0)
(1.69165 -0.0014519 0)
(1.69449 -0.00138904 0)
(1.6972 -0.00132439 0)
(1.69979 -0.00125797 0)
(1.70224 -0.00118977 0)
(1.70455 -0.0011198 0)
(1.70672 -0.00104807 0)
(1.70874 -0.000974596 0)
(1.71062 -0.000899405 0)
(1.71234 -0.000822527 0)
(1.71391 -0.000743995 0)
(1.71532 -0.000663849 0)
(1.71656 -0.000582132 0)
(1.71764 -0.000498893 0)
(1.71856 -0.00041418 0)
(1.7193 -0.000328051 0)
(1.71987 -0.00024056 0)
(1.72026 -0.00015177 0)
(1.72048 -6.17417e-05 0)
(1.72051 2.94589e-05 0)
(1.72036 0.000121763 0)
(1.72002 0.000215103 0)
(1.7195 0.00030941 0)
(1.71879 0.000404611 0)
(1.71788 0.000500633 0)
(1.71678 0.000597401 0)
(1.71549 0.000694841 0)
(1.714 0.000792875 0)
(1.71232 0.000891427 0)
(1.71044 0.000990418 0)
(1.70836 0.00108977 0)
(1.70608 0.0011894 0)
(1.7036 0.00128922 0)
(1.70092 0.00138917 0)
(1.69804 0.00148914 0)
(1.69496 0.00158906 0)
(1.69168 0.00168885 0)
(1.6882 0.0017884 0)
(1.68453 0.00188764 0)
(1.68065 0.00198648 0)
(1.67658 0.00208481 0)
(1.67231 0.00218256 0)
(1.66785 0.00227961 0)
(1.66319 0.00237588 0)
(1.65834 0.00247127 0)
(1.6533 0.00256567 0)
(1.64808 0.00265897 0)
(1.64266 0.00275109 0)
(1.63707 0.0028419 0)
(1.63129 0.00293131 0)
(1.62534 0.00301919 0)
(1.61921 0.00310545 0)
(1.61292 0.00318996 0)
(1.60645 0.00327262 0)
(1.59982 0.00335331 0)
(1.59303 0.00343193 0)
(1.58609 0.00350835 0)
(1.579 0.00358246 0)
(1.57176 0.00365417 0)
(1.56438 0.00372335 0)
(1.55686 0.0037899 0)
(1.54921 0.00385372 0)
(1.54144 0.0039147 0)
(1.53355 0.00397276 0)
(1.52555 0.00402779 0)
(1.51744 0.00407972 0)
(1.50922 0.00412846 0)
(1.50092 0.00417393 0)
(1.49252 0.00421607 0)
(1.48405 0.00425482 0)
(1.4755 0.00429012 0)
(1.46688 0.00432193 0)
(1.45821 0.0043502 0)
(1.44948 0.00437492 0)
(1.4407 0.00439606 0)
(1.43189 0.00441362 0)
(1.42304 0.00442759 0)
(1.41417 0.00443797 0)
(1.40529 0.0044448 0)
(1.39639 0.0044481 0)
(1.38749 0.00444791 0)
(1.37859 0.00444428 0)
(1.36971 0.00443726 0)
(1.36084 0.00442692 0)
(1.352 0.00441334 0)
(1.34318 0.0043966 0)
(1.33441 0.00437679 0)
(1.32567 0.00435401 0)
(1.31699 0.00432837 0)
(1.30836 0.00429998 0)
(1.29978 0.00426896 0)
(1.29128 0.00423544 0)
(1.28284 0.00419954 0)
(1.27448 0.0041614 0)
(1.26619 0.00412116 0)
(1.25799 0.00407895 0)
(1.24987 0.00403492 0)
(1.24185 0.00398922 0)
(1.23391 0.00394198 0)
(1.22608 0.00389336 0)
(1.21834 0.00384349 0)
(1.2107 0.00379253 0)
(1.20317 0.00374062 0)
(1.19574 0.0036879 0)
(1.18841 0.00363451 0)
(1.1812 0.00358058 0)
(1.17409 0.00352626 0)
(1.16709 0.00347166 0)
(1.1602 0.00341693 0)
(1.15342 0.00336217 0)
(1.14675 0.0033075 0)
(1.14019 0.00325305 0)
(1.13374 0.00319891 0)
(1.1274 0.00314518 0)
(1.12116 0.00309197 0)
(1.11503 0.00303937 0)
(1.109 0.00298745 0)
(1.10308 0.0029363 0)
(1.09726 0.00288599 0)
(1.09154 0.00283659 0)
(1.08591 0.00278815 0)
(1.08038 0.00274073 0)
(1.07495 0.0026944 0)
(1.06961 0.00264911 0)
(1.06434 0.00260509 0)
(1.05921 0.00256198 0)
(1.05405 0.00252052 0)
(1.04924 0.00247934 0)
(1.04385 0.0024402 0)
(1.04011 0.0024024 0)
(1.0324 0.00235629 0)
(1.00001 -0.000120885 0)
(1.00017 -0.00036298 0)
(1.00048 -0.000605454 0)
(1.00097 -0.000848441 0)
(1.00161 -0.00109221 0)
(1.00242 -0.00133703 0)
(1.0034 -0.0015831 0)
(1.00453 -0.0018306 0)
(1.00584 -0.00207973 0)
(1.00731 -0.00233065 0)
(1.00894 -0.00258355 0)
(1.01075 -0.00283855 0)
(1.01273 -0.00309579 0)
(1.01487 -0.00335538 0)
(1.0172 -0.00361738 0)
(1.0197 -0.00388187 0)
(1.02237 -0.00414887 0)
(1.02523 -0.00441837 0)
(1.02826 -0.00469035 0)
(1.03148 -0.00496473 0)
(1.03488 -0.00524142 0)
(1.03847 -0.00552027 0)
(1.04224 -0.0058011 0)
(1.0462 -0.0060837 0)
(1.05035 -0.00636779 0)
(1.05469 -0.00665309 0)
(1.05922 -0.00693923 0)
(1.06394 -0.00722582 0)
(1.06886 -0.00751243 0)
(1.07396 -0.00779857 0)
(1.07926 -0.00808373 0)
(1.08474 -0.00836733 0)
(1.09042 -0.00864877 0)
(1.09628 -0.00892742 0)
(1.10233 -0.0092026 0)
(1.10856 -0.00947361 0)
(1.11497 -0.00973972 0)
(1.12155 -0.0100002 0)
(1.12831 -0.0102542 0)
(1.13523 -0.0105011 0)
(1.14232 -0.01074 0)
(1.14957 -0.0109703 0)
(1.15696 -0.011191 0)
(1.1645 -0.0114016 0)
(1.17218 -0.0116013 0)
(1.17999 -0.0117894 0)
(1.18792 -0.0119653 0)
(1.19596 -0.0121285 0)
(1.20411 -0.0122784 0)
(1.21235 -0.0124146 0)
(1.22068 -0.0125367 0)
(1.22908 -0.0126443 0)
(1.23756 -0.0127373 0)
(1.24609 -0.0128155 0)
(1.25466 -0.0128788 0)
(1.26328 -0.0129272 0)
(1.27192 -0.0129608 0)
(1.28058 -0.0129798 0)
(1.28925 -0.0129844 0)
(1.29791 -0.0129749 0)
(1.30657 -0.0129517 0)
(1.3152 -0.0129153 0)
(1.32381 -0.0128662 0)
(1.33237 -0.012805 0)
(1.3409 -0.0127323 0)
(1.34937 -0.0126487 0)
(1.35778 -0.012555 0)
(1.36612 -0.0124518 0)
(1.37439 -0.01234 0)
(1.38259 -0.0122203 0)
(1.3907 -0.0120934 0)
(1.39872 -0.0119601 0)
(1.40666 -0.0118212 0)
(1.41449 -0.0116775 0)
(1.42223 -0.0115297 0)
(1.42987 -0.0113784 0)
(1.43741 -0.0112245 0)
(1.44484 -0.0110685 0)
(1.45217 -0.0109111 0)
(1.4594 -0.0107529 0)
(1.46651 -0.0105944 0)
(1.47352 -0.0104361 0)
(1.48043 -0.0102786 0)
(1.48723 -0.0101221 0)
(1.49393 -0.00996714 0)
(1.50052 -0.00981395 0)
(1.50701 -0.00966282 0)
(1.5134 -0.00951399 0)
(1.51969 -0.00936761 0)
(1.52589 -0.00922382 0)
(1.53199 -0.0090827 0)
(1.538 -0.00894429 0)
(1.54391 -0.00880857 0)
(1.54974 -0.00867551 0)
(1.55548 -0.008545 0)
(1.56113 -0.00841694 0)
(1.5667 -0.00829115 0)
(1.57219 -0.00816746 0)
(1.57759 -0.00804564 0)
(1.58291 -0.00792545 0)
(1.58816 -0.00780661 0)
(1.59332 -0.00768886 0)
(1.59841 -0.00757187 0)
(1.60342 -0.00745533 0)
(1.60835 -0.00733891 0)
(1.6132 -0.00722228 0)
(1.61798 -0.00710508 0)
(1.62268 -0.00698699 0)
(1.6273 -0.00686764 0)
(1.63184 -0.00674669 0)
(1.6363 -0.00662382 0)
(1.64067 -0.00649868 0)
(1.64497 -0.00637096 0)
(1.64917 -0.00624034 0)
(1.65329 -0.00610654 0)
(1.65732 -0.00596927 0)
(1.66126 -0.00582827 0)
(1.6651 -0.00568329 0)
(1.66884 -0.00553409 0)
(1.67248 -0.00538048 0)
(1.67602 -0.00522227 0)
(1.67945 -0.00505928 0)
(1.68277 -0.00489137 0)
(1.68598 -0.00471842 0)
(1.68907 -0.00454033 0)
(1.69204 -0.004357 0)
(1.69489 -0.00416839 0)
(1.6976 -0.00397445 0)
(1.70019 -0.00377517 0)
(1.70265 -0.00357054 0)
(1.70496 -0.00336059 0)
(1.70713 -0.00314536 0)
(1.70916 -0.00292489 0)
(1.71104 -0.00269927 0)
(1.71277 -0.00246858 0)
(1.71434 -0.00223292 0)
(1.71575 -0.00199242 0)
(1.717 -0.00174721 0)
(1.71808 -0.00149742 0)
(1.719 -0.00124321 0)
(1.71975 -0.000984745 0)
(1.72032 -0.000722197 0)
(1.72072 -0.000455747 0)
(1.72093 -0.000185583 0)
(1.72097 8.80998e-05 0)
(1.72082 0.000365098 0)
(1.72048 0.000645206 0)
(1.71996 0.000928214 0)
(1.71925 0.00121391 0)
(1.71834 0.00150206 0)
(1.71725 0.00179246 0)
(1.71596 0.00208487 0)
(1.71447 0.00237906 0)
(1.71279 0.00267481 0)
(1.7109 0.00297187 0)
(1.70882 0.00327002 0)
(1.70654 0.003569 0)
(1.70406 0.00386857 0)
(1.70138 0.0041685 0)
(1.69851 0.00446851 0)
(1.69543 0.00476837 0)
(1.69215 0.00506782 0)
(1.68867 0.00536658 0)
(1.68499 0.0056644 0)
(1.68111 0.00596101 0)
(1.67704 0.00625612 0)
(1.67276 0.00654945 0)
(1.6683 0.00684072 0)
(1.66364 0.00712963 0)
(1.65879 0.00741589 0)
(1.65375 0.0076992 0)
(1.64852 0.00797923 0)
(1.6431 0.00825568 0)
(1.6375 0.00852823 0)
(1.63172 0.00879655 0)
(1.62576 0.00906031 0)
(1.61963 0.00931919 0)
(1.61333 0.00957284 0)
(1.60686 0.00982092 0)
(1.60023 0.0100631 0)
(1.59343 0.0102991 0)
(1.58648 0.0105284 0)
(1.57938 0.0107509 0)
(1.57214 0.0109661 0)
(1.56475 0.0111737 0)
(1.55723 0.0113735 0)
(1.54957 0.011565 0)
(1.54179 0.011748 0)
(1.53389 0.0119223 0)
(1.52588 0.0120875 0)
(1.51776 0.0122433 0)
(1.50954 0.0123896 0)
(1.50123 0.0125261 0)
(1.49283 0.0126525 0)
(1.48434 0.0127688 0)
(1.47579 0.0128747 0)
(1.46716 0.0129702 0)
(1.45848 0.013055 0)
(1.44974 0.0131292 0)
(1.44095 0.0131926 0)
(1.43213 0.0132452 0)
(1.42328 0.0132871 0)
(1.4144 0.0133182 0)
(1.4055 0.0133387 0)
(1.3966 0.0133485 0)
(1.38769 0.0133479 0)
(1.37878 0.0133369 0)
(1.36989 0.0133158 0)
(1.36101 0.0132847 0)
(1.35216 0.0132438 0)
(1.34334 0.0131935 0)
(1.33455 0.0131339 0)
(1.32581 0.0130655 0)
(1.31712 0.0129885 0)
(1.30848 0.0129032 0)
(1.2999 0.01281 0)
(1.29139 0.0127093 0)
(1.28294 0.0126014 0)
(1.27458 0.0124869 0)
(1.26628 0.012366 0)
(1.25808 0.0122392 0)
(1.24996 0.012107 0)
(1.24192 0.0119697 0)
(1.23399 0.0118279 0)
(1.22615 0.0116818 0)
(1.2184 0.0115321 0)
(1.21076 0.0113791 0)
(1.20322 0.0112232 0)
(1.19579 0.0110649 0)
(1.18847 0.0109046 0)
(1.18125 0.0107427 0)
(1.17414 0.0105796 0)
(1.16714 0.0104157 0)
(1.16025 0.0102513 0)
(1.15347 0.0100869 0)
(1.1468 0.00992283 0)
(1.14023 0.00975935 0)
(1.13378 0.00959683 0)
(1.12744 0.00943557 0)
(1.1212 0.00927585 0)
(1.11507 0.00911795 0)
(1.10904 0.00896212 0)
(1.10312 0.0088086 0)
(1.0973 0.00865761 0)
(1.09158 0.00850933 0)
(1.08596 0.00836397 0)
(1.08043 0.00822166 0)
(1.07499 0.00808259 0)
(1.06966 0.00794678 0)
(1.06439 0.00781453 0)
(1.05926 0.00768556 0)
(1.0541 0.00756036 0)
(1.0493 0.00743888 0)
(1.0439 0.00731804 0)
(1.04017 0.0072137 0)
(1.03246 0.00706412 0)
(1.00001 -0.000201563 0)
(1.00017 -0.000604924 0)
(1.00048 -0.00100884 0)
(1.00097 -0.00141366 0)
(1.00161 -0.00181981 0)
(1.00242 -0.00222767 0)
(1.00339 -0.0026376 0)
(1.00453 -0.00304994 0)
(1.00583 -0.00346499 0)
(1.00729 -0.00388307 0)
(1.00893 -0.00430444 0)
(1.01073 -0.00472936 0)
(1.01271 -0.00515802 0)
(1.01485 -0.00559062 0)
(1.01717 -0.00602729 0)
(1.01967 -0.00646812 0)
(1.02234 -0.00691317 0)
(1.0252 -0.00736243 0)
(1.02823 -0.00781585 0)
(1.03144 -0.00827332 0)
(1.03484 -0.00873467 0)
(1.03843 -0.00919967 0)
(1.0422 -0.00966802 0)
(1.04616 -0.0101394 0)
(1.05031 -0.0106133 0)
(1.05465 -0.0110892 0)
(1.05918 -0.0115666 0)
(1.0639 -0.0120448 0)
(1.06882 -0.012523 0)
(1.07393 -0.0130006 0)
(1.07923 -0.0134765 0)
(1.08472 -0.0139499 0)
(1.0904 -0.0144197 0)
(1.09626 -0.0148849 0)
(1.10232 -0.0153444 0)
(1.10856 -0.0157969 0)
(1.11497 -0.0162413 0)
(1.12157 -0.0166762 0)
(1.12834 -0.0171006 0)
(1.13528 -0.0175129 0)
(1.14238 -0.017912 0)
(1.14964 -0.0182966 0)
(1.15705 -0.0186653 0)
(1.1646 -0.0190171 0)
(1.1723 -0.0193506 0)
(1.18012 -0.0196648 0)
(1.18807 -0.0199587 0)
(1.19613 -0.0202313 0)
(1.2043 -0.0204816 0)
(1.21257 -0.020709 0)
(1.22092 -0.0209128 0)
(1.22935 -0.0210925 0)
(1.23784 -0.0212476 0)
(1.24639 -0.021378 0)
(1.25499 -0.0214834 0)
(1.26363 -0.021564 0)
(1.2723 -0.0216198 0)
(1.28098 -0.0216511 0)
(1.28967 -0.0216584 0)
(1.29835 -0.0216421 0)
(1.30703 -0.021603 0)
(1.31568 -0.0215418 0)
(1.32431 -0.0214593 0)
(1.33289 -0.0213565 0)
(1.34143 -0.0212345 0)
(1.34992 -0.0210944 0)
(1.35834 -0.0209374 0)
(1.3667 -0.0207646 0)
(1.37499 -0.0205773 0)
(1.3832 -0.0203768 0)
(1.39132 -0.0201645 0)
(1.39935 -0.0199415 0)
(1.4073 -0.0197091 0)
(1.41514 -0.0194687 0)
(1.42289 -0.0192215 0)
(1.43053 -0.0189686 0)
(1.43808 -0.0187113 0)
(1.44552 -0.0184506 0)
(1.45285 -0.0181876 0)
(1.46007 -0.0179233 0)
(1.46719 -0.0176585 0)
(1.47421 -0.0173942 0)
(1.48111 -0.0171311 0)
(1.48791 -0.0168699 0)
(1.49461 -0.0166112 0)
(1.5012 -0.0163556 0)
(1.50769 -0.0161034 0)
(1.51408 -0.0158552 0)
(1.52037 -0.015611 0)
(1.52657 -0.0153713 0)
(1.53267 -0.015136 0)
(1.53867 -0.0149053 0)
(1.54459 -0.0146792 0)
(1.55041 -0.0144575 0)
(1.55615 -0.0142401 0)
(1.5618 -0.0140268 0)
(1.56737 -0.0138173 0)
(1.57285 -0.0136114 0)
(1.57826 -0.0134086 0)
(1.58358 -0.0132086 0)
(1.58882 -0.0130108 0)
(1.59399 -0.0128149 0)
(1.59907 -0.0126202 0)
(1.60409 -0.0124264 0)
(1.60902 -0.0122327 0)
(1.61388 -0.0120387 0)
(1.61865 -0.0118437 0)
(1.62336 -0.0116472 0)
(1.62798 -0.0114487 0)
(1.63252 -0.0112474 0)
(1.63699 -0.011043 0)
(1.64137 -0.0108348 0)
(1.64566 -0.0106222 0)
(1.64988 -0.0104048 0)
(1.654 -0.0101821 0)
(1.65803 -0.00995358 0)
(1.66198 -0.00971881 0)
(1.66582 -0.00947739 0)
(1.66957 -0.00922893 0)
(1.67322 -0.00897309 0)
(1.67677 -0.00870955 0)
(1.68021 -0.00843802 0)
(1.68353 -0.00815827 0)
(1.68675 -0.0078701 0)
(1.68985 -0.00757332 0)
(1.69283 -0.0072678 0)
(1.69568 -0.00695344 0)
(1.69841 -0.00663019 0)
(1.701 -0.006298 0)
(1.70346 -0.00595688 0)
(1.70578 -0.00560687 0)
(1.70797 -0.00524803 0)
(1.71 -0.00488045 0)
(1.71189 -0.00450426 0)
(1.71362 -0.0041196 0)
(1.7152 -0.00372666 0)
(1.71662 -0.00332562 0)
(1.71787 -0.00291671 0)
(1.71896 -0.00250017 0)
(1.71989 -0.00207625 0)
(1.72064 -0.00164522 0)
(1.72122 -0.00120738 0)
(1.72162 -0.000763026 0)
(1.72184 -0.000312475 0)
(1.72188 0.000143947 0)
(1.72173 0.000605905 0)
(1.7214 0.00107305 0)
(1.72088 0.00154504 0)
(1.72017 0.0020215 0)
(1.71927 0.00250207 0)
(1.71818 0.00298638 0)
(1.71689 0.00347405 0)
(1.7154 0.0039647 0)
(1.71372 0.00445794 0)
(1.71184 0.00495338 0)
(1.70976 0.00545062 0)
(1.70748 0.00594926 0)
(1.705 0.00644889 0)
(1.70232 0.0069491 0)
(1.69943 0.00744948 0)
(1.69635 0.0079496 0)
(1.69307 0.00844903 0)
(1.68959 0.00894733 0)
(1.68591 0.00944406 0)
(1.68203 0.00993877 0)
(1.67795 0.010431 0)
(1.67367 0.0109203 0)
(1.6692 0.0114061 0)
(1.66454 0.011888 0)
(1.65968 0.0123655 0)
(1.65463 0.0128381 0)
(1.64939 0.0133052 0)
(1.64397 0.0137664 0)
(1.63836 0.014221 0)
(1.63258 0.0146687 0)
(1.62661 0.0151087 0)
(1.62047 0.0155406 0)
(1.61416 0.0159637 0)
(1.60768 0.0163776 0)
(1.60103 0.0167817 0)
(1.59423 0.0171753 0)
(1.58727 0.017558 0)
(1.58015 0.0179292 0)
(1.57289 0.0182883 0)
(1.56549 0.0186347 0)
(1.55796 0.018968 0)
(1.55029 0.0192876 0)
(1.54249 0.019593 0)
(1.53458 0.0198838 0)
(1.52655 0.0201594 0)
(1.51842 0.0204194 0)
(1.51018 0.0206635 0)
(1.50185 0.0208912 0)
(1.49343 0.0211022 0)
(1.48493 0.0212961 0)
(1.47636 0.0214728 0)
(1.46771 0.021632 0)
(1.45901 0.0217735 0)
(1.45025 0.0218972 0)
(1.44145 0.0220029 0)
(1.43261 0.0220907 0)
(1.42374 0.0221604 0)
(1.41484 0.0222122 0)
(1.40593 0.0222462 0)
(1.39701 0.0222624 0)
(1.38808 0.0222612 0)
(1.37916 0.0222427 0)
(1.37025 0.0222072 0)
(1.36135 0.0221551 0)
(1.35249 0.0220867 0)
(1.34365 0.0220025 0)
(1.33485 0.0219029 0)
(1.32609 0.0217884 0)
(1.31738 0.0216596 0)
(1.30873 0.021517 0)
(1.30014 0.0213613 0)
(1.29161 0.021193 0)
(1.28315 0.0210128 0)
(1.27477 0.0208213 0)
(1.26647 0.0206194 0)
(1.25825 0.0204076 0)
(1.25012 0.0201867 0)
(1.24208 0.0199574 0)
(1.23413 0.0197204 0)
(1.22628 0.0194765 0)
(1.21853 0.0192264 0)
(1.21089 0.0189709 0)
(1.20334 0.0187105 0)
(1.1959 0.0184462 0)
(1.18857 0.0181785 0)
(1.18135 0.0179082 0)
(1.17423 0.0176359 0)
(1.16723 0.0173622 0)
(1.16034 0.0170879 0)
(1.15355 0.0168134 0)
(1.14688 0.0165395 0)
(1.14032 0.0162667 0)
(1.13386 0.0159954 0)
(1.12752 0.0157263 0)
(1.12128 0.0154598 0)
(1.11515 0.0151963 0)
(1.10913 0.0149363 0)
(1.1032 0.0146801 0)
(1.09738 0.0144282 0)
(1.09166 0.0141808 0)
(1.08604 0.0139384 0)
(1.08052 0.013701 0)
(1.07508 0.013469 0)
(1.06975 0.0132426 0)
(1.06449 0.0130219 0)
(1.05936 0.0128073 0)
(1.0542 0.0125977 0)
(1.0494 0.0123977 0)
(1.04401 0.0121924 0)
(1.04028 0.0120285 0)
(1.03258 0.0117662 0)
(1.00001 -0.000281974 0)
(1.00017 -0.000846201 0)
(1.00048 -0.0014112 0)
(1.00096 -0.00197753 0)
(1.00161 -0.00254573 0)
(1.00241 -0.00311634 0)
(1.00338 -0.00368986 0)
(1.00452 -0.00426677 0)
(1.00581 -0.00484752 0)
(1.00728 -0.00543254 0)
(1.00891 -0.00602222 0)
(1.01071 -0.0066169 0)
(1.01268 -0.00721688 0)
(1.01482 -0.00782243 0)
(1.01714 -0.00843373 0)
(1.01963 -0.00905092 0)
(1.0223 -0.00967409 0)
(1.02515 -0.0103032 0)
(1.02818 -0.0109383 0)
(1.03139 -0.0115791 0)
(1.03479 -0.0122254 0)
(1.03837 -0.0128769 0)
(1.04214 -0.0135332 0)
(1.0461 -0.0141938 0)
(1.05025 -0.0148581 0)
(1.05459 -0.0155253 0)
(1.05912 -0.0161947 0)
(1.06384 -0.0168653 0)
(1.06876 -0.0175361 0)
(1.07387 -0.018206 0)
(1.07918 -0.0188737 0)
(1.08467 -0.0195379 0)
(1.09036 -0.0201973 0)
(1.09624 -0.0208503 0)
(1.1023 -0.0214952 0)
(1.10855 -0.0221306 0)
(1.11498 -0.0227545 0)
(1.12159 -0.0233654 0)
(1.12838 -0.0239613 0)
(1.13534 -0.0245405 0)
(1.14246 -0.0251011 0)
(1.14974 -0.0256413 0)
(1.15717 -0.0261594 0)
(1.16475 -0.0266535 0)
(1.17247 -0.0271221 0)
(1.18033 -0.0275636 0)
(1.1883 -0.0279764 0)
(1.1964 -0.0283592 0)
(1.2046 -0.0287108 0)
(1.21289 -0.0290301 0)
(1.22128 -0.0293162 0)
(1.22974 -0.0295683 0)
(1.23827 -0.0297859 0)
(1.24685 -0.0299686 0)
(1.25549 -0.0301163 0)
(1.26416 -0.0302289 0)
(1.27286 -0.0303066 0)
(1.28157 -0.0303499 0)
(1.29029 -0.0303593 0)
(1.29901 -0.0303357 0)
(1.30772 -0.0302798 0)
(1.3164 -0.0301928 0)
(1.32505 -0.030076 0)
(1.33367 -0.0299307 0)
(1.34224 -0.0297584 0)
(1.35075 -0.0295606 0)
(1.3592 -0.0293389 0)
(1.36758 -0.0290953 0)
(1.37588 -0.0288313 0)
(1.38411 -0.0285488 0)
(1.39225 -0.0282496 0)
(1.4003 -0.0279355 0)
(1.40826 -0.0276085 0)
(1.41611 -0.0272701 0)
(1.42387 -0.0269223 0)
(1.43153 -0.0265666 0)
(1.43908 -0.0262047 0)
(1.44652 -0.0258382 0)
(1.45386 -0.0254686 0)
(1.46109 -0.0250972 0)
(1.46822 -0.0247253 0)
(1.47523 -0.0243541 0)
(1.48214 -0.0239848 0)
(1.48894 -0.0236182 0)
(1.49563 -0.0232552 0)
(1.50223 -0.0228966 0)
(1.50872 -0.022543 0)
(1.5151 -0.022195 0)
(1.52139 -0.0218528 0)
(1.52758 -0.0215169 0)
(1.53368 -0.0211874 0)
(1.53968 -0.0208644 0)
(1.5456 -0.0205479 0)
(1.55142 -0.0202376 0)
(1.55715 -0.0199335 0)
(1.5628 -0.0196352 0)
(1.56837 -0.0193424 0)
(1.57385 -0.0190546 0)
(1.57925 -0.0187712 0)
(1.58457 -0.0184917 0)
(1.58982 -0.0182155 0)
(1.59498 -0.0179418 0)
(1.60007 -0.01767 0)
(1.60508 -0.0173993 0)
(1.61002 -0.0171289 0)
(1.61488 -0.016858 0)
(1.61966 -0.0165858 0)
(1.62437 -0.0163115 0)
(1.629 -0.0160343 0)
(1.63355 -0.0157533 0)
(1.63801 -0.0154678 0)
(1.6424 -0.015177 0)
(1.64671 -0.0148801 0)
(1.65093 -0.0145764 0)
(1.65506 -0.0142651 0)
(1.6591 -0.0139458 0)
(1.66305 -0.0136176 0)
(1.66691 -0.0132801 0)
(1.67067 -0.0129327 0)
(1.67433 -0.0125749 0)
(1.67789 -0.0122062 0)
(1.68134 -0.0118264 0)
(1.68468 -0.011435 0)
(1.6879 -0.0110317 0)
(1.69101 -0.0106163 0)
(1.694 -0.0101886 0)
(1.69687 -0.00974854 0)
(1.69961 -0.00929595 0)
(1.70221 -0.0088308 0)
(1.70469 -0.0083531 0)
(1.70702 -0.0078629 0)
(1.70921 -0.00736029 0)
(1.71126 -0.00684542 0)
(1.71315 -0.00631845 0)
(1.7149 -0.00577959 0)
(1.71649 -0.0052291 0)
(1.71792 -0.00466724 0)
(1.71918 -0.00409433 0)
(1.72028 -0.0035107 0)
(1.72121 -0.00291672 0)
(1.72197 -0.00231277 0)
(1.72256 -0.00169926 0)
(1.72297 -0.00107661 0)
(1.72319 -0.000445267 0)
(1.72324 0.000194312 0)
(1.7231 0.000841654 0)
(1.72278 0.00149628 0)
(1.72226 0.00215768 0)
(1.72156 0.00282536 0)
(1.72066 0.00349881 0)
(1.71957 0.00417749 0)
(1.71828 0.00486089 0)
(1.7168 0.00554847 0)
(1.71511 0.00623968 0)
(1.71323 0.00693398 0)
(1.71115 0.00763081 0)
(1.70887 0.0083296 0)
(1.70639 0.00902979 0)
(1.70371 0.00973081 0)
(1.70083 0.0104321 0)
(1.69774 0.011133 0)
(1.69446 0.0118329 0)
(1.69097 0.0125313 0)
(1.68729 0.0132275 0)
(1.6834 0.0139208 0)
(1.67932 0.0146107 0)
(1.67503 0.0152965 0)
(1.67055 0.0159775 0)
(1.66588 0.016653 0)
(1.66102 0.0173223 0)
(1.65596 0.0179848 0)
(1.65071 0.0186396 0)
(1.64528 0.0192861 0)
(1.63966 0.0199235 0)
(1.63386 0.020551 0)
(1.62788 0.021168 0)
(1.62172 0.0217735 0)
(1.6154 0.0223668 0)
(1.6089 0.0229472 0)
(1.60224 0.0235138 0)
(1.59542 0.0240658 0)
(1.58844 0.0246024 0)
(1.58131 0.0251229 0)
(1.57403 0.0256265 0)
(1.56661 0.0261124 0)
(1.55905 0.0265798 0)
(1.55136 0.027028 0)
(1.54354 0.0274563 0)
(1.53561 0.0278641 0)
(1.52756 0.0282506 0)
(1.5194 0.0286153 0)
(1.51114 0.0289576 0)
(1.50278 0.0292769 0)
(1.49434 0.0295728 0)
(1.48581 0.0298448 0)
(1.47721 0.0300925 0)
(1.46854 0.0303157 0)
(1.45981 0.030514 0)
(1.45103 0.0306873 0)
(1.4422 0.0308354 0)
(1.43333 0.0309583 0)
(1.42443 0.0310559 0)
(1.41551 0.0311283 0)
(1.40657 0.0311757 0)
(1.39762 0.0311982 0)
(1.38867 0.0311961 0)
(1.37972 0.0311698 0)
(1.37078 0.0311196 0)
(1.36186 0.0310461 0)
(1.35297 0.0309498 0)
(1.34411 0.0308312 0)
(1.33529 0.0306911 0)
(1.32651 0.03053 0)
(1.31778 0.0303489 0)
(1.3091 0.0301484 0)
(1.30049 0.0299294 0)
(1.29194 0.0296928 0)
(1.28347 0.0294395 0)
(1.27507 0.0291705 0)
(1.26675 0.0288867 0)
(1.25851 0.0285891 0)
(1.25037 0.0282788 0)
(1.24231 0.0279567 0)
(1.23435 0.0276238 0)
(1.22649 0.0272813 0)
(1.21873 0.0269301 0)
(1.21107 0.0265712 0)
(1.20351 0.0262057 0)
(1.19607 0.0258346 0)
(1.18873 0.0254588 0)
(1.1815 0.0250793 0)
(1.17438 0.024697 0)
(1.16737 0.024313 0)
(1.16047 0.023928 0)
(1.15368 0.0235429 0)
(1.14701 0.0231585 0)
(1.14044 0.0227757 0)
(1.13399 0.0223952 0)
(1.12764 0.0220176 0)
(1.1214 0.0216438 0)
(1.11527 0.0212742 0)
(1.10925 0.0209096 0)
(1.10333 0.0205504 0)
(1.09751 0.0201972 0)
(1.09179 0.0198504 0)
(1.08617 0.0195104 0)
(1.08065 0.0191777 0)
(1.07522 0.0188526 0)
(1.06989 0.0185354 0)
(1.06463 0.018226 0)
(1.05951 0.0179256 0)
(1.05435 0.0176316 0)
(1.04956 0.0173524 0)
(1.04417 0.0170639 0)
(1.04045 0.0168368 0)
(1.03275 0.0164657 0)
(1.00001 -0.000362139 0)
(1.00017 -0.00108678 0)
(1.00048 -0.00181243 0)
(1.00096 -0.00253981 0)
(1.0016 -0.00326963 0)
(1.00241 -0.00400258 0)
(1.00337 -0.0047393 0)
(1.0045 -0.00548043 0)
(1.0058 -0.00622656 0)
(1.00726 -0.00697823 0)
(1.00888 -0.00773596 0)
(1.01068 -0.0085002 0)
(1.01264 -0.00927135 0)
(1.01478 -0.0100497 0)
(1.01709 -0.0108356 0)
(1.01958 -0.0116292 0)
(1.02224 -0.0124306 0)
(1.02509 -0.0132398 0)
(1.02811 -0.0140567 0)
(1.03132 -0.0148812 0)
(1.03471 -0.0157129 0)
(1.03829 -0.0165515 0)
(1.04206 -0.0173964 0)
(1.04601 -0.0182469 0)
(1.05016 -0.0191024 0)
(1.0545 -0.0199618 0)
(1.05903 -0.0208242 0)
(1.06376 -0.0216883 0)
(1.06868 -0.0225529 0)
(1.0738 -0.0234164 0)
(1.07911 -0.0242774 0)
(1.08461 -0.025134 0)
(1.09031 -0.0259845 0)
(1.0962 -0.026827 0)
(1.10228 -0.0276592 0)
(1.10854 -0.0284792 0)
(1.11499 -0.0292846 0)
(1.12162 -0.0300732 0)
(1.12843 -0.0308426 0)
(1.13541 -0.0315905 0)
(1.14256 -0.0323145 0)
(1.14987 -0.0330123 0)
(1.15734 -0.0336814 0)
(1.16495 -0.0343197 0)
(1.17271 -0.034925 0)
(1.1806 -0.0354952 0)
(1.18861 -0.0360284 0)
(1.19674 -0.0365228 0)
(1.20498 -0.0369768 0)
(1.21332 -0.0373889 0)
(1.22175 -0.0377581 0)
(1.23026 -0.0380833 0)
(1.23883 -0.0383637 0)
(1.24746 -0.038599 0)
(1.25614 -0.0387888 0)
(1.26486 -0.0389333 0)
(1.2736 -0.0390326 0)
(1.28236 -0.0390873 0)
(1.29113 -0.0390981 0)
(1.29989 -0.039066 0)
(1.30864 -0.0389924 0)
(1.31736 -0.0388785 0)
(1.32605 -0.0387259 0)
(1.3347 -0.0385365 0)
(1.34331 -0.0383122 0)
(1.35185 -0.038055 0)
(1.36033 -0.0377671 0)
(1.36874 -0.0374507 0)
(1.37708 -0.0371082 0)
(1.38533 -0.0367418 0)
(1.39349 -0.0363539 0)
(1.40156 -0.035947 0)
(1.40954 -0.0355233 0)
(1.41741 -0.0350853 0)
(1.42519 -0.034635 0)
(1.43285 -0.0341749 0)
(1.44042 -0.0337068 0)
(1.44787 -0.033233 0)
(1.45521 -0.0327553 0)
(1.46245 -0.0322755 0)
(1.46958 -0.0317952 0)
(1.4766 -0.031316 0)
(1.4835 -0.0308394 0)
(1.49031 -0.0303664 0)
(1.497 -0.0298984 0)
(1.50359 -0.0294362 0)
(1.51008 -0.0289806 0)
(1.51646 -0.0285323 0)
(1.52275 -0.0280918 0)
(1.52894 -0.0276595 0)
(1.53503 -0.0272356 0)
(1.54103 -0.0268203 0)
(1.54694 -0.0264134 0)
(1.55276 -0.0260148 0)
(1.55849 -0.0256242 0)
(1.56413 -0.0252413 0)
(1.5697 -0.0248654 0)
(1.57518 -0.0244961 0)
(1.58058 -0.0241327 0)
(1.5859 -0.0237744 0)
(1.59114 -0.0234203 0)
(1.59631 -0.0230696 0)
(1.6014 -0.0227213 0)
(1.60641 -0.0223745 0)
(1.61135 -0.0220281 0)
(1.61622 -0.0216811 0)
(1.621 -0.0213325 0)
(1.62571 -0.0209811 0)
(1.63035 -0.020626 0)
(1.63491 -0.020266 0)
(1.63938 -0.0199002 0)
(1.64378 -0.0195274 0)
(1.64809 -0.0191468 0)
(1.65232 -0.0187575 0)
(1.65647 -0.0183584 0)
(1.66052 -0.0179487 0)
(1.66449 -0.0175277 0)
(1.66836 -0.0170946 0)
(1.67213 -0.0166486 0)
(1.67581 -0.0161892 0)
(1.67938 -0.0157158 0)
(1.68284 -0.0152279 0)
(1.6862 -0.014725 0)
(1.68944 -0.0142067 0)
(1.69256 -0.0136729 0)
(1.69557 -0.0131231 0)
(1.69845 -0.0125573 0)
(1.7012 -0.0119754 0)
(1.70383 -0.0113772 0)
(1.70631 -0.0107627 0)
(1.70866 -0.0101322 0)
(1.71087 -0.00948558 0)
(1.71293 -0.00882314 0)
(1.71484 -0.00814508 0)
(1.7166 -0.00745168 0)
(1.7182 -0.00674325 0)
(1.71964 -0.00602016 0)
(1.72092 -0.00528281 0)
(1.72204 -0.00453163 0)
(1.72298 -0.0037671 0)
(1.72375 -0.00298971 0)
(1.72435 -0.00219999 0)
(1.72476 -0.00139848 0)
(1.725 -0.000585776 0)
(1.72505 0.000237548 0)
(1.72492 0.00107088 0)
(1.7246 0.00191359 0)
(1.7241 0.00276504 0)
(1.7234 0.00362457 0)
(1.7225 0.00449154 0)
(1.72142 0.00536526 0)
(1.72013 0.00624505 0)
(1.71865 0.00713022 0)
(1.71697 0.00802008 0)
(1.71509 0.00891392 0)
(1.71302 0.00981102 0)
(1.71073 0.0107107 0)
(1.70825 0.0116121 0)
(1.70557 0.0125147 0)
(1.70268 0.0134175 0)
(1.69959 0.0143199 0)
(1.6963 0.0152211 0)
(1.69281 0.0161203 0)
(1.68912 0.0170167 0)
(1.68523 0.0179095 0)
(1.68114 0.0187979 0)
(1.67684 0.0196809 0)
(1.67236 0.0205579 0)
(1.66767 0.0214278 0)
(1.66279 0.0222898 0)
(1.65772 0.0231429 0)
(1.65246 0.0239863 0)
(1.64702 0.024819 0)
(1.64138 0.0256401 0)
(1.63556 0.0264484 0)
(1.62957 0.0272431 0)
(1.62339 0.0280232 0)
(1.61705 0.0287876 0)
(1.61053 0.0295353 0)
(1.60385 0.0302653 0)
(1.597 0.0309766 0)
(1.59 0.0316681 0)
(1.58284 0.0323388 0)
(1.57554 0.0329877 0)
(1.56809 0.0336138 0)
(1.56051 0.0342162 0)
(1.55279 0.0347938 0)
(1.54494 0.0353458 0)
(1.53698 0.0358713 0)
(1.52889 0.0363695 0)
(1.5207 0.0368395 0)
(1.51241 0.0372805 0)
(1.50402 0.037692 0)
(1.49554 0.0380733 0)
(1.48698 0.0384237 0)
(1.47835 0.0387429 0)
(1.46964 0.0390303 0)
(1.46088 0.0392857 0)
(1.45206 0.0395088 0)
(1.44319 0.0396994 0)
(1.43429 0.0398574 0)
(1.42536 0.0399828 0)
(1.4164 0.0400757 0)
(1.40742 0.0401362 0)
(1.39843 0.0401647 0)
(1.38945 0.0401615 0)
(1.38046 0.0401269 0)
(1.37149 0.0400616 0)
(1.36254 0.0399662 0)
(1.35362 0.0398413 0)
(1.34472 0.0396877 0)
(1.33587 0.0395062 0)
(1.32706 0.0392978 0)
(1.3183 0.0390635 0)
(1.3096 0.0388042 0)
(1.30095 0.0385211 0)
(1.29238 0.0382152 0)
(1.28388 0.0378879 0)
(1.27546 0.0375403 0)
(1.26711 0.0371736 0)
(1.25886 0.0367892 0)
(1.25069 0.0363883 0)
(1.24262 0.0359723 0)
(1.23464 0.0355425 0)
(1.22676 0.0351002 0)
(1.21898 0.0346468 0)
(1.21131 0.0341835 0)
(1.20374 0.0337118 0)
(1.19628 0.0332328 0)
(1.18893 0.0327478 0)
(1.18169 0.0322582 0)
(1.17456 0.031765 0)
(1.16755 0.0312696 0)
(1.16064 0.030773 0)
(1.15385 0.0302763 0)
(1.14717 0.0297806 0)
(1.1406 0.029287 0)
(1.13415 0.0287964 0)
(1.1278 0.0283097 0)
(1.12156 0.0278278 0)
(1.11543 0.0273515 0)
(1.10941 0.0268816 0)
(1.10349 0.0264188 0)
(1.09767 0.0259637 0)
(1.09196 0.025517 0)
(1.08634 0.0250792 0)
(1.08083 0.0246507 0)
(1.0754 0.024232 0)
(1.07008 0.0238237 0)
(1.06482 0.0234254 0)
(1.0597 0.023039 0)
(1.05455 0.0226606 0)