/*--------------------------------*- C++ -*----------------------------------*\
| =========                 |                                                 |
| \\      /  F ield         | OpenFOAM: The Open Source CFD Toolbox           |
|  \\    /   O peration     | Version:  2306                                  |
|   \\  /    A nd           | Website:  www.openfoam.com                      |
|    \\/     M anipulation  |                                                 |
\*---------------------------------------------------------------------------*/
FoamFile
{
    version     2.0;
    format      ascii;
    arch        "LSB;label=32;scalar=64";
    class       volScalarField;
    location    "9";
    object      Keff;
}
// * * * * * * * * * * * * * * * * * * * * * * * * * * * * * * * * * * * * * //

dimensions      [1 1 -3 -1 0 0 0];

internalField   nonuniform List<scalar> 
32768
(
67.2037
67.2017
67.1976
67.1914
67.1831
67.1727
67.1602
67.1456
67.1289
67.1101
67.0891
67.0659
67.0405
67.0129
66.9831
66.9511
66.9167
66.8801
66.8411
66.7999
66.7562
66.7102
66.6618
66.611
66.5577
66.502
66.4439
66.3833
66.3202
66.2547
66.1868
66.1164
66.0436
65.9684
65.8908
65.8108
65.7286
65.6441
65.5573
65.4685
65.3775
65.2845
65.1895
65.0927
64.9942
64.8939
64.7921
64.6888
64.5841
64.4782
64.3711
64.2631
64.1541
64.0444
63.9341
63.8232
63.7119
63.6004
63.4888
63.3771
63.2655
63.1542
63.0431
62.9325
62.8225
62.713
62.6042
62.4963
62.3892
62.2831
62.178
62.0739
61.971
61.8692
61.7686
61.6693
61.5713
61.4745
61.3791
61.2849
61.1921
61.1007
61.0105
60.9218
60.8343
60.7482
60.6634
60.5799
60.4977
60.4168
60.3372
60.2588
60.1817
60.1058
60.0312
59.9578
59.8857
59.8148
59.7451
59.6766
59.6093
59.5433
59.4786
59.4151
59.3529
59.292
59.2324
59.1741
59.1173
59.0618
59.0078
58.9552
58.9042
58.8547
58.8068
58.7606
58.716
58.6732
58.6321
58.5928
58.5555
58.52
58.4866
58.4551
58.4258
58.3985
58.3734
58.3506
58.33
58.3117
58.2958
58.2822
58.2711
58.2625
58.2564
58.2529
58.2519
58.2536
58.2578
58.2648
58.2745
58.2869
58.302
58.3198
58.3405
58.3639
58.3901
58.4191
58.4508
58.4854
58.5228
58.5629
58.6059
58.6516
58.7001
58.7513
58.8052
58.8618
58.9211
58.983
59.0476
59.1147
59.1844
59.2565
59.3311
59.4082
59.4876
59.5693
59.6532
59.7393
59.8276
59.9179
60.0102
60.1045
60.2005
60.2984
60.3979
60.4991
60.6018
60.7059
60.8113
60.918
61.0259
61.1348
61.2447
61.3554
61.4669
61.5791
61.6919
61.8051
61.9187
62.0325
62.1465
62.2606
62.3746
62.4885
62.6021
62.7155
62.8284
62.9408
63.0526
63.1637
63.2741
63.3837
63.4923
63.5999
63.7065
63.812
63.9163
64.0193
64.1211
64.2215
64.3205
64.4181
64.5143
64.6089
64.702
64.7936
64.8836
64.972
65.0588
65.144
65.2275
65.3095
65.3898
65.4685
65.5455
65.621
65.6948
65.7671
65.8378
65.9069
65.9745
66.0406
66.1052
66.1684
66.2301
66.2905
66.3494
66.407
66.4634
66.5184
66.5722
66.6248
66.6763
66.7266
66.7758
66.8241
66.8712
66.9175
66.9625
67.0075
67.0494
67.096
67.1286
67.1949
67.2037
67.2017
67.1976
67.1914
67.1831
67.1727
67.1603
67.1457
67.129
67.1101
67.0891
67.0659
67.0406
67.013
66.9832
66.9511
66.9168
66.8802
66.8412
66.7999
66.7563
66.7103
66.6619
66.611
66.5577
66.502
66.4439
66.3833
66.3202
66.2546
66.1866
66.1162
66.0433
65.968
65.8904
65.8104
65.728
65.6434
65.5566
65.4676
65.3766
65.2835
65.1884
65.0915
64.9928
64.8924
64.7904
64.687
64.5821
64.4761
64.3689
64.2607
64.1516
64.0417
63.9312
63.8202
63.7088
63.5972
63.4854
63.3736
63.2619
63.1504
63.0393
62.9285
62.8184
62.7088
62.6
62.492
62.3848
62.2786
62.1734
62.0693
61.9663
61.8645
61.7639
61.6646
61.5665
61.4697
61.3743
61.2801
61.1873
61.0959
61.0057
60.917
60.8295
60.7434
60.6586
60.5751
60.4929
60.412
60.3324
60.2541
60.177
60.1011
60.0265
59.9531
59.881
59.8101
59.7403
59.6719
59.6046
59.5386
59.4738
59.4103
59.3481
59.2872
59.2275
59.1693
59.1124
59.0569
59.0028
58.9502
58.8992
58.8496
58.8017
58.7554
58.7108
58.6679
58.6268
58.5875
58.5501
58.5146
58.4811
58.4496
58.4202
58.3929
58.3677
58.3448
58.3242
58.3059
58.2899
58.2763
58.2652
58.2566
58.2504
58.2468
58.2459
58.2475
58.2517
58.2587
58.2683
58.2807
58.2958
58.3136
58.3343
58.3577
58.3839
58.4128
58.4446
58.4792
58.5166
58.5567
58.5997
58.6454
58.6939
58.7451
58.7991
58.8557
58.915
58.977
59.0416
59.1087
59.1784
59.2506
59.3253
59.4024
59.4818
59.5635
59.6475
59.7337
59.8221
59.9125
60.0048
60.0991
60.1953
60.2932
60.3929
60.4941
60.5969
60.7011
60.8066
60.9134
61.0214
61.1304
61.2404
61.3512
61.4629
61.5752
61.688
61.8014
61.915
62.029
62.1431
62.2573
62.3714
62.4854
62.5992
62.7127
62.8257
62.9382
63.0501
63.1614
63.2719
63.3815
63.4902
63.598
63.7047
63.8102
63.9146
64.0177
64.1196
64.2201
64.3192
64.4169
64.5131
64.6078
64.701
64.7926
64.8826
64.9711
65.0579
65.1432
65.2268
65.3087
65.3891
65.4678
65.5449
65.6203
65.6942
65.7665
65.8372
65.9063
65.9739
66.04
66.1046
66.1678
66.2295
66.2898
66.3488
66.4064
66.4627
66.5178
66.5716
66.6242
66.6756
66.7259
66.7751
66.8233
66.8704
66.9167
66.9616
67.0066
67.0485
67.0951
67.1277
67.1939
67.2037
67.2017
67.1976
67.1914
67.1831
67.1728
67.1603
67.1457
67.129
67.1102
67.0892
67.066
67.0407
67.0131
66.9833
66.9513
66.917
66.8804
66.8414
66.8001
66.7565
66.7104
66.662
66.6111
66.5578
66.5021
66.4439
66.3832
66.3201
66.2544
66.1864
66.1158
66.0428
65.9674
65.8896
65.8095
65.727
65.6422
65.5552
65.466
65.3747
65.2814
65.1861
65.0889
64.99
64.8893
64.7871
64.6833
64.5782
64.4719
64.3644
64.2559
64.1465
64.0363
63.9255
63.8142
63.7026
63.5906
63.4786
63.3665
63.2546
63.1429
63.0315
62.9206
62.8102
62.7004
62.5914
62.4833
62.376
62.2696
62.1643
62.0601
61.957
61.8552
61.7545
61.6551
61.557
61.4602
61.3647
61.2705
61.1777
61.0862
60.9961
60.9073
60.8199
60.7338
60.649
60.5656
60.4834
60.4026
60.323
60.2446
60.1675
60.0917
60.0171
59.9437
59.8716
59.8007
59.7309
59.6624
59.5952
59.5291
59.4643
59.4008
59.3385
59.2775
59.2179
59.1595
59.1026
59.047
58.9929
58.9402
58.8891
58.8395
58.7915
58.7451
58.7004
58.6574
58.6162
58.5768
58.5393
58.5037
58.4701
58.4385
58.409
58.3816
58.3564
58.3334
58.3127
58.2943
58.2782
58.2646
58.2534
58.2447
58.2385
58.2348
58.2338
58.2353
58.2396
58.2465
58.2561
58.2684
58.2834
58.3013
58.3219
58.3453
58.3714
58.4004
58.4322
58.4668
58.5042
58.5443
58.5873
58.6331
58.6816
58.7328
58.7868
58.8435
58.9029
58.9649
59.0295
59.0968
59.1665
59.2388
59.3136
59.3908
59.4703
59.5521
59.6363
59.7226
59.811
59.9016
59.9941
60.0885
60.1849
60.283
60.3827
60.4842
60.5871
60.6915
60.7972
60.9042
61.0124
61.1216
61.2318
61.3429
61.4547
61.5673
61.6804
61.7939
61.9078
62.022
62.1364
62.2508
62.3652
62.4794
62.5934
62.7071
62.8203
62.9331
63.0452
63.1567
63.2674
63.3773
63.4862
63.5941
63.701
63.8067
63.9113
64.0146
64.1166
64.2173
64.3165
64.4144
64.5107
64.6055
64.6988
64.7906
64.8807
64.9693
65.0562
65.1415
65.2252
65.3072
65.3876
65.4664
65.5435
65.619
65.6929
65.7652
65.8359
65.9051
65.9727
66.0388
66.1035
66.1666
66.2283
66.2886
66.3476
66.4052
66.4614
66.5164
66.5702
66.6228
66.6742
66.7245
66.7736
66.8218
66.8688
66.9151
66.96
67.005
67.0468
67.0933
67.1259
67.192
67.2037
67.2017
67.1976
67.1915
67.1832
67.1728
67.1604
67.1458
67.1291
67.1103
67.0893
67.0662
67.0409
67.0133
66.9836
66.9515
66.9172
66.8806
66.8417
66.8004
66.7567
66.7107
66.6622
66.6113
66.558
66.5022
66.4439
66.3832
66.3199
66.2542
66.186
66.1153
66.0421
65.9665
65.8885
65.8082
65.7254
65.6404
65.5531
65.4636
65.372
65.2783
65.1827
65.0851
64.9858
64.8847
64.7821
64.6779
64.5724
64.4656
64.3576
64.2487
64.1388
64.0282
63.917
63.8053
63.6932
63.5808
63.4684
63.3559
63.2436
63.1315
63.0198
62.9086
62.7979
62.6879
62.5786
62.4702
62.3627
62.2562
62.1507
62.0463
61.9431
61.8411
61.7403
61.6409
61.5427
61.4458
61.3503
61.2561
61.1633
61.0718
60.9817
60.893
60.8055
60.7195
60.6347
60.5513
60.4692
60.3883
60.3088
60.2305
60.1534
60.0776
60.003
59.9297
59.8575
59.7866
59.7168
59.6483
59.581
59.515
59.4501
59.3865
59.3242
59.2631
59.2034
59.145
59.0879
59.0323
58.978
58.9253
58.874
58.8243
58.7761
58.7296
58.6848
58.6416
58.6003
58.5608
58.5231
58.4874
58.4536
58.4219
58.3923
58.3647
58.3394
58.3163
58.2954
58.2769
58.2607
58.2469
58.2356
58.2268
58.2205
58.2168
58.2156
58.2171
58.2213
58.2281
58.2377
58.2499
58.265
58.2827
58.3033
58.3267
58.3528
58.3818
58.4136
58.4482
58.4856
58.5258
58.5688
58.6145
58.6631
58.7144
58.7685
58.8252
58.8847
58.9468
59.0115
59.0789
59.1487
59.2212
59.296
59.3734
59.453
59.5351
59.6193
59.7058
59.7945
59.8852
59.978
60.0726
60.1692
60.2675
60.3676
60.4692
60.5725
60.6771
60.7832
60.8905
60.9989
61.1085
61.219
61.3304
61.4426
61.5554
61.6689
61.7828
61.897
62.0116
62.1263
62.241
62.3558
62.4704
62.5847
62.6987
62.8123
62.9254
63.0379
63.1497
63.2607
63.3709
63.4801
63.5884
63.6955
63.8016
63.9064
64.0099
64.1122
64.2131
64.3126
64.4106
64.5072
64.6022
64.6957
64.7876
64.8779
64.9666
65.0537
65.1391
65.2229
65.305
65.3855
65.4643
65.5415
65.6171
65.691
65.7634
65.8341
65.9033
65.971
66.0371
66.1017
66.1648
66.2265
66.2868
66.3457
66.4033
66.4595
66.5145
66.5682
66.6207
66.6721
66.7223
66.7714
66.8195
66.8665
66.9127
66.9575
67.0024
67.0442
67.0907
67.1231
67.1892
67.2037
67.2017
67.1977
67.1915
67.1832
67.1729
67.1604
67.1459
67.1293
67.1105
67.0895
67.0664
67.0411
67.0136
66.9839
66.9519
66.9176
66.881
66.8421
66.8008
66.7571
66.711
66.6626
66.6116
66.5582
66.5023
66.444
66.3831
66.3197
66.2539
66.1855
66.1146
66.0412
65.9654
65.8871
65.8064
65.7234
65.638
65.5503
65.4604
65.3684
65.2743
65.1781
65.0801
64.9802
64.8786
64.7754
64.6707
64.5646
64.4572
64.3487
64.2391
64.1287
64.0175
63.9057
63.7933
63.6807
63.5678
63.4548
63.3418
63.229
63.1164
63.0043
62.8926
62.7815
62.6711
62.5615
62.4528
62.345
62.2382
62.1325
62.0279
61.9245
61.8224
61.7215
61.6219
61.5236
61.4267
61.3311
61.2369
61.1441
61.0526
60.9625
60.8738
60.7864
60.7004
60.6157
60.5323
60.4502
60.3694
60.2899
60.2116
60.1346
60.0588
59.9843
59.9109
59.8388
59.7679
59.6981
59.6296
59.5622
59.4961
59.4312
59.3676
59.3052
59.244
59.1842
59.1256
59.0685
59.0127
58.9583
58.9054
58.8539
58.804
58.7557
58.709
58.664
58.6207
58.5792
58.5395
58.5016
58.4657
58.4317
58.3998
58.37
58.3423
58.3168
58.2935
58.2724
58.2537
58.2374
58.2235
58.212
58.2031
58.1966
58.1928
58.1915
58.1929
58.197
58.2037
58.2132
58.2254
58.2403
58.2581
58.2786
58.3019
58.3281
58.357
58.3888
58.4234
58.4608
58.501
58.5441
58.5899
58.6385
58.6899
58.744
58.8009
58.8604
58.9226
58.9875
59.055
59.125
59.1976
59.2727
59.3502
59.4301
59.5123
59.5968
59.6836
59.7725
59.8635
59.9565
60.0515
60.1483
60.247
60.3474
60.4494
60.553
60.658
60.7644
60.8721
60.981
61.0909
61.2019
61.3137
61.4264
61.5397
61.6536
61.7679
61.8827
61.9977
62.1128
62.2281
62.3433
62.4583
62.5732
62.6876
62.8017
62.9152
63.0282
63.1404
63.2518
63.3624
63.4721
63.5807
63.6883
63.7947
63.8998
64.0038
64.1063
64.2076
64.3073
64.4057
64.5025
64.5978
64.6915
64.7836
64.8742
64.963
65.0503
65.1359
65.2198
65.3021
65.3827
65.4616
65.5389
65.6146
65.6886
65.761
65.8318
65.901
65.9686
66.0347
66.0994
66.1625
66.2242
66.2844
66.3433
66.4008
66.457
66.5119
66.5656
66.618
66.6693
66.7194
66.7685
66.8165
66.8634
66.9095
66.9542
66.999
67.0407
67.0871
67.1195
67.1854
67.2037
67.2017
67.1977
67.1915
67.1833
67.1729
67.1605
67.146
67.1294
67.1107
67.0898
67.0667
67.0415
67.014
66.9843
66.9523
66.9181
66.8815
66.8426
66.8013
66.7576
66.7115
66.663
66.612
66.5585
66.5026
66.4441
66.3831
66.3196
66.2535
66.1849
66.1138
66.0401
65.964
65.8854
65.8043
65.7209
65.635
65.5469
65.4565
65.3639
65.2692
65.1725
65.0738
64.9733
64.871
64.7671
64.6617
64.5548
64.4467
64.3374
64.2271
64.116
64.004
63.8914
63.7784
63.665
63.5514
63.4378
63.3241
63.2107
63.0975
62.9848
62.8726
62.761
62.6501
62.5401
62.431
62.3228
62.2157
62.1097
62.0049
61.9013
61.7989
61.6979
61.5981
61.4998
61.4028
61.3071
61.2129
61.1201
61.0286
60.9385
60.8498
60.7625
60.6765
60.5919
60.5086
60.4265
60.3458
60.2664
60.1881
60.1112
60.0354
59.9609
59.8876
59.8155
59.7445
59.6748
59.6062
59.5388
59.4727
59.4077
59.3439
59.2814
59.2202
59.1602
59.1015
59.0442
58.9882
58.9337
58.8806
58.8289
58.7788
58.7303
58.6834
58.6381
58.5946
58.5528
58.5129
58.4748
58.4386
58.4044
58.3723
58.3422
58.3143
58.2885
58.265
58.2438
58.2249
58.2083
58.1942
58.1826
58.1734
58.1668
58.1628
58.1614
58.1627
58.1666
58.1732
58.1826
58.1947
58.2096
58.2273
58.2477
58.271
58.2971
58.3261
58.3578
58.3925
58.4299
58.4702
58.5132
58.5591
58.6078
58.6593
58.7135
58.7705
58.8302
58.8925
58.9576
59.0252
59.0954
59.1682
59.2435
59.3212
59.4014
59.4839
59.5687
59.6557
59.7449
59.8363
59.9296
60.025
60.1222
60.2213
60.3221
60.4246
60.5286
60.6341
60.741
60.8492
60.9586
61.0691
61.1806
61.2929
61.4061
61.52
61.6345
61.7494
61.8647
61.9803
62.0961
62.2119
62.3277
62.4433
62.5587
62.6738
62.7884
62.9025
63.016
63.1288
63.2408
63.3519
63.4621
63.5712
63.6792
63.7861
63.8917
63.9961
64.0991
64.2007
64.3009
64.3995
64.4967
64.5923
64.6863
64.7787
64.8695
64.9587
65.0461
65.1319
65.216
65.2985
65.3792
65.4583
65.5357
65.6114
65.6855
65.758
65.8288
65.8981
65.9657
66.0319
66.0965
66.1596
66.2212
66.2815
66.3403
66.3977
66.4539
66.5087
66.5623
66.6146
66.6658
66.7159
66.7648
66.8127
66.8595
66.9055
66.9501
66.9948
67.0363
67.0826
67.1149
67.1806
67.2037
67.2017
67.1977
67.1916
67.1833
67.173
67.1607
67.1462
67.1297
67.111
67.0901
67.0671
67.0419
67.0145
66.9848
66.9529
66.9186
66.8821
66.8432
66.8019
66.7583
66.7121
66.6636
66.6125
66.559
66.5029
66.4443
66.3832
66.3194
66.2532
66.1843
66.1129
66.0389
65.9624
65.8834
65.8019
65.718
65.6316
65.5429
65.4519
65.3587
65.2633
65.1658
65.0664
64.9651
64.862
64.7572
64.6509
64.5432
64.4342
64.324
64.2128
64.1007
63.9879
63.8744
63.7605
63.6462
63.5318
63.4173
63.3029
63.1887
63.0748
62.9614
62.8485
62.7364
62.6249
62.5144
62.4048
62.2962
62.1887
62.0823
61.9772
61.8733
61.7708
61.6695
61.5697
61.4712
61.3741
61.2784
61.1841
61.0913
60.9999
60.9098
60.8212
60.7339
60.648
60.5634
60.4802
60.3982
60.3176
60.2382
60.1601
60.0832
60.0075
59.933
59.8597
59.7876
59.7166
59.6469
59.5783
59.5109
59.4446
59.3796
59.3157
59.2531
59.1917
59.1316
59.0727
59.0152
58.959
58.9043
58.8509
58.7991
58.7487
58.6999
58.6527
58.6072
58.5634
58.5213
58.4811
58.4427
58.4063
58.3718
58.3393
58.309
58.2808
58.2547
58.231
58.2095
58.1903
58.1735
58.1592
58.1473
58.138
58.1312
58.127
58.1254
58.1265
58.1303
58.1368
58.146
58.158
58.1728
58.1904
58.2108
58.234
58.2601
58.289
58.3208
58.3554
58.3929
58.4332
58.4763
58.5223
58.571
58.6226
58.677
58.7341
58.7939
58.8564
58.9217
58.9895
59.06
59.133
59.2085
59.2866
59.367
59.4498
59.535
59.6224
59.712
59.8037
59.8975
59.9933
60.091
60.1905
60.2919
60.3948
60.4994
60.6055
60.713
60.8217
60.9317
61.0428
61.155
61.268
61.3819
61.4964
61.6116
61.7272
61.8432
61.9595
62.076
62.1925
62.309
62.4254
62.5415
62.6572
62.7726
62.8873
63.0015
63.1149
63.2276
63.3393
63.4501
63.5598
63.6684
63.7759
63.882
63.9869
64.0904
64.1925
64.2931
64.3922
64.4898
64.5858
64.6802
64.7729
64.864
64.9534
65.0412
65.1272
65.2115
65.2942
65.3751
65.4543
65.5319
65.6077
65.6819
65.7544
65.8253
65.8946
65.9623
66.0284
66.093
66.1561
66.2178
66.2779
66.3367
66.3941
66.4501
66.5049
66.5584
66.6106
66.6617
66.7116
66.7604
66.8082
66.8549
66.9007
66.9452
66.9898
67.0312
67.0773
67.1095
67.1749
67.2037
67.2017
67.1977
67.1916
67.1834
67.1732
67.1608
67.1464
67.1299
67.1113
67.0905
67.0675
67.0424
67.015
66.9854
66.9536
66.9194
66.8829
66.844
66.8027
66.7591
66.7129
66.6643
66.6132
66.5596
66.5034
66.4447
66.3833
66.3194
66.2529
66.1837
66.112
66.0376
65.9607
65.8812
65.7992
65.7147
65.6277
65.5383
65.4466
65.3526
65.2565
65.1582
65.0578
64.9556
64.8515
64.7458
64.6385
64.5297
64.4196
64.3084
64.1961
64.0829
63.969
63.8545
63.7396
63.6243
63.5089
63.3934
63.2781
63.163
63.0483
62.934
62.8204
62.7075
62.5955
62.4843
62.3741
62.2651
62.1571
62.0504
61.9449
61.8407
61.7379
61.6365
61.5364
61.4378
61.3406
61.2449
61.1506
61.0578
60.9664
60.8764
60.7878
60.7006
60.6147
60.5303
60.4471
60.3653
60.2847
60.2055
60.1274
60.0506
59.975
59.9005
59.8273
59.7552
59.6843
59.6145
59.5459
59.4784
59.4121
59.3469
59.283
59.2202
59.1586
59.0983
59.0393
58.9816
58.9252
58.8701
58.8165
58.7644
58.7137
58.6646
58.6171
58.5713
58.5271
58.4847
58.4441
58.4054
58.3686
58.3338
58.301
58.2704
58.2418
58.2155
58.1914
58.1696
58.1501
58.133
58.1184
58.1063
58.0967
58.0897
58.0853
58.0835
58.0844
58.088
58.0943
58.1034
58.1153
58.13
58.1475
58.1678
58.191
58.217
58.2459
58.2777
58.3123
58.3498
58.3901
58.4333
58.4794
58.5282
58.5799
58.6344
58.6917
58.7517
58.8144
58.8799
58.9479
59.0187
59.092
59.1678
59.2462
59.3269
59.4101
59.4957
59.5835
59.6735
59.7657
59.86
59.9563
60.0546
60.1547
60.2566
60.3602
60.4654
60.5721
60.6803
60.7897
60.9005
61.0123
61.1252
61.239
61.3536
61.4689
61.5849
61.7013
61.8182
61.9353
62.0526
62.17
62.2873
62.4045
62.5214
62.638
62.7541
62.8697
62.9846
63.0989
63.2122
63.3247
63.4362
63.5467
63.6559
63.764
63.8708
63.9763
64.0804
64.1831
64.2842
64.3838
64.4819
64.5783
64.6731
64.7663
64.8577
64.9475
65.0355
65.1218
65.2064
65.2893
65.3704
65.4498
65.5275
65.6035
65.6777
65.7504
65.8213
65.8907
65.9584
66.0245
66.0891
66.1522
66.2138
66.2739
66.3326
66.3899
66.4458
66.5005
66.5538
66.606
66.6569
66.7067
66.7554
66.803
66.8495
66.8952
66.9395
66.9839
67.0251
67.0711
67.1031
67.1683
67.2037
67.2017
67.1977
67.1917
67.1835
67.1733
67.161
67.1467
67.1302
67.1117
67.0909
67.0681
67.043
67.0157
66.9862
66.9544
66.9203
66.8838
66.845
66.8037
66.7601
66.7139
66.6653
66.6141
66.5604
66.5041
66.4452
66.3836
66.3195
66.2527
66.1832
66.1111
66.0363
65.9589
65.8789
65.7963
65.7111
65.6234
65.5333
65.4408
65.3459
65.2488
65.1495
65.0482
64.9449
64.8397
64.7328
64.6243
64.5144
64.4031
64.2906
64.1771
64.0627
63.9475
63.8318
63.7156
63.5992
63.4826
63.3661
63.2497
63.1335
63.0179
62.9027
62.7882
62.6745
62.5617
62.4499
62.3391
62.2294
62.121
62.0138
61.9079
61.8034
61.7003
61.5987
61.4985
61.3997
61.3024
61.2067
61.1123
61.0195
60.9281
60.8382
60.7497
60.6626
60.5769
60.4925
60.4095
60.3278
60.2474
60.1682
60.0903
60.0136
59.938
59.8637
59.7905
59.7184
59.6475
59.5777
59.509
59.4415
59.3751
59.3099
59.2458
59.1828
59.1211
59.0606
59.0013
58.9433
58.8867
58.8313
58.7774
58.7249
58.6739
58.6245
58.5766
58.5304
58.4859
58.4431
58.4021
58.363
58.3258
58.2906
58.2575
58.2264
58.1975
58.1708
58.1463
58.1241
58.1043
58.087
58.072
58.0596
58.0497
58.0424
58.0378
58.0357
58.0364
58.0398
58.046
58.0549
58.0666
58.0812
58.0986
58.1188
58.1419
58.1679
58.1968
58.2285
58.2632
58.3007
58.3411
58.3843
58.4305
58.4795
58.5313
58.5859
58.6434
58.7036
58.7665
58.8322
58.9006
58.9716
59.0452
59.1214
59.2001
59.2813
59.3649
59.4509
59.5392
59.6297
59.7224
59.8173
59.9142
60.013
60.1138
60.2163
60.3206
60.4266
60.534
60.6429
60.7532
60.8648
60.9774
61.0912
61.2059
61.3214
61.4376
61.5545
61.6719
61.7896
61.9077
62.026
62.1443
62.2625
62.3807
62.4985
62.6161
62.7331
62.8496
62.9655
63.0806
63.1948
63.3082
63.4205
63.5317
63.6418
63.7506
63.8582
63.9643
64.0691
64.1724
64.2741
64.3743
64.4729
64.5699
64.6651
64.7587
64.8506
64.9407
65.0291
65.1158
65.2006
65.2838
65.3651
65.4447
65.5226
65.5987
65.6731
65.7458
65.8169
65.8862
65.954
66.0201
66.0847
66.1477
66.2093
66.2693
66.3279
66.3851
66.441
66.4955
66.5487
66.6007
66.6515
66.7011
66.7496
66.7971
66.8434
66.8889
66.9331
66.9772
67.0183
67.064
67.0959
67.1608
67.2037
67.2017
67.1978
67.1917
67.1836
67.1735
67.1613
67.147
67.1306
67.1121
67.0915
67.0687
67.0437
67.0165
66.9871
66.9554
66.9213
66.8849
66.8461
66.8049
66.7613
66.7151
66.6665
66.6152
66.5614
66.505
66.4459
66.3842
66.3197
66.2526
66.1828
66.1103
66.035
65.9571
65.8765
65.7932
65.7073
65.6188
65.5278
65.4344
65.3385
65.2404
65.14
65.0375
64.9329
64.8265
64.7183
64.6085
64.4972
64.3845
64.2706
64.1557
64.0399
63.9233
63.8062
63.6887
63.5709
63.453
63.3352
63.2176
63.1003
62.9836
62.8674
62.7519
62.6373
62.5237
62.4111
62.2996
62.1893
62.0803
61.9726
61.8663
61.7614
61.658
61.5561
61.4557
61.3568
61.2595
61.1637
61.0693
60.9765
60.8852
60.7954
60.707
60.62
60.5345
60.4503
60.3674
60.2858
60.2056
60.1265
60.0487
59.9721
59.8967
59.8225
59.7493
59.6773
59.6064
59.5366
59.4679
59.4003
59.3338
59.2685
59.2042
59.1411
59.0792
59.0184
58.9589
58.9006
58.8436
58.788
58.7337
58.6809
58.6295
58.5796
58.5314
58.4847
58.4398
58.3965
58.3551
58.3156
58.278
58.2423
58.2087
58.1772
58.1478
58.1207
58.0958
58.0733
58.0531
58.0353
58.0201
58.0073
57.9971
57.9895
57.9845
57.9822
57.9827
57.9859
57.9918
58.0005
58.0121
58.0265
58.0438
58.0639
58.087
58.1129
58.1417
58.1734
58.2081
58.2456
58.2861
58.3294
58.3757
58.4248
58.4767
58.5315
58.5892
58.6496
58.7128
58.7787
58.8474
58.9187
58.9927
59.0693
59.1484
59.23
59.3141
59.4006
59.4894
59.5805
59.6738
59.7693
59.8668
59.9664
60.0678
60.1712
60.2762
60.383
60.4913
60.601
60.7122
60.8247
60.9383
61.053
61.1687
61.2852
61.4024
61.5204
61.6388
61.7576
61.8767
61.9961
62.1155
62.2348
62.354
62.4729
62.5915
62.7096
62.8272
62.944
63.0601
63.1754
63.2897
63.4029
63.5151
63.626
63.7357
63.844
63.951
64.0565
64.1605
64.263
64.3638
64.463
64.5605
64.6563
64.7504
64.8428
64.9333
65.0221
65.1091
65.1943
65.2777
65.3593
65.4391
65.5172
65.5935
65.668
65.7408
65.8119
65.8814
65.9491
66.0153
66.0798
66.1428
66.2043
66.2643
66.3228
66.3799
66.4356
66.49
66.543
66.5949
66.6455
66.6949
66.7432
66.7905
66.8366
66.8819
66.9258
66.9698
67.0106
67.0561
67.0878
67.1523
67.2037
67.2018
67.1978
67.1918
67.1837
67.1736
67.1615
67.1473
67.131
67.1126
67.0921
67.0694
67.0446
67.0175
66.9881
66.9565
66.9226
66.8863
66.8475
66.8064
66.7628
66.7166
66.6679
66.6166
66.5627
66.5062
66.4469
66.385
66.3203
66.2528
66.1826
66.1096
66.0338
65.9553
65.874
65.79
65.7033
65.614
65.522
65.4275
65.3306
65.2313
65.1296
65.0258
64.9199
64.8121
64.7024
64.5911
64.4782
64.364
64.2485
64.132
64.0146
63.8965
63.7778
63.6587
63.5394
63.4201
63.3009
63.1819
63.0634
62.9454
62.828
62.7115
62.5959
62.4813
62.3678
62.2555
62.1446
62.0349
61.9267
61.82
61.7147
61.611
61.5089
61.4083
61.3092
61.2118
61.1159
61.0216
60.9289
60.8377
60.7479
60.6597
60.5729
60.4875
60.4035
60.3208
60.2394
60.1594
60.0805
60.0029
59.9264
59.8511
59.777
59.7039
59.632
59.5611
59.4913
59.4226
59.3549
59.2883
59.2228
59.1584
59.0951
59.033
58.972
58.9121
58.8536
58.7962
58.7402
58.6855
58.6323
58.5805
58.5302
58.4814
58.4343
58.3889
58.3452
58.3032
58.2632
58.2251
58.1889
58.1548
58.1228
58.093
58.0654
58.0401
58.0171
57.9965
57.9783
57.9626
57.9495
57.9389
57.931
57.9257
57.9231
57.9233
57.9262
57.9319
57.9404
57.9518
57.9661
57.9832
58.0032
58.0261
58.052
58.0808
58.1125
58.1471
58.1847
58.2252
58.2687
58.315
58.3642
58.4163
58.4713
58.5292
58.5898
58.6533
58.7195
58.7885
58.8602
58.9346
59.0115
59.0911
59.1732
59.2578
59.3448
59.4342
59.5259
59.6199
59.7161
59.8143
59.9146
60.0169
60.121
60.227
60.3346
60.4438
60.5546
60.6667
60.7802
60.8949
61.0107
61.1274
61.2451
61.3635
61.4825
61.6021
61.7221
61.8425
61.963
62.0836
62.2041
62.3245
62.4446
62.5644
62.6837
62.8024
62.9204
63.0376
63.1539
63.2693
63.3836
63.4967
63.6087
63.7193
63.8286
63.9364
64.0427
64.1475
64.2507
64.3523
64.4522
64.5503
64.6468
64.7414
64.8343
64.9253
65.0145
65.1019
65.1874
65.2712
65.3531
65.4331
65.5114
65.5878
65.6625
65.7354
65.8066
65.8761
65.9439
66.01
66.0746
66.1375
66.1989
66.2588
66.3172
66.3741
66.4297
66.4839
66.5368
66.5885
66.6389
66.6881
66.7362
66.7832
66.8291
66.8741
66.9178
66.9615
67.0021
67.0474
67.0789
67.143
67.2037
67.2018
67.1979
67.1919
67.1839
67.1739
67.1618
67.1477
67.1315
67.1133
67.0929
67.0703
67.0456
67.0186
66.9894
66.9579
66.924
66.8878
66.8492
66.8081
66.7645
66.7184
66.6697
66.6184
66.5644
66.5077
66.4483
66.3861
66.3211
66.2533
66.1827
66.1092
66.0329
65.9537
65.8717
65.7869
65.6993
65.609
65.516
65.4204
65.3222
65.2215
65.1185
65.0132
64.9058
64.7964
64.6851
64.5721
64.4575
64.3415
64.2243
64.106
63.9868
63.8669
63.7465
63.6257
63.5048
63.3838
63.263
63.1426
63.0226
62.9032
62.7846
62.6669
62.5501
62.4345
62.3201
62.207
62.0953
61.985
61.8762
61.769
61.6633
61.5593
61.4568
61.3561
61.2569
61.1594
61.0635
60.9693
60.8766
60.7855
60.696
60.6079
60.5213
60.4361
60.3523
60.2699
60.1887
60.1089
60.0303
59.9528
59.8766
59.8014
59.7274
59.6545
59.5826
59.5118
59.442
59.3732
59.3055
59.2388
59.1732
59.1086
59.0451
58.9826
58.9213
58.8612
58.8023
58.7446
58.6881
58.633
58.5793
58.527
58.4762
58.427
58.3793
58.3333
58.2891
58.2466
58.206
58.1673
58.1306
58.096
58.0635
58.0331
58.005
57.9791
57.9556
57.9345
57.9159
57.8998
57.8862
57.8753
57.8669
57.8613
57.8584
57.8582
57.8609
57.8663
57.8746
57.8858
57.8999
57.9169
57.9368
57.9596
57.9854
58.0141
58.0458
58.0804
58.118
58.1586
58.2021
58.2485
58.2979
58.3502
58.4054
58.4635
58.5244
58.5881
58.6547
58.724
58.7961
58.8708
58.9483
59.0283
59.1109
59.1961
59.2837
59.3737
59.4661
59.5608
59.6577
59.7568
59.8579
59.961
60.0661
60.1729
60.2815
60.3918
60.5036
60.6168
60.7314
60.8473
60.9642
61.0822
61.2011
61.3207
61.4411
61.562
61.6833
61.8049
61.9267
62.0487
62.1705
62.2922
62.4137
62.5348
62.6553
62.7753
62.8945
63.013
63.1305
63.2471
63.3625
63.4768
63.5898
63.7015
63.8118
63.9206
64.0278
64.1335
64.2375
64.3399
64.4405
64.5394
64.6365
64.7317
64.8251
64.9167
65.0064
65.0942
65.1801
65.2642
65.3464
65.4267
65.5052
65.5818
65.6567
65.7297
65.801
65.8705
65.9383
66.0044
66.0689
66.1318
66.1931
66.2529
66.3111
66.3679
66.4233
66.4774
66.5301
66.5815
66.6317
66.6807
66.7285
66.7753
66.8209
66.8657
66.9091
66.9525
66.9929
67.0378
67.0691
67.1327
67.2037
67.2018
67.1979
67.192
67.1841
67.1741
67.1622
67.1482
67.1321
67.114
67.0937
67.0713
67.0467
67.0199
66.9908
66.9595
66.9258
66.8897
66.8512
66.8102
66.7667
66.7206
66.6719
66.6205
66.5665
66.5097
66.45
66.3876
66.3223
66.2542
66.1831
66.1091
66.0322
65.9523
65.8695
65.7839
65.6953
65.6039
65.5098
65.4129
65.3134
65.2113
65.1068
64.9999
64.8908
64.7796
64.6665
64.5516
64.4351
64.3172
64.198
64.0777
63.9566
63.8347
63.7124
63.5897
63.4669
63.3442
63.2216
63.0995
62.9779
62.8571
62.7371
62.618
62.5001
62.3833
62.2679
62.1539
62.0414
61.9304
61.821
61.7132
61.6072
61.5028
61.4001
61.2991
61.1999
61.1023
61.0065
60.9123
60.8198
60.7288
60.6395
60.5516
60.4653
60.3804
60.2968
60.2147
60.1338
60.0542
59.9759
59.8987
59.8226
59.7477
59.6738
59.601
59.5293
59.4585
59.3887
59.3199
59.2522
59.1854
59.1196
59.0548
58.991
58.9283
58.8667
58.8063
58.7469
58.6888
58.6319
58.5764
58.5221
58.4693
58.418
58.3681
58.3199
58.2733
58.2284
58.1854
58.1442
58.1049
58.0676
58.0323
57.9992
57.9682
57.9395
57.9131
57.8891
57.8675
57.8483
57.8317
57.8177
57.8063
57.7976
57.7915
57.7883
57.7878
57.7901
57.7953
57.8033
57.8143
57.8281
57.8449
57.8647
57.8874
57.9131
57.9418
57.9734
58.0081
58.0457
58.0863
58.1299
58.1765
58.226
58.2784
58.3338
58.3921
58.4533
58.5174
58.5842
58.6539
58.7264
58.8016
58.8795
58.9601
59.0433
59.129
59.2173
59.308
59.4011
59.4965
59.5942
59.6941
59.7962
59.9002
60.0063
60.1142
60.2238
60.3352
60.4481
60.5626
60.6784
60.7955
60.9137
61.033
61.1532
61.2743
61.396
61.5183
61.641
61.7641
61.8874
62.0108
62.1341
62.2572
62.3801
62.5026
62.6246
62.746
62.8666
62.9864
63.1053
63.2231
63.3398
63.4553
63.5695
63.6823
63.7937
63.9036
64.0118
64.1185
64.2234
64.3267
64.4281
64.5277
64.6255
64.7214
64.8154
64.9076
64.9978
65.086
65.1724
65.2568
65.3393
65.42
65.4987
65.5755
65.6505
65.7236
65.795
65.8646
65.9324
65.9985
66.063
66.1257
66.1869
66.2466
66.3047
66.3613
66.4166
66.4704
66.5228
66.574
66.624
66.6727
66.7202
66.7667
66.8121
66.8565
66.8997
66.9428
66.9828
67.0274
67.0584
67.1216
67.2037
67.2018
67.198
67.1921
67.1842
67.1744
67.1626
67.1487
67.1328
67.1148
67.0947
67.0724
67.048
67.0214
66.9925
66.9613
66.9278
66.8919
66.8535
66.8126
66.7692
66.7232
66.6745
66.6231
66.569
66.5121
66.4523
66.3897
66.3241
66.2555
66.184
66.1095
66.0319
65.9513
65.8677
65.7811
65.6915
65.599
65.5035
65.4053
65.3043
65.2006
65.0944
64.9858
64.8748
64.7617
64.6466
64.5297
64.4111
64.291
64.1697
64.0472
63.9239
63.7999
63.6754
63.5507
63.4258
63.3011
63.1767
63.0527
62.9294
62.8069
62.6854
62.5649
62.4457
62.3277
62.2112
62.0962
61.9829
61.8711
61.7611
61.6528
61.5463
61.4415
61.3386
61.2375
61.1382
61.0406
60.9448
60.8508
60.7584
60.6677
60.5785
60.491
60.4049
60.3203
60.2372
60.1553
60.0748
59.9956
59.9175
59.8406
59.7648
59.6901
59.6164
59.5438
59.4721
59.4015
59.3317
59.2629
59.1951
59.1282
59.0622
58.9973
58.9333
58.8703
58.8083
58.7475
58.6877
58.6291
58.5718
58.5157
58.4609
58.4075
58.3555
58.3051
58.2562
58.209
58.1634
58.1197
58.0778
58.0378
57.9999
57.964
57.9302
57.8986
57.8692
57.8422
57.8176
57.7954
57.7757
57.7586
57.7441
57.7322
57.723
57.7165
57.7129
57.712
57.714
57.7188
57.7266
57.7373
57.751
57.7676
57.7872
57.8097
57.8353
57.8639
57.8956
57.9302
57.9678
58.0085
58.0522
58.0989
58.1485
58.2012
58.2568
58.3153
58.3768
58.4411
58.5084
58.5784
58.6513
58.727
58.8054
58.8865
58.9703
59.0567
59.1456
59.237
59.3309
59.4272
59.5257
59.6266
59.7295
59.8346
59.9417
60.0507
60.1615
60.2741
60.3883
60.504
60.6211
60.7396
60.8592
60.9799
61.1016
61.2241
61.3474
61.4712
61.5955
61.7201
61.845
61.9699
62.0948
62.2196
62.344
62.4681
62.5916
62.7145
62.8366
62.9579
63.0782
63.1975
63.3155
63.4324
63.5479
63.6619
63.7745
63.8855
63.9949
64.1026
64.2085
64.3127
64.415
64.5154
64.614
64.7106
64.8053
64.898
64.9888
65.0775
65.1643
65.2492
65.332
65.4129
65.4919
65.5689
65.6441
65.7174
65.7888
65.8584
65.9262
65.9923
66.0567
66.1194
66.1805
66.24
66.2979
66.3544
66.4094
66.4629
66.5152
66.5661
66.6157
66.6642
66.7114
66.7576
66.8026
66.8467
66.8895
66.9323
66.972
67.0162
67.047
67.1096
67.2037
67.2018
67.198
67.1922
67.1845
67.1747
67.163
67.1493
67.1335
67.1157
67.0958
67.0738
67.0495
67.0231
66.9944
66.9635
66.9301
66.8944
66.8562
66.8154
66.7722
66.7262
66.6776
66.6263
66.5721
66.5151
66.4552
66.3923
66.3264
66.2575
66.1855
66.1104
66.0321
65.9508
65.8663
65.7787
65.688
65.5942
65.4974
65.3977
65.2951
65.1897
65.0817
64.9711
64.8581
64.7429
64.6256
64.5064
64.3855
64.2631
64.1393
64.0145
63.8888
63.7624
63.6356
63.5085
63.3815
63.2546
63.1281
63.0022
62.877
62.7527
62.6295
62.5075
62.3868
62.2676
62.15
62.034
61.9197
61.8071
61.6964
61.5876
61.4806
61.3756
61.2724
61.1712
61.0718
60.9743
60.8786
60.7847
60.6926
60.6021
60.5133
60.4261
60.3404
60.2562
60.1734
60.092
60.0119
59.933
59.8553
59.7787
59.7033
59.6288
59.5554
59.483
59.4115