/*--------------------------------*- C++ -*----------------------------------*\
| =========                 |                                                 |
| \\      /  F ield         | OpenFOAM: The Open Source CFD Toolbox           |
|  \\    /   O peration     | Version:  2306                                  |
|   \\  /    A nd           | Website:  www.openfoam.com                      |
|    \\/     M anipulation  |                                                 |
\*---------------------------------------------------------------------------*/
FoamFile
{
    version     2.0;
    format      ascii;
    arch        "LSB;label=32;scalar=64";
    class       volScalarField;
    location    "9";
    object      p;
}
// * * * * * * * * * * * * * * * * * * * * * * * * * * * * * * * * * * * * * //

dimensions      [0 2 -2 0 0 0 0];

internalField   nonuniform List<scalar> 
32768
(
0.268904
0.268771
0.26848
0.268022
0.267398
0.26661
0.265658
0.264539
0.263252
0.261796
0.260167
0.258365
0.256386
0.254228
0.251889
0.249365
0.246653
0.24375
0.240654
0.23736
0.233865
0.230166
0.22626
0.222142
0.21781
0.21326
0.208489
0.203494
0.198272
0.19282
0.187136
0.181217
0.175063
0.16867
0.162039
0.155169
0.14806
0.140711
0.133125
0.125303
0.117246
0.108958
0.100442
0.0917033
0.0827456
0.073575
0.0641977
0.0546206
0.0448514
0.0348984
0.0247705
0.014477
0.00402798
-0.00656613
-0.0172945
-0.0281458
-0.0391086
-0.050171
-0.0613213
-0.0725472
-0.0838368
-0.0951781
-0.106559
-0.117968
-0.129394
-0.140825
-0.15225
-0.16366
-0.175043
-0.186392
-0.197696
-0.208947
-0.220138
-0.231261
-0.242309
-0.253277
-0.264159
-0.274949
-0.285644
-0.29624
-0.306733
-0.317121
-0.327401
-0.337571
-0.34763
-0.357575
-0.367408
-0.377125
-0.386727
-0.396214
-0.405585
-0.41484
-0.423978
-0.433
-0.441904
-0.450691
-0.45936
-0.46791
-0.47634
-0.484649
-0.492835
-0.500897
-0.508832
-0.516638
-0.524313
-0.531854
-0.539256
-0.546517
-0.553633
-0.560598
-0.56741
-0.574062
-0.580551
-0.58687
-0.593014
-0.598977
-0.604753
-0.610337
-0.615722
-0.620902
-0.625871
-0.630622
-0.635149
-0.639446
-0.643506
-0.647324
-0.650894
-0.654209
-0.657264
-0.660054
-0.662574
-0.664819
-0.666783
-0.668464
-0.669856
-0.670957
-0.671762
-0.67227
-0.672477
-0.672382
-0.671982
-0.671277
-0.670266
-0.668948
-0.667323
-0.665392
-0.663155
-0.660614
-0.657771
-0.654628
-0.651188
-0.647453
-0.643428
-0.639115
-0.63452
-0.629647
-0.624502
-0.61909
-0.613417
-0.607489
-0.601313
-0.594897
-0.588247
-0.581372
-0.57428
-0.566979
-0.559478
-0.551787
-0.543914
-0.535869
-0.527663
-0.519305
-0.510805
-0.502175
-0.493424
-0.484564
-0.475605
-0.466559
-0.457437
-0.448249
-0.439007
-0.429721
-0.420403
-0.411064
-0.401714
-0.392363
-0.383023
-0.373704
-0.364415
-0.355165
-0.345966
-0.336825
-0.327751
-0.318753
-0.309838
-0.301015
-0.29229
-0.28367
-0.275161
-0.26677
-0.258501
-0.25036
-0.242352
-0.234479
-0.226746
-0.219156
-0.211711
-0.204415
-0.197268
-0.190272
-0.183428
-0.176737
-0.170199
-0.163814
-0.157582
-0.151501
-0.145571
-0.13979
-0.134157
-0.12867
-0.123327
-0.118125
-0.113062
-0.108136
-0.103342
-0.0986795
-0.0941439
-0.0897322
-0.0854411
-0.0812671
-0.0772067
-0.0732563
-0.0694121
-0.0656706
-0.0620278
-0.0584802
-0.0550237
-0.0516548
-0.0483695
-0.0451642
-0.0420349
-0.038978
-0.0359897
-0.0330663
-0.0302041
-0.0273997
-0.0246492
-0.0219495
-0.0192962
-0.0166884
-0.0141164
-0.0115924
-0.00907584
-0.00665233
-0.0040934
-0.0018738
0.269066
0.268932
0.268642
0.268185
0.267561
0.266773
0.265822
0.264704
0.263418
0.261963
0.260335
0.258534
0.256556
0.2544
0.252062
0.249539
0.246828
0.243927
0.240831
0.237539
0.234045
0.230347
0.226441
0.222323
0.217991
0.213441
0.20867
0.203674
0.198451
0.192997
0.187311
0.18139
0.175233
0.168837
0.162202
0.155328
0.148213
0.140859
0.133267
0.125437
0.117373
0.109077
0.100553
0.0918049
0.0828375
0.0736566
0.0642685
0.0546803
0.0448995
0.0349346
0.0247945
0.0144885
0.00402692
-0.0065799
-0.017321
-0.028185
-0.0391604
-0.0502353
-0.0613977
-0.0726355
-0.0839367
-0.0952891
-0.106681
-0.1181
-0.129535
-0.140975
-0.152409
-0.163826
-0.175217
-0.186572
-0.197882
-0.209138
-0.220333
-0.23146
-0.242511
-0.253482
-0.264365
-0.275157
-0.285853
-0.296449
-0.306942
-0.317329
-0.327608
-0.337777
-0.347834
-0.357778
-0.367608
-0.377324
-0.386924
-0.396408
-0.405777
-0.41503
-0.424166
-0.433186
-0.442089
-0.450874
-0.459542
-0.46809
-0.47652
-0.484828
-0.493014
-0.501076
-0.509011
-0.516818
-0.524494
-0.532036
-0.53944
-0.546703
-0.553821
-0.560789
-0.567604
-0.574259
-0.580751
-0.587074
-0.593221
-0.599189
-0.604969
-0.610558
-0.615947
-0.621131
-0.626105
-0.63086
-0.635392
-0.639693
-0.643758
-0.647581
-0.651155
-0.654474
-0.657534
-0.660328
-0.662852
-0.6651
-0.667068
-0.668752
-0.670148
-0.671252
-0.67206
-0.67257
-0.67278
-0.672686
-0.672289
-0.671585
-0.670575
-0.669258
-0.667635
-0.665704
-0.663468
-0.660928
-0.658085
-0.654941
-0.6515
-0.647765
-0.643738
-0.639424
-0.634828
-0.629953
-0.624806
-0.619391
-0.613716
-0.607785
-0.601606
-0.595187
-0.588534
-0.581655
-0.574558
-0.567253
-0.559748
-0.552052
-0.544174
-0.536124
-0.527912
-0.519548
-0.511042
-0.502405
-0.493648
-0.484781
-0.475816
-0.466762
-0.457633
-0.448437
-0.439187
-0.429894
-0.420568
-0.41122
-0.401862
-0.392504
-0.383156
-0.373828
-0.36453
-0.355273
-0.346065
-0.336916
-0.327834
-0.318828
-0.309905
-0.301074
-0.292342
-0.283715
-0.275199
-0.266801
-0.258526
-0.250378
-0.242363
-0.234484
-0.226746
-0.21915
-0.211701
-0.2044
-0.197248
-0.190248
-0.1834
-0.176706
-0.170165
-0.163777
-0.157541
-0.151458
-0.145526
-0.139743
-0.134109
-0.12862
-0.123276
-0.118073
-0.11301
-0.108083
-0.103289
-0.0986264
-0.094091
-0.0896797
-0.0853892
-0.081216
-0.0771565
-0.0732071
-0.0693642
-0.0656239
-0.0619826
-0.0584365
-0.0549818
-0.0516146
-0.0483312
-0.0451277
-0.0420004
-0.0389455
-0.0359593
-0.0330381
-0.0301781
-0.0273759
-0.0246276
-0.0219302
-0.0192791
-0.0166736
-0.0141037
-0.0115822
-0.00906671
-0.00664721
-0.00408428
-0.00188109
0.269389
0.269256
0.268966
0.268509
0.267887
0.267101
0.26615
0.265034
0.26375
0.262297
0.260672
0.258873
0.256897
0.254743
0.252408
0.249887
0.247179
0.24428
0.241187
0.237896
0.234404
0.230708
0.226803
0.222686
0.218355
0.213805
0.209032
0.204035
0.198809
0.193353
0.187663
0.181738
0.175574
0.169172
0.162529
0.155646
0.148521
0.141156
0.133551
0.125708
0.117629
0.109317
0.100775
0.0920087
0.0830218
0.0738203
0.0644107
0.0548
0.044996
0.0350072
0.0248425
0.0145116
0.00402469
-0.00660765
-0.0173743
-0.0282639
-0.0392645
-0.0503644
-0.0615513
-0.0728131
-0.0841374
-0.0955121
-0.106925
-0.118365
-0.129819
-0.141277
-0.152728
-0.164161
-0.175566
-0.186933
-0.198255
-0.209521
-0.220725
-0.231859
-0.242917
-0.253892
-0.264779
-0.275574
-0.286271
-0.296868
-0.307361
-0.317747
-0.328024
-0.33819
-0.348244
-0.358184
-0.36801
-0.377722
-0.387318
-0.396798
-0.406162
-0.41541
-0.424543
-0.433558
-0.442458
-0.45124
-0.459905
-0.468451
-0.476879
-0.485186
-0.493371
-0.501433
-0.50937
-0.517178
-0.524856
-0.5324
-0.539808
-0.547075
-0.554198
-0.561171
-0.567991
-0.574653
-0.581152
-0.587482
-0.593637
-0.599613
-0.605402
-0.610999
-0.616397
-0.62159
-0.626573
-0.631338
-0.635878
-0.640189
-0.644263
-0.648095
-0.651678
-0.655006
-0.658074
-0.660877
-0.663408
-0.665664
-0.66764
-0.669331
-0.670733
-0.671842
-0.672656
-0.673172
-0.673386
-0.673297
-0.672903
-0.672203
-0.671196
-0.669882
-0.66826
-0.666331
-0.664095
-0.661555
-0.658712
-0.655568
-0.652126
-0.648389
-0.644361
-0.640044
-0.635445
-0.630567
-0.625415
-0.619996
-0.614315
-0.608379
-0.602194
-0.595768
-0.589108
-0.582222
-0.575117
-0.567803
-0.560289
-0.552583
-0.544695
-0.536634
-0.528411
-0.520035
-0.511517
-0.502868
-0.494097
-0.485217
-0.476237
-0.46717
-0.458025
-0.448815
-0.439549
-0.43024
-0.420899
-0.411535
-0.40216
-0.392786
-0.383421
-0.374076
-0.364762
-0.355489
-0.346264
-0.337099
-0.328001
-0.318979
-0.310041
-0.301194
-0.292447
-0.283805
-0.275275
-0.266863
-0.258574
-0.250414
-0.242386
-0.234496
-0.226746
-0.21914
-0.21168
-0.204369
-0.197208
-0.1902
-0.183344
-0.176643
-0.170095
-0.163701
-0.15746
-0.151372
-0.145435
-0.139649
-0.134011
-0.12852
-0.123173
-0.117969
-0.112904
-0.107976
-0.103183
-0.0985198
-0.0939848
-0.0895744
-0.0852851
-0.0811134
-0.0770557
-0.0731085
-0.0692679
-0.0655304
-0.061892
-0.058349
-0.0548976
-0.0515339
-0.0482542
-0.0450546
-0.0419312
-0.0388805
-0.0358984
-0.0329815
-0.0301259
-0.0273281
-0.0245843
-0.0218914
-0.0192448
-0.0166438
-0.0140784
-0.0115615
-0.00905019
-0.00663545
-0.00407662
-0.0018808
0.269874
0.269741
0.269452
0.268996
0.268375
0.267591
0.266643
0.265529
0.264248
0.262798
0.261176
0.25938
0.257409
0.255258
0.252926
0.25041
0.247705
0.24481
0.24172
0.238433
0.234944
0.231249
0.227347
0.223231
0.2189
0.21435
0.209576
0.204577
0.199348
0.193887
0.188192
0.182259
0.176088
0.169675
0.163021
0.156124
0.148984
0.141602
0.133978
0.126115
0.118013
0.109677
0.10111
0.0923152
0.0832989
0.0740664
0.0646243
0.0549798
0.0451409
0.0351159
0.0249143
0.0145458
0.00402069
-0.00665009
-0.0174553
-0.0283833
-0.0394221
-0.0505596
-0.0617834
-0.0730811
-0.0844403
-0.0958487
-0.107294
-0.118764
-0.130248
-0.141733
-0.153209
-0.164665
-0.176091
-0.187478
-0.198817
-0.210098
-0.221315
-0.232461
-0.243527
-0.25451
-0.265403
-0.276201
-0.2869
-0.297498
-0.30799
-0.318374
-0.328648
-0.33881
-0.348859
-0.358794
-0.368614
-0.378319
-0.387908
-0.397382
-0.40674
-0.415981
-0.425107
-0.434117
-0.443011
-0.451788
-0.460449
-0.468992
-0.477417
-0.485722
-0.493907
-0.501969
-0.509907
-0.517717
-0.525398
-0.532947
-0.54036
-0.547633
-0.554762
-0.561744
-0.568573
-0.575245
-0.581753
-0.588094
-0.594261
-0.600249
-0.606051
-0.61166
-0.617072
-0.622279
-0.627275
-0.632054
-0.636609
-0.640934
-0.645021
-0.648867
-0.652463
-0.655804
-0.658885
-0.6617
-0.664244
-0.666511
-0.668498
-0.670199
-0.671611
-0.67273
-0.673552
-0.674075
-0.674297
-0.674215
-0.673827
-0.673132
-0.672129
-0.670818
-0.669199
-0.667272
-0.665038
-0.662499
-0.659655
-0.656511
-0.653067
-0.649328
-0.645296
-0.640976
-0.636372
-0.631488
-0.626331
-0.620905
-0.615217
-0.609272
-0.603078
-0.596642
-0.589971
-0.583073
-0.575957
-0.56863
-0.561102
-0.553381
-0.545478
-0.537401
-0.529161
-0.520767
-0.512231
-0.503563
-0.494773
-0.485872
-0.476872
-0.467782
-0.458616
-0.449382
-0.440094
-0.430761
-0.421396
-0.412008
-0.402609
-0.393209
-0.38382
-0.37445
-0.365111
-0.355813
-0.346564
-0.337374
-0.328251
-0.319205
-0.310244
-0.301374
-0.292604
-0.28394
-0.275388
-0.266956
-0.258647
-0.250467
-0.242421
-0.234512
-0.226745
-0.219123
-0.211648
-0.204322
-0.197148
-0.190127
-0.18326
-0.176547
-0.169989
-0.163586
-0.157337
-0.151242
-0.145299
-0.139507
-0.133864
-0.128369
-0.123019
-0.117812
-0.112746
-0.107817
-0.103022
-0.0983595
-0.0938252
-0.089416
-0.0851285
-0.0809591
-0.0769042
-0.0729602
-0.0691233
-0.0653897
-0.0617557
-0.0582174
-0.054771
-0.0514126
-0.0481384
-0.0449446
-0.0418273
-0.0387826
-0.0358069
-0.0328964
-0.0300474
-0.0272562
-0.0245192
-0.0218331
-0.0191933
-0.0165991
-0.0140405
-0.0115304
-0.00902582
-0.00661793
-0.00406593
-0.00187685
0.27052
0.270387
0.270099
0.269645
0.269026
0.268244
0.267299
0.266189
0.264911
0.263465
0.261848
0.260057
0.25809
0.255945
0.253618
0.251107
0.248408
0.245517
0.242432
0.239149
0.235663
0.231973
0.228072
0.223959
0.219629
0.215078
0.210303
0.205301
0.200068
0.194602
0.188899
0.182957
0.176774
0.170348
0.163678
0.156764
0.149604
0.142199
0.13455
0.126659
0.118528
0.110159
0.101557
0.0927253
0.0836696
0.0743956
0.0649099
0.0552201
0.0453341
0.0352608
0.0250096
0.0145905
0.00401421
-0.00670819
-0.0175652
-0.0285447
-0.0396347
-0.0508227
-0.062096
-0.0734419
-0.0848479
-0.0963013
-0.10779
-0.119301
-0.130823
-0.142345
-0.153854
-0.165342
-0.176796
-0.188209
-0.19957
-0.210872
-0.222107
-0.233266
-0.244345
-0.255337
-0.266237
-0.27704
-0.287742
-0.29834
-0.308831
-0.319213
-0.329482
-0.339639
-0.349682
-0.359609
-0.369421
-0.379117
-0.388697
-0.398161
-0.40751
-0.416743
-0.42586
-0.434862
-0.443748
-0.452519
-0.461174
-0.469713
-0.478134
-0.486437
-0.494621
-0.502683
-0.510622
-0.518436
-0.526121
-0.533675
-0.541095
-0.548376
-0.555515
-0.562507
-0.569348
-0.576033
-0.582555
-0.588911
-0.595094
-0.601097
-0.606916
-0.612544
-0.617973
-0.623199
-0.628213
-0.633011
-0.637584
-0.641928
-0.646034
-0.649898
-0.653512
-0.656871
-0.659969
-0.662801
-0.66536
-0.667643
-0.669644
-0.671359
-0.672784
-0.673916
-0.67475
-0.675283
-0.675514
-0.675441
-0.67506
-0.674372
-0.673375
-0.672069
-0.670454
-0.66853
-0.666298
-0.663759
-0.660916
-0.65777
-0.654324
-0.650582
-0.646546
-0.642221
-0.637611
-0.63272
-0.627555
-0.62212
-0.616421
-0.610466
-0.60426
-0.59781
-0.591125
-0.584212
-0.577079
-0.569735
-0.562189
-0.554449
-0.546525
-0.538427
-0.530164
-0.521747
-0.513187
-0.504493
-0.495676
-0.486748
-0.47772
-0.468602
-0.459405
-0.450142
-0.440823
-0.431458
-0.422061
-0.412641
-0.403209
-0.393776
-0.384353
-0.374951
-0.365578
-0.356247
-0.346964
-0.337742
-0.328587
-0.319509
-0.310515
-0.301615
-0.292814
-0.284121
-0.27554
-0.26708
-0.258744
-0.250538
-0.242467
-0.234534
-0.226745
-0.219101
-0.211605
-0.20426
-0.197068
-0.19003
-0.183147
-0.17642
-0.169848
-0.163433
-0.157173
-0.151068
-0.145116
-0.139317
-0.133668
-0.128167
-0.122813
-0.117602
-0.112533
-0.107602
-0.102807
-0.0981449
-0.0936116
-0.089204
-0.0849189
-0.0807526
-0.0767014
-0.0727617
-0.0689296
-0.0652014
-0.0615733
-0.0580413
-0.0546016
-0.0512504
-0.0479836
-0.0447975
-0.0416881
-0.0386517
-0.0356845
-0.0327826
-0.0299424
-0.0271601
-0.0244321
-0.021755
-0.0191244
-0.0165394
-0.0139899
-0.0114888
-0.00899334
-0.00659443
-0.00405147
-0.00187098
0.271326
0.271194
0.270907
0.270455
0.269838
0.269059
0.268118
0.267012
0.26574
0.264299
0.262687
0.260902
0.258942
0.256803
0.254483
0.251978
0.249285
0.246401
0.243322
0.240045
0.236564
0.232878
0.228981
0.22487
0.220541
0.21599
0.211214
0.206209
0.200971
0.195498
0.189785
0.183832
0.177635
0.171193
0.164504
0.157567
0.150382
0.142949
0.135269
0.127343
0.119174
0.110765
0.102119
0.0932404
0.084135
0.0748087
0.0652682
0.0555212
0.045576
0.0354416
0.0251279
0.0146451
0.00400422
-0.00678328
-0.0177055
-0.0287501
-0.0399046
-0.0511562
-0.0624918
-0.0738985
-0.0853633
-0.0968734
-0.108416
-0.119979
-0.13155
-0.143117
-0.154669
-0.166195
-0.177685
-0.18913
-0.20052
-0.211846
-0.223102
-0.23428
-0.245374
-0.256378
-0.267286
-0.278095
-0.2888
-0.299399
-0.309888
-0.320265
-0.330529
-0.340678
-0.350712
-0.36063
-0.370431
-0.380116
-0.389684
-0.399137
-0.408474
-0.417695
-0.426801
-0.435793
-0.44467
-0.453432
-0.46208
-0.470613
-0.47903
-0.48733
-0.495512
-0.503574
-0.511515
-0.519332
-0.527023
-0.534584
-0.542013
-0.549304
-0.556455
-0.563461
-0.570317
-0.577018
-0.583558
-0.589932
-0.596135
-0.602159
-0.607999
-0.613649
-0.619101
-0.62435
-0.629388
-0.634209
-0.638806
-0.643173
-0.647303
-0.65119
-0.654827
-0.658208
-0.661328
-0.66418
-0.66676
-0.669062
-0.671082
-0.672814
-0.674256
-0.675402
-0.676251
-0.676798
-0.677041
-0.676978
-0.676608
-0.675928
-0.674938
-0.673638
-0.672028
-0.670107
-0.667878
-0.66534
-0.662497
-0.65935
-0.655901
-0.652155
-0.648114
-0.643783
-0.639165
-0.634266
-0.62909
-0.623644
-0.617933
-0.611963
-0.605742
-0.599276
-0.592574
-0.585641
-0.578488
-0.571122
-0.563553
-0.555789
-0.547839
-0.539714
-0.531423
-0.522977
-0.514386
-0.50566
-0.496811
-0.487849
-0.478785
-0.469631
-0.460397
-0.451096
-0.441738
-0.432334
-0.422896
-0.413435
-0.403962
-0.394488
-0.385024
-0.375579
-0.366165
-0.356791
-0.347468
-0.338203
-0.329008
-0.319889
-0.310856
-0.301917
-0.293078
-0.284347
-0.275731
-0.267235
-0.258865
-0.250627
-0.242524
-0.234562
-0.226743
-0.219072
-0.21155
-0.204181
-0.196966
-0.189907
-0.183004
-0.176259
-0.169671
-0.16324
-0.156967
-0.150849
-0.144886
-0.139077
-0.13342
-0.127913
-0.122553
-0.117338
-0.112266
-0.107333
-0.102538
-0.0978752
-0.093343
-0.0889377
-0.0846556
-0.0804931
-0.0764466
-0.0725123
-0.0686864
-0.064965
-0.0613443
-0.0578202
-0.054389
-0.0510466
-0.0477891
-0.0446127
-0.0415134
-0.0384874
-0.0355308
-0.0326398
-0.0298105
-0.0270395
-0.0243227
-0.0216571
-0.0190378
-0.0164643
-0.0139263
-0.0114367
-0.00895257
-0.00656486
-0.00403332
-0.00186348
0.272292
0.272161
0.271876
0.271425
0.270812
0.270037
0.2691
0.267999
0.266733
0.265298
0.263693
0.261916
0.259963
0.257833
0.255521
0.253024
0.250339
0.247463
0.244392
0.241121
0.237647
0.233966
0.230074
0.225966
0.221639
0.217089
0.212311
0.207302
0.202058
0.196577
0.190854
0.184887
0.178673
0.172211
0.165499
0.158536
0.15132
0.143854
0.136136
0.128169
0.119955
0.111496
0.102797
0.0938621
0.0846967
0.075307
0.0657001
0.0558838
0.0458667
0.0356584
0.0252688
0.0147087
0.00398944
-0.00687702
-0.0178784
-0.0290019
-0.0402346
-0.0515632
-0.0629743
-0.0744546
-0.0859907
-0.0975693
-0.109177
-0.120802
-0.132432
-0.144054
-0.155657
-0.16723
-0.178763
-0.190246
-0.20167
-0.213026
-0.224308
-0.235507
-0.246618
-0.257635
-0.268554
-0.279369
-0.290077
-0.300676
-0.311162
-0.321534
-0.331791
-0.341931
-0.351953
-0.361859
-0.371646
-0.381317
-0.390871
-0.400309
-0.409631
-0.418838
-0.427931
-0.43691
-0.445775
-0.454527
-0.463166
-0.471691
-0.480102
-0.488399
-0.496579
-0.504642
-0.512585
-0.520407
-0.528104
-0.535674
-0.543113
-0.550417
-0.557583
-0.564605
-0.571479
-0.578199
-0.584761
-0.591158
-0.597385
-0.603434
-0.609301
-0.614977
-0.620457
-0.625734
-0.6308
-0.63565
-0.640276
-0.644671
-0.64883
-0.652744
-0.656409
-0.659817
-0.662963
-0.665841
-0.668445
-0.670771
-0.672813
-0.674567
-0.676028
-0.677193
-0.678059
-0.678622
-0.67888
-0.67883
-0.678471
-0.677802
-0.676821
-0.675528
-0.673924
-0.672007
-0.669781
-0.667245
-0.664401
-0.661252
-0.657801
-0.65405
-0.650003
-0.645664
-0.641037
-0.636127
-0.63094
-0.62548
-0.619754
-0.613768
-0.607528
-0.601043
-0.594319
-0.587364
-0.580187
-0.572795
-0.565198
-0.557404
-0.549424
-0.541267
-0.532942
-0.524461
-0.515833
-0.507069
-0.49818
-0.489177
-0.48007
-0.470873
-0.461594
-0.452247
-0.442842
-0.433391
-0.423904
-0.414394
-0.404872
-0.395347
-0.385833
-0.376338
-0.366873
-0.357449
-0.348075
-0.338761
-0.329516
-0.320349
-0.311268
-0.302281
-0.293396
-0.28462
-0.27596
-0.267422
-0.259011
-0.250733
-0.242592
-0.234594
-0.226741
-0.219036
-0.211484
-0.204085
-0.196843
-0.189758
-0.182831
-0.176064
-0.169456
-0.163007
-0.156716
-0.150584
-0.144608
-0.138788
-0.133121
-0.127605
-0.122239
-0.117019
-0.111943
-0.107008
-0.102212
-0.0975495
-0.0930188
-0.0886161
-0.0843377
-0.0801799
-0.0761391
-0.0722114
-0.0683929
-0.0646797
-0.0610678
-0.0575534
-0.0541323
-0.0508007
-0.0475545
-0.0443898
-0.0413027
-0.0382891
-0.0353453
-0.0324674
-0.0296515
-0.0268939
-0.0241908
-0.0215389
-0.0189335
-0.0163738
-0.0138496
-0.0113737
-0.0089034
-0.00652917
-0.00401145
-0.00185436
0.273417
0.273287
0.273003
0.272555
0.271946
0.271175
0.270244
0.26915
0.26789
0.266463
0.264867
0.263098
0.261155
0.259034
0.256731
0.254245
0.25157
0.248703
0.245641
0.242378
0.238912
0.235238
0.231351
0.227248
0.222923
0.218374
0.213595
0.208582
0.203332
0.197842
0.192107
0.186124
0.179892
0.173407
0.166668
0.159673
0.152423
0.144917
0.137155
0.129139
0.120872
0.112355
0.103594
0.0945925
0.0853563
0.0758919
0.0662065
0.0563084
0.0462066
0.0359108
0.0254315
0.0147801
0.00396829
-0.00699148
-0.0180864
-0.0293031
-0.0406281
-0.0520476
-0.0635479
-0.0751149
-0.0867349
-0.0983943
-0.11008
-0.121778
-0.133476
-0.145162
-0.156825
-0.168453
-0.180035
-0.191563
-0.203026
-0.214418
-0.225728
-0.236952
-0.248083
-0.259116
-0.270045
-0.280866
-0.291578
-0.302175
-0.312658
-0.323023
-0.33327
-0.343398
-0.353407
-0.363297
-0.373068
-0.382722
-0.392258
-0.401678
-0.410982
-0.420172
-0.429248
-0.438212
-0.447063
-0.455803
-0.464431
-0.472947
-0.481352
-0.489644
-0.497822
-0.505885
-0.513831
-0.521658
-0.529363
-0.536943
-0.544394
-0.551714
-0.558897
-0.565938
-0.572834
-0.579578
-0.586165
-0.592589
-0.598844
-0.604924
-0.610821
-0.616529
-0.622042
-0.627352
-0.632452
-0.637336
-0.641996
-0.646425
-0.650617
-0.654564
-0.658261
-0.661701
-0.664878
-0.667786
-0.670419
-0.672772
-0.674841
-0.67662
-0.678105
-0.679292
-0.680178
-0.68076
-0.681035
-0.681001
-0.680656
-0.679998
-0.679028
-0.677743
-0.676146
-0.674235
-0.672011
-0.669477
-0.666633
-0.663483
-0.660028
-0.656271
-0.652217
-0.64787
-0.643232
-0.63831
-0.633109
-0.627633
-0.621889
-0.615884
-0.609623
-0.603115
-0.596366
-0.589385
-0.582179
-0.574757
-0.567127
-0.5593
-0.551284
-0.543089
-0.534725
-0.526202
-0.517531
-0.508722
-0.499787
-0.490735
-0.48158
-0.472331
-0.463
-0.453599
-0.444139
-0.434632
-0.425089
-0.415521
-0.40594
-0.396357
-0.386783
-0.377228
-0.367704
-0.358221
-0.348788
-0.339415
-0.330112
-0.320887
-0.31175
-0.302708
-0.293769
-0.28494
-0.276229
-0.267641
-0.259182
-0.250857
-0.242672
-0.23463
-0.226737
-0.218994
-0.211404
-0.203971
-0.196697
-0.189581
-0.182627
-0.175834
-0.169202
-0.162731
-0.156422
-0.150272
-0.144281
-0.138447
-0.132769
-0.127244
-0.121869
-0.116644
-0.111564
-0.106626
-0.101828
-0.0971665
-0.0926376
-0.088238
-0.083964
-0.0798119
-0.0757778
-0.0718578
-0.0680481
-0.0643445
-0.0607432
-0.05724
-0.0538309
-0.0505119
-0.047279
-0.0441281
-0.0410552
-0.0380564
-0.0351276
-0.032265
-0.0294648
-0.026723
-0.0240359
-0.0214002
-0.018811
-0.0162675
-0.0137596
-0.0112999
-0.00884568
-0.00648726
-0.00398578
-0.00184359
0.2747
0.274571
0.274289
0.273845
0.273239
0.272474
0.271549
0.270462
0.269211
0.267793
0.266206
0.264448
0.262516
0.260406
0.258115
0.25564
0.252976
0.250121
0.24707
0.243818
0.240361
0.236695
0.232815
0.228717
0.224396
0.219848
0.215068
0.210052
0.204796
0.199295
0.193546
0.187547
0.181293
0.174782
0.168013
0.160983
0.153693
0.146141
0.138329
0.130257
0.121928
0.113345
0.104512
0.0954339
0.0861159
0.076565
0.0667889
0.056796
0.0465959
0.0361987
0.0256155
0.0148581
0.00393886
-0.00712914
-0.0183325
-0.0296572
-0.0410892
-0.0526142
-0.0642176
-0.075885
-0.087602
-0.0993546
-0.111129
-0.122911
-0.134689
-0.146449
-0.15818
-0.169871
-0.18151
-0.193089
-0.204597
-0.216027
-0.227371
-0.238623
-0.249775
-0.260824
-0.271765
-0.282593
-0.293306
-0.303902
-0.314379
-0.324735
-0.33497
-0.345083
-0.355076
-0.364947
-0.374699
-0.384331
-0.393846
-0.403245
-0.412528
-0.421697
-0.430754
-0.439699
-0.448534
-0.457259
-0.465874
-0.47438
-0.482777
-0.491063
-0.499239
-0.507302
-0.515251
-0.523084
-0.530798
-0.53839
-0.545856
-0.553193
-0.560396
-0.567461
-0.574381
-0.581153
-0.58777
-0.594225
-0.600513
-0.606628
-0.612561
-0.618306
-0.623857
-0.629206
-0.634345
-0.639268
-0.643967
-0.648436
-0.652667
-0.656653
-0.660387
-0.663864
-0.667077
-0.670019
-0.672686
-0.675071
-0.67717
-0.678977
-0.680489
-0.681702
-0.682612
-0.683215
-0.68351
-0.683494
-0.683165
-0.682521
-0.681563
-0.680288
-0.678698
-0.676793
-0.674574
-0.672041
-0.669198
-0.666045
-0.662586
-0.658824
-0.654762
-0.650404
-0.645755
-0.640819
-0.635601
-0.630107
-0.624344
-0.618316
-0.612032
-0.605497
-0.59872
-0.591708
-0.58447
-0.577013
-0.569347
-0.561481
-0.553424
-0.545185
-0.536776
-0.528206
-0.519485
-0.510625
-0.501637
-0.49253
-0.483318
-0.47401
-0.464619
-0.455156
-0.445633
-0.436061
-0.426453
-0.416819
-0.40717
-0.39752
-0.387877
-0.378254
-0.368662
-0.35911
-0.349609
-0.340168
-0.330798
-0.321508
-0.312305
-0.303199
-0.294198
-0.285308
-0.276537
-0.267891
-0.259377
-0.250999
-0.242762
-0.234671
-0.226731
-0.218943
-0.211312
-0.203839
-0.196527
-0.189377
-0.18239
-0.175567
-0.168908
-0.162413
-0.156081
-0.149911
-0.143903
-0.138054
-0.132362
-0.126826
-0.121443
-0.116211
-0.111126
-0.106185
-0.101386
-0.096725
-0.0921983
-0.0878023
-0.0835335
-0.0793878
-0.0753615
-0.0714505
-0.0676509
-0.0639585
-0.0603692
-0.0568791
-0.0534839
-0.0501795
-0.0469618
-0.0438268
-0.0407703
-0.0377884
-0.0348769
-0.0320321
-0.0292498
-0.0265263
-0.0238576
-0.0212405
-0.0186699
-0.0161452
-0.0136559
-0.0112148
-0.00877924
-0.006439
-0.00395624
-0.00183114
0.27614
0.276011
0.275732
0.275292
0.274691
0.273932
0.273015
0.271936
0.270694
0.269287
0.267712
0.265965
0.264046
0.261949
0.259672
0.25721
0.25456
0.251718
0.248679
0.24544
0.241994
0.238338
0.234467
0.230376
0.22606
0.221514
0.216734
0.211714
0.206451
0.20094
0.195177
0.189158
0.182881
0.176342
0.169538
0.16247
0.155134
0.147531
0.139662
0.131527
0.123129
0.11447
0.105555
0.0963893
0.086978
0.0773285
0.0674486
0.0573475
0.0470349
0.0365218
0.0258197
0.014941
0.00389893
-0.0072929
-0.0186203
-0.0300686
-0.0416229
-0.0532682
-0.0649894
-0.0767713
-0.088599
-0.100458
-0.112333
-0.124211
-0.136079
-0.147923
-0.159731
-0.171492
-0.183196
-0.194831
-0.20639
-0.217863
-0.229244
-0.240525
-0.251701
-0.262768
-0.27372
-0.284555
-0.295269
-0.305862
-0.31633
-0.326675
-0.336895
-0.34699
-0.356962
-0.366811
-0.376539
-0.386147
-0.395637
-0.40501
-0.414269
-0.423414
-0.432448
-0.441372
-0.450187
-0.458894
-0.467495
-0.475988
-0.484376
-0.492656
-0.500828
-0.508892
-0.516845
-0.524684
-0.532409
-0.540014
-0.547497
-0.554854
-0.562081
-0.569171
-0.576121
-0.582924
-0.589575
-0.596067
-0.602393
-0.608547
-0.614522
-0.62031
-0.625904
-0.631297
-0.636481
-0.641449
-0.646194
-0.650707
-0.654982
-0.659012
-0.66279
-0.666309
-0.669562
-0.672544
-0.675249
-0.67767
-0.679804
-0.681644
-0.683187
-0.684429
-0.685366
-0.685994
-0.686311
-0.686315
-0.686004
-0.685376
-0.684431
-0.683168
-0.681587
-0.679689
-0.677474
-0.674944
-0.6721
-0.668945
-0.665482
-0.661713
-0.657642
-0.653273
-0.64861
-0.643658
-0.638423
-0.632909
-0.627123
-0.621071
-0.614759
-0.608195
-0.601386
-0.59434
-0.587065
-0.57957
-0.571862
-0.563952
-0.555849
-0.547562
-0.539102
-0.530478
-0.521702
-0.512784
-0.503735
-0.494566
-0.485289
-0.475915
-0.466456
-0.456923
-0.447329
-0.437684
-0.428001
-0.418292
-0.408567
-0.398839
-0.38912
-0.379419
-0.369748
-0.360119
-0.35054
-0.341023
-0.331577
-0.322211
-0.312935
-0.303756
-0.294684
-0.285725
-0.276886
-0.268175
-0.259597
-0.251158
-0.242863
-0.234716
-0.226722
-0.218884
-0.211204
-0.203687
-0.196332
-0.189143
-0.18212
-0.175263
-0.168573
-0.16205
-0.155693
-0.149501
-0.143472
-0.137606
-0.1319
-0.126351
-0.120958
-0.115718
-0.110628
-0.105684
-0.100884
-0.0962234
-0.0916992
-0.0873075
-0.0830445
-0.0789063
-0.0748889
-0.0709882
-0.0672
-0.0635204
-0.0599449
-0.0564696
-0.0530901
-0.0498023
-0.046602
-0.043485
-0.0404472
-0.0374844
-0.0345927
-0.0317679
-0.029006
-0.0263032
-0.0236554
-0.0210593
-0.01851
-0.0160064
-0.0135384
-0.0111184
-0.00870387
-0.00638425
-0.00392274
-0.00181698
0.277735
0.277608
0.277331
0.276895
0.2763
0.275548
0.274639
0.273571
0.27234
0.270944
0.269382
0.26765
0.265744
0.263663
0.261401
0.258955
0.256321
0.253494
0.250471
0.247245
0.243813
0.240169
0.236309
0.232226
0.227916
0.223374
0.218594
0.213572
0.208302
0.20278
0.197002
0.190963
0.18466
0.178089
0.171249
0.164137
0.156751
0.149091
0.141158
0.132953
0.124477
0.115733
0.106727
0.0974619
0.0879455
0.0781846
0.0681876
0.057964
0.0475243
0.0368799
0.0260431
0.0150272
0.0038459
-0.00748614
-0.0189539
-0.0305421
-0.0422348
-0.0540162
-0.0658704
-0.0777815
-0.0897338
-0.101712
-0.113701
-0.125687
-0.137655
-0.149593
-0.161488
-0.173327
-0.185102
-0.1968
-0.208414
-0.219935
-0.231355
-0.242669
-0.25387
-0.264955
-0.275919
-0.286759
-0.297473
-0.308059
-0.318518
-0.328847
-0.339049
-0.349123
-0.35907
-0.368893
-0.378593
-0.388172
-0.397632
-0.406975
-0.416204
-0.425322
-0.434329
-0.443228
-0.45202
-0.460707
-0.469291
-0.47777
-0.486147
-0.494419
-0.502588
-0.510652
-0.518609
-0.526456
-0.534192
-0.541814
-0.549316
-0.556696
-0.563949
-0.57107
-0.578053
-0.584892
-0.591581
-0.598114
-0.604484
-0.610683
-0.616705
-0.622541
-0.628185
-0.633628
-0.638863
-0.643882
-0.648678
-0.653242
-0.657568
-0.661647
-0.665474
-0.66904
-0.67234
-0.675366
-0.678114
-0.680576
-0.682749
-0.684626
-0.686204
-0.687478
-0.688444
-0.6891
-0.689443
-0.68947
-0.689179
-0.688569
-0.687639
-0.686389
-0.684818
-0.682927
-0.680717
-0.67819
-0.675346
-0.672189
-0.66872
-0.664944
-0.660863
-0.656482
-0.651804
-0.646835
-0.64158
-0.636044
-0.630233
-0.624153
-0.617812
-0.611215
-0.604371
-0.597288
-0.589972
-0.582433
-0.57468
-0.566721
-0.558567
-0.550226
-0.541709
-0.533026
-0.524187
-0.515204
-0.506088
-0.49685
-0.487501
-0.478052
-0.468517
-0.458906
-0.449231
-0.439505
-0.429738
-0.419944
-0.410135
-0.40032
-0.390514
-0.380726
-0.370968
-0.361251
-0.351585
-0.341982
-0.33245
-0.323
-0.31364
-0.30438
-0.295227
-0.28619
-0.277276
-0.268491
-0.259842
-0.251334
-0.242974
-0.234764
-0.22671
-0.218815
-0.211082
-0.203514
-0.196112
-0.188878
-0.181814
-0.17492
-0.168195
-0.161641
-0.155255
-0.149038
-0.142987
-0.137102
-0.131379
-0.125817
-0.120413
-0.115165
-0.110068
-0.105121
-0.10032
-0.0956599
-0.0911386
-0.0867518
-0.0824956
-0.0783658
-0.0743584
-0.0704693
-0.0666942
-0.0630288
-0.0594689
-0.0560102
-0.0526484
-0.0493793
-0.0461984
-0.0431017
-0.0400848
-0.0371436
-0.0342739
-0.0314716
-0.0287326
-0.0260531
-0.0234288
-0.0208563
-0.0183306
-0.0158508
-0.0134066
-0.0110102
-0.00861936
-0.00632284
-0.00388518
-0.00180105
0.279484
0.279359
0.279085
0.278654
0.278065
0.277322
0.276422
0.275364
0.274146
0.272764
0.271216
0.2695
0.267611
0.265547
0.263303
0.260875
0.258259
0.255451
0.252444
0.249236
0.245819
0.24219
0.238342
0.23427
0.229968
0.225431
0.220653
0.215628
0.210352
0.20482
0.199025
0.192965
0.186635
0.180031
0.17315
0.16599
0.15855
0.150827
0.142824
0.13454
0.125977
0.11714
0.108031
0.0986557
0.0890216
0.079136
0.0690078
0.0586468
0.0480644
0.0372726
0.0262846
0.0151144
0.00377677
-0.00771279
-0.0193383
-0.0310834
-0.0429313
-0.0548653
-0.0668685
-0.0789242
-0.091016
-0.103128
-0.115244
-0.127349
-0.139429
-0.151471
-0.163461
-0.175387
-0.187239
-0.199007
-0.210681
-0.222253
-0.233716
-0.245063
-0.256291
-0.267394
-0.278368
-0.289212
-0.299924
-0.310502
-0.320947
-0.331258
-0.341437
-0.351484
-0.361403
-0.371194
-0.380861
-0.390406
-0.399831
-0.40914
-0.418336
-0.42742
-0.436396
-0.445267
-0.454033
-0.462697
-0.47126
-0.479723
-0.488087
-0.496352
-0.504516
-0.51258
-0.520541
-0.528398
-0.536147
-0.543786
-0.551311
-0.558717
-0.566
-0.573154
-0.580175
-0.587055
-0.593788
-0.600367
-0.606786
-0.613036
-0.619111
-0.625002
-0.630701
-0.636201
-0.641493
-0.64657
-0.651423
-0.656044
-0.660427
-0.664562
-0.668443
-0.672062
-0.675413
-0.67849