/*--------------------------------*- C++ -*----------------------------------*\
| =========                 |                                                 |
| \\      /  F ield         | OpenFOAM: The Open Source CFD Toolbox           |
|  \\    /   O peration     | Version:  2306                                  |
|   \\  /    A nd           | Website:  www.openfoam.com                      |
|    \\/     M anipulation  |                                                 |
\*---------------------------------------------------------------------------*/
FoamFile
{
    version     2.0;
    format      ascii;
    arch        "LSB;label=32;scalar=64";
    class       surfaceScalarField;
    location    "9";
    object      phi;
}
// * * * * * * * * * * * * * * * * * * * * * * * * * * * * * * * * * * * * * //

dimensions      [0 3 -1 0 0 0 0];

oriented        oriented;

internalField   nonuniform List<scalar> 
65152
(
0.00625051
-5.05054e-07
0.00625202
-1.51711e-06
0.00625455
-2.52982e-06
0.0062581
-3.54431e-06
0.00626266
-4.56225e-06
0.00626824
-5.58473e-06
0.00627486
-6.61245e-06
0.0062825
-7.64614e-06
0.00629119
-8.6866e-06
0.00630092
-9.73463e-06
0.00631171
-1.07909e-05
0.00632357
-1.18561e-05
0.0063365
-1.29306e-05
0.00635052
-1.4015e-05
0.00636563
-1.51095e-05
0.00638184
-1.62145e-05
0.00639917
-1.73301e-05
0.00641763
-1.84562e-05
0.00643722
-1.95927e-05
0.00645796
-2.07394e-05
0.00647985
-2.18958e-05
0.00650292
-2.30614e-05
0.00652715
-2.42354e-05
0.00655257
-2.54169e-05
0.00657917
-2.66048e-05
0.00660697
-2.7798e-05
0.00663596
-2.89948e-05
0.00666616
-3.01938e-05
0.00669755
-3.13931e-05
0.00673014
-3.25907e-05
0.00676393
-3.37844e-05
0.0067989
-3.4972e-05
0.00683505
-3.61509e-05
0.00687237
-3.73184e-05
0.00691084
-3.84718e-05
0.00695045
-3.96082e-05
0.00699117
-4.07246e-05
0.00703299
-4.18178e-05
0.00707588
-4.28847e-05
0.0071198
-4.39222e-05
0.00716472
-4.4927e-05
0.00721062
-4.5896e-05
0.00725745
-4.68261e-05
0.00730516
-4.77142e-05
0.00735372
-4.85574e-05
0.00740307
-4.9353e-05
0.00745317
-5.00984e-05
0.00750396
-5.07913e-05
0.00755539
-5.14294e-05
0.0076074
-5.20109e-05
0.00765994
-5.25342e-05
0.00771293
-5.29981e-05
0.00776633
-5.34014e-05
0.00782008
-5.37437e-05
0.0078741
-5.40245e-05
0.00792835
-5.42439e-05
0.00798275
-5.44021e-05
0.00803725
-5.45e-05
0.00809179
-5.45385e-05
0.00814631
-5.45189e-05
0.00820075
-5.44428e-05
0.00825506
-5.4312e-05
0.00830919
-5.41287e-05
0.00836309
-5.38952e-05
0.0084167
-5.3614e-05
0.00846999
-5.32878e-05
0.00852291
-5.29195e-05
0.00857542
-5.25118e-05
0.00862749
-5.2068e-05
0.00867908
-5.1591e-05
0.00873016
-5.10839e-05
0.00878071
-5.05497e-05
0.0088307
-4.99916e-05
0.00888012
-4.94126e-05
0.00892893
-4.88154e-05
0.00897713
-4.82029e-05
0.00902471
-4.75778e-05
0.00907165
-4.69425e-05
0.00911795
-4.62996e-05
0.0091636
-4.56511e-05
0.0092086
-4.49991e-05
0.00925295
-4.43453e-05
0.00929664
-4.36915e-05
0.00933968
-4.3039e-05
0.00938207
-4.2389e-05
0.00942381
-4.17426e-05
0.00946491
-4.11004e-05
0.00950537
-4.04631e-05
0.00954521
-3.9831e-05
0.00958441
-3.92043e-05
0.00962299
-3.8583e-05
0.00966096
-3.79669e-05
0.00969831
-3.73555e-05
0.00973506
-3.67483e-05
0.00977121
-3.61447e-05
0.00980675
-3.55438e-05
0.0098417
-3.49446e-05
0.00987604
-3.43461e-05
0.00990979
-3.37471e-05
0.00994294
-3.31463e-05
0.00997548
-3.25425e-05
0.0100074
-3.19342e-05
0.0100387
-3.13201e-05
0.0100694
-3.06988e-05
0.0100995
-3.00687e-05
0.0101289
-2.94285e-05
0.0101577
-2.87767e-05
0.0101858
-2.8112e-05
0.0102133
-2.7433e-05
0.01024
-2.67385e-05
0.010266
-2.60272e-05
0.0102913
-2.52979e-05
0.0103159
-2.45497e-05
0.0103396
-2.37814e-05
0.0103626
-2.29922e-05
0.0103848
-2.21814e-05
0.0104062
-2.13481e-05
0.0104267
-2.04919e-05
0.0104463
-1.96122e-05
0.010465
-1.87087e-05
0.0104828
-1.77811e-05
0.0104996
-1.68292e-05
0.0105154
-1.58529e-05
0.0105303
-1.48525e-05
0.0105441
-1.38279e-05
0.0105569
-1.27794e-05
0.0105686
-1.17075e-05
0.0105792
-1.06125e-05
0.0105887
-9.49491e-06
0.0105971
-8.35544e-06
0.0106043
-7.19474e-06
0.0106103
-6.01356e-06
0.0106151
-4.81274e-06
0.0106187
-3.59317e-06
0.010621
-2.35581e-06
0.0106221
-1.10165e-06
0.010622
1.68261e-07
0.0106205
1.45284e-06
0.0106178
2.75094e-06
0.0106137
4.0614e-06
0.0106083
5.38303e-06
0.0106016
6.71461e-06
0.0105936
8.05489e-06
0.0105842
9.40261e-06
0.0105734
1.07565e-05
0.0105613
1.21152e-05
0.0105478
1.34775e-05
0.010533
1.4842e-05
0.0105168
1.62074e-05
0.0104992
1.75722e-05
0.0104802
1.89353e-05
0.01046
2.02951e-05
0.0104383
2.16504e-05
0.0104153
2.29997e-05
0.010391
2.43416e-05
0.0103653
2.56746e-05
0.0103383
2.69975e-05
0.01031
2.83086e-05
0.0102804
2.96066e-05
0.0102495
3.08901e-05
0.0102173
3.21574e-05
0.0101839
3.34071e-05
0.0101493
3.46378e-05
0.0101134
3.58479e-05
0.0100764
3.70358e-05
0.0100382
3.82001e-05
0.00999886
3.93393e-05
0.00995841
4.04517e-05
0.00991687
4.15358e-05
0.00987428
4.25902e-05
0.00983067
4.36133e-05
0.00978607
4.46037e-05
0.00974051
4.55597e-05
0.00969403
4.64801e-05
0.00964666
4.73634e-05
0.00959845
4.82081e-05
0.00954944
4.90131e-05
0.00949966
4.9777e-05
0.00944917
5.04986e-05
0.00939799
5.11768e-05
0.00934618
5.18105e-05
0.00929378
5.23988e-05
0.00924084
5.29407e-05
0.0091874
5.34355e-05
0.00913352
5.38826e-05
0.00907924
5.42812e-05
0.00902461
5.46311e-05
0.00896968
5.49318e-05
0.00891449
5.51831e-05
0.00885911
5.5385e-05
0.00880357
5.55375e-05
0.00874793
5.56407e-05
0.00869224
5.56951e-05
0.00863653
5.57009e-05
0.00858088
5.56588e-05
0.00852531
5.55695e-05
0.00846987
5.54338e-05
0.00841462
5.52526e-05
0.00835959
5.50269e-05
0.00830483
5.47581e-05
0.00825039
5.44473e-05
0.00819629
5.40959e-05
0.00814259
5.37053e-05
0.00808931
5.32772e-05
0.0080365
5.28131e-05
0.00798418
5.23148e-05
0.0079324
5.1784e-05
0.00788117
5.12226e-05
0.00783054
5.06323e-05
0.00778053
5.0015e-05
0.00773115
4.93728e-05
0.00768245
4.87075e-05
0.00763443
4.8021e-05
0.00758711
4.73154e-05
0.00754052
4.65925e-05
0.00749466
4.58544e-05
0.00744956
4.51028e-05
0.00740522
4.43396e-05
0.00736165
4.35669e-05
0.00731887
4.27862e-05
0.00727687
4.19995e-05
0.00723566
4.12084e-05
0.00719525
4.04146e-05
0.00715563
3.96197e-05
0.0071168
3.88252e-05
0.00707877
3.80328e-05
0.00704152
3.72438e-05
0.00700506
3.64595e-05
0.00696938
3.56813e-05
0.00693447
3.49104e-05
0.00690032
3.4148e-05
0.00686693
3.33951e-05
0.00683428
3.26528e-05
0.00680235
3.19221e-05
0.00677115
3.12038e-05
0.00674065
3.04988e-05
0.00671084
2.98078e-05
0.00668171
2.91316e-05
0.00665324
2.84707e-05
0.00662542
2.78257e-05
0.00659822
2.71971e-05
0.00657163
2.65854e-05
0.00654564
2.5991e-05
0.00652023
2.54142e-05
0.00649537
2.48552e-05
0.00647106
2.43143e-05
0.00644727
2.37916e-05
0.00642398
2.32875e-05
0.00640118
2.28014e-05
0.00637884
2.23345e-05
0.00635696
2.18843e-05
0.0063355
2.14552e-05
0.00631447
2.10384e-05
0.00629382
2.06422e-05
0.00627355
2.0271e-05
1.98336e-05
0.00625051
-1.01061e-06
0.00625202
-3.03238e-06
0.00625455
-5.05675e-06
0.00625809
-7.08567e-06
0.00626265
-9.12119e-06
0.00626823
-1.11654e-05
0.00627484
-1.322e-05
0.00628248
-1.52867e-05
0.00629116
-1.73671e-05
0.00630089
-1.94627e-05
0.00631167
-2.15748e-05
0.00632352
-2.37047e-05
0.00633644
-2.58535e-05
0.00635045
-2.80221e-05
0.00636555
-3.02111e-05
0.00638176
-3.24212e-05
0.00639908
-3.46524e-05
0.00641753
-3.69049e-05
0.00643711
-3.91784e-05
0.00645785
-4.14724e-05
0.00647974
-4.3786e-05
0.00650279
-4.6118e-05
0.00652702
-4.84671e-05
0.00655244
-5.08314e-05
0.00657904
-5.32088e-05
0.00660684
-5.55967e-05
0.00663584
-5.79922e-05
0.00666604
-6.03922e-05
0.00669744
-6.27929e-05
0.00673004
-6.51905e-05
0.00676383
-6.75805e-05
0.00679882
-6.99583e-05
0.00683499
-7.23188e-05
0.00687233
-7.46569e-05
0.00691082
-7.69668e-05
0.00695046
-7.92428e-05
0.00699121
-8.14787e-05
0.00703306
-8.36685e-05
0.00707598
-8.58057e-05
0.00711994
-8.7884e-05
0.00716491
-8.98969e-05
0.00721086
-9.18381e-05
0.00725773
-9.37014e-05
0.0073055
-9.54806e-05
0.00735411
-9.717e-05
0.00740352
-9.87639e-05
0.00745368
-0.000100257
0.00750453
-0.000101645
0.00755603
-0.000102923
0.0076081
-0.000104088
0.00766071
-0.000105136
0.00771377
-0.000106065
0.00776724
-0.000106872
0.00782106
-0.000107557
0.00787515
-0.000108119
0.00792946
-0.000108557
0.00798394
-0.000108873
0.0080385
-0.000109068
0.00809311
-0.000109144
0.00814769
-0.000109103
0.0082022
-0.000108949
0.00825657
-0.000108685
0.00831076
-0.000108316
0.00836471
-0.000107847
0.00841838
-0.000107281
0.00847172
-0.000106626
0.00852468
-0.000105886
0.00857724
-0.000105068
0.00862935
-0.000104177
0.00868098
-0.00010322
0.0087321
-0.000102203
0.00878268
-0.000101131
0.0088327
-0.000100012
0.00888214
-9.88511e-05
0.00893098
-9.76538e-05
0.0089792
-9.64261e-05
0.0090268
-9.51732e-05
0.00907375
-9.39003e-05
0.00912007
-9.26121e-05
0.00916573
-9.1313e-05
0.00921074
-9.0007e-05
0.00925509
-8.86978e-05
0.00929879
-8.73886e-05
0.00934183
-8.60823e-05
0.00938422
-8.47812e-05
0.00942597
-8.34874e-05
0.00946707
-8.22024e-05
0.00950753
-8.09273e-05
0.00954736
-7.96629e-05
0.00958657
-7.84094e-05
0.00962515
-7.71669e-05
0.00966312
-7.59349e-05
0.00970048
-7.47125e-05
0.00973723
-7.34988e-05
0.00977338
-7.22923e-05
0.00980892
-7.10913e-05
0.00984387
-6.98939e-05
0.00987822
-6.8698e-05
0.00991198
-6.75011e-05
0.00994513
-6.63007e-05
0.00997768
-6.50943e-05
0.0100096
-6.38791e-05
0.010041
-6.26522e-05
0.0100717
-6.14107e-05
0.0101018
-6.01519e-05
0.0101312
-5.88728e-05
0.01016
-5.75705e-05
0.0101881
-5.62423e-05
0.0102156
-5.48855e-05
0.0102423
-5.34976e-05
0.0102684
-5.2076e-05
0.0102937
-5.06184e-05
0.0103183
-4.91227e-05
0.0103421
-4.75869e-05
0.0103651
-4.60093e-05
0.0103873
-4.43881e-05
0.0104087
-4.27221e-05
0.0104292
-4.10099e-05
0.0104488
-3.92508e-05
0.0104676
-3.74438e-05
0.0104854
-3.55885e-05
0.0105022
-3.36846e-05
0.0105181
-3.1732e-05
0.010533
-2.97307e-05
0.0105468
-2.7681e-05
0.0105597
-2.55836e-05
0.0105714
-2.34391e-05
0.010582
-2.12483e-05
0.0105915
-1.90124e-05
0.0105999
-1.67326e-05
0.0106071
-1.44102e-05
0.0106132
-1.20468e-05
0.010618
-9.64403e-06
0.0106216
-7.20373e-06
0.010624
-4.72777e-06
0.0106251
-2.21815e-06
0.0106249
3.22998e-07
0.0106235
2.8935e-06
0.0106208
5.4911e-06
0.0106167
8.11346e-06
0.0106113
1.07582e-05
0.0106046
1.34228e-05
0.0105966
1.61049e-05
0.0105872
1.88019e-05
0.0105764
2.15112e-05
0.0105643
2.42302e-05
0.0105508
2.69563e-05
0.010536
2.96869e-05
0.0105198
3.24192e-05
0.0105022
3.51506e-05
0.0104832
3.78784e-05
0.0104629
4.05997e-05
0.0104413
4.33119e-05
0.0104183
4.60121e-05
0.0103939
4.86975e-05
0.0103682
5.13653e-05
0.0103412
5.40127e-05
0.0103129
5.66367e-05
0.0102832
5.92345e-05
0.0102523
6.1803e-05
0.0102202
6.43394e-05
0.0101867
6.68406e-05
0.0101521
6.93037e-05
0.0101162
7.17256e-05
0.0100791
7.41033e-05
0.0100409
7.64337e-05
0.0100015
7.87137e-05
0.00996101
8.09402e-05
0.00991944
8.31103e-05
0.00987681
8.52208e-05
0.00983315
8.72687e-05
0.00978851
8.9251e-05
0.0097429
9.11647e-05
0.00969637
9.30071e-05
0.00964896
9.47751e-05
0.0096007
9.64661e-05
0.00955164
9.80775e-05
0.00950181
9.96066e-05
0.00945126
0.000101051
0.00940003
0.000102409
0.00934816
0.000103677
0.0092957
0.000104855
0.0092427
0.000105939
0.00918921
0.00010693
0.00913527
0.000107825
0.00908093
0.000108622
0.00902624
0.000109323
0.00897124
0.000109924
0.008916
0.000110427
0.00886055
0.000110831
0.00880496
0.000111136
0.00874925
0.000111342
0.0086935
0.00011145
0.00863774
0.000111461
0.00858202
0.000111376
0.00852639
0.000111197
0.0084709
0.000110924
0.0084156
0.000110561
0.00836051
0.000110108
0.0083057
0.000109569
0.0082512
0.000108946
0.00819706
0.000108242
0.0081433
0.000107459
0.00808998
0.000106601
0.00803712
0.000105671
0.00798476
0.000104673
0.00793294
0.000103609
0.00788168
0.000102485
0.00783101
0.000101302
0.00778095
0.000100066
0.00773155
9.8779e-05
0.00768281
9.74463e-05
0.00763476
9.60713e-05
0.00758742
9.4658e-05
0.0075408
9.32102e-05
0.00749492
9.17317e-05
0.0074498
9.02265e-05
0.00740544
8.86983e-05
0.00736186
8.71508e-05
0.00731905
8.55875e-05
0.00727704
8.40122e-05
0.00723582
8.24281e-05
0.0071954
8.08388e-05
0.00715577
7.92473e-05
0.00711694
7.76568e-05
0.0070789
7.60703e-05
0.00704165
7.44907e-05
0.00700519
7.29207e-05
0.00696951
7.13629e-05
0.0069346
6.98198e-05
0.00690046
6.82937e-05
0.00686706
6.67868e-05
0.00683442
6.53011e-05
0.0068025
6.38386e-05
0.0067713
6.24011e-05
0.00674081
6.09902e-05
0.00671101
5.96074e-05
0.00668189
5.82541e-05
0.00665343
5.69316e-05
0.00662561
5.5641e-05
0.00659843
5.43833e-05
0.00657185
5.31594e-05
0.00654587
5.197e-05
0.00652047
5.0816e-05
0.00649563
4.96977e-05
0.00647133
4.86156e-05
0.00644755
4.75701e-05
0.00642428
4.65614e-05
0.00640149
4.55896e-05
0.00637917
4.46546e-05
0.00635729
4.37572e-05
0.00633586
4.28931e-05
0.00631482
4.20767e-05
0.0062942
4.12579e-05
0.00627387
4.06018e-05
3.95904e-05
0.0062505
-1.51483e-06
0.00625202
-4.54534e-06
0.00625454
-7.5798e-06
0.00625808
-1.06214e-05
0.00626263
-1.36729e-05
0.0062682
-1.67375e-05
0.0062748
-1.98177e-05
0.00628243
-2.29161e-05
0.00629109
-2.60352e-05
0.00630081
-2.91773e-05
0.00631158
-3.23443e-05
0.00632341
-3.55383e-05
0.00633632
-3.87608e-05
0.00635031
-4.20133e-05
0.0063654
-4.52967e-05
0.00638159
-4.86119e-05
0.00639889
-5.19592e-05
0.00641733
-5.53387e-05
0.0064369
-5.87501e-05
0.00645762
-6.21925e-05
0.0064795
-6.56648e-05
0.00650255
-6.91652e-05
0.00652677
-7.26916e-05
0.00655218
-7.62412e-05
0.00657878
-7.98109e-05
0.00660658
-8.33968e-05
0.00663558
-8.69947e-05
0.00666579
-9.05996e-05
0.00669721
-9.42061e-05
0.00672982
-9.78083e-05
0.00676364
-0.0001014
0.00679866
-0.000104973
0.00683486
-0.000108521
0.00687224
-0.000112036
0.00691078
-0.000115508
0.00695047
-0.00011893
0.00699128
-0.000122292
0.0070332
-0.000125585
0.00707619
-0.000128799
0.00712023
-0.000131925
0.00716529
-0.000134953
0.00721132
-0.000137873
0.0072583
-0.000140676
0.00730617
-0.000143352
0.00735489
-0.000145893
0.00740442
-0.000148291
0.0074547
-0.000150537
0.00750568
-0.000152625
0.0075573
-0.000154547
0.00760951
-0.000156298
0.00766225
-0.000157874
0.00771545
-0.000159269
0.00776906
-0.000160482
0.00782302
-0.00016151
0.00787725
-0.000162353
0.0079317
-0.00016301
0.00798631
-0.000163482
0.00804102
-0.000163772
0.00809575
-0.000163882
0.00815047
-0.000163817
0.0082051
-0.000163581
0.0082596
-0.00016318
0.0083139
-0.000162621
0.00836796
-0.00016191
0.00842174
-0.000161056
0.00847518
-0.000160066
0.00852824
-0.000158949
0.00858089
-0.000157713
0.00863308
-0.000156369
0.00868478
-0.000154926
0.00873597
-0.000153392
0.00878662
-0.000151777
0.0088367
-0.00015009
0.00888619
-0.000148341
0.00893507
-0.000146538
0.00898333
-0.00014469
0.00903096
-0.000142804
0.00907795
-0.000140888
0.00912429
-0.00013895
0.00916997
-0.000136996
0.009215
-0.000135032
0.00925937
-0.000133064
0.00930307
-0.000131097
0.00934612
-0.000129134
0.00938852
-0.00012718
0.00943027
-0.000125237
0.00947138
-0.000123307
0.00951184
-0.000121394
0.00955168
-0.000119496
0.00959088
-0.000117616
0.00962947
-0.000115752
0.00966744
-0.000113905
0.0097048
-0.000112073
0.00974155
-0.000110253
0.00977771
-0.000108446
0.00981326
-0.000106646
0.00984822
-0.000104853
0.00988258
-0.000103061
0.00991635
-0.000101269
0.00994952
-9.94713e-05
0.00998209
-9.76648e-05
0.0100141
-9.58452e-05
0.0100454
-9.40081e-05
0.0100762
-9.21492e-05
0.0101063
-9.02643e-05
0.0101357
-8.83488e-05
0.0101646
-8.63985e-05
0.0101927
-8.44093e-05
0.0102202
-8.23771e-05
0.010247
-8.02979e-05
0.0102731
-7.8168e-05
0.0102985
-7.5984e-05
0.0103231
-7.37426e-05
0.010347
-7.14408e-05
0.01037
-6.9076e-05
0.0103923
-6.66456e-05
0.0104137
-6.41476e-05
0.0104343
-6.15802e-05
0.010454
-5.8942e-05
0.0104728
-5.62318e-05
0.0104906
-5.34489e-05
0.0105075
-5.05927e-05
0.0105235
-4.76631e-05
0.0105384
-4.46603e-05
0.0105523
-4.15848e-05
0.0105651
-3.84373e-05
0.0105769
-3.52189e-05
0.0105876
-3.19309e-05
0.0105972
-2.8575e-05
0.0106056
-2.5153e-05
0.0106128
-2.1667e-05
0.0106189
-1.81192e-05
0.0106238
-1.45123e-05
0.0106274
-1.0849e-05
0.0106298
-7.13194e-06
0.010631
-3.36431e-06
0.0106309
4.50737e-07
0.0106294
4.30989e-06
0.0106267
8.2098e-06
0.0106227
1.21469e-05
0.0106173
1.61177e-05
0.0106106
2.01184e-05
0.0106026
2.41453e-05
0.0105932
2.81946e-05
0.0105824
3.22624e-05
0.0105703
3.63448e-05
0.0105569
4.0438e-05
0.010542
4.45378e-05
0.0105258
4.86403e-05
0.0105082
5.27415e-05
0.0104892
5.68371e-05
0.0104689
6.09232e-05
0.0104472
6.49956e-05
0.0104242
6.905e-05
0.0103998
7.30824e-05
0.0103741
7.70883e-05
0.010347
8.10635e-05
0.0103187
8.50038e-05
0.010289
8.89047e-05
0.010258
9.27618e-05
0.0102258
9.65707e-05
0.0101923
0.000100327
0.0101576
0.000104026
0.0101217
0.000107663
0.0100845
0.000111234
0.0100462
0.000114734
0.0100068
0.000118158
0.00996621
0.000121502
0.00992456
0.000124762
0.00988185
0.000127932
0.00983811
0.000131008
0.00979338
0.000133986
0.00974768
0.00013686
0.00970106
0.000139628
0.00965355
0.000142284
0.0096052
0.000144824
0.00955603
0.000147244
0.00950609
0.000149541
0.00945543
0.000151711
0.00940409
0.000153751
0.00935211
0.000155656
0.00929954
0.000157425
0.00924643
0.000159054
0.00919282
0.000160542
0.00913876
0.000161886
0.00908429
0.000163084
0.00902948
0.000164135
0.00897437
0.000165038
0.008919
0.000165792
0.00886344
0.000166398
0.00880772
0.000166855
0.00875189
0.000167164
0.00869602
0.000167325
0.00864014
0.00016734
0.00858431
0.000167211
0.00852856
0.00016694
0.00847296
0.000166529
0.00841754
0.000165981
0.00836235
0.000165299
0.00830743
0.000164487
0.00825283
0.000163549
0.00819858
0.000162489
0.00814473
0.00016131
0.00809131
0.000160019
0.00803836
0.00015862
0.00798592
0.000157118
0.00793401
0.000155518
0.00788267
0.000153825
0.00783193
0.000152046
0.0077818
0.000150187
0.00773233
0.000148252
0.00768353
0.000146248
0.00763542
0.00014418
0.00758802
0.000142055
0.00754136
0.000139878
0.00749543
0.000137655
0.00745027
0.000135392
0.00740587
0.000133095
0.00736225
0.000130769
0.00731942
0.000128419
0.00727738
0.000126051
0.00723614
0.000123671
0.0071957
0.000121282
0.00715605
0.000118891
0.00711721
0.000116501
0.00707916
0.000114117
0.00704191
0.000111744
0.00700545
0.000109385
0.00696976
0.000107045
0.00693486
0.000104727
0.00690072
0.000102435
0.00686733
0.000100171
0.00683469
9.79402e-05
0.00680279
9.57439e-05
0.0067716
9.35852e-05
0.00674113
9.14665e-05
0.00671134
8.93902e-05
0.00668224
8.73584e-05
0.0066538
8.53729e-05
0.006626
8.34353e-05
0.00659884
8.15474e-05
0.00657229
7.97102e-05
0.00654633
7.79251e-05
0.00652096
7.6193e-05
0.00649614
7.45147e-05
0.00647186
7.28909e-05
0.00644811
7.13221e-05
0.00642486
6.98085e-05
0.0064021
6.83507e-05
0.00637981
6.69477e-05
0.00635797
6.56026e-05
0.00633655
6.43053e-05
0.00631554
6.30857e-05
0.00629495
6.18521e-05
0.00627467
6.08793e-05
5.93456e-05
0.0062505
-2.01782e-06
0.00625201
-6.05466e-06
0.00625453
-1.00968e-05
0.00625806
-1.41485e-05
0.0062626
-1.82138e-05
0.00626816
-2.22965e-05
0.00627474
-2.64002e-05
0.00628235
-3.05285e-05
0.006291
-3.46845e-05
0.00630069
-3.88715e-05
0.00631144
-4.30922e-05
0.00632325
-4.73491e-05
0.00633614
-5.16445e-05
0.0063501
-5.59802e-05
0.00636517
-6.03578e-05
0.00638133
-6.47782e-05
0.00639861
-6.92421e-05
0.00641703
-7.37496e-05
0.00643658
-7.83002e-05
0.00645728
-8.28929e-05
0.00647914
-8.75261e-05
0.00650217
-9.21977e-05
0.00652638
-9.69046e-05
0.00655178
-0.000101643
0.00657838
-0.00010641
0.00660619
-0.000111199
0.00663519
-0.000116004
0.00666542
-0.00012082
0.00669685
-0.000125639
0.00672949
-0.000130453
0.00676335
-0.000135253
0.0067984
-0.00014003
0.00683466
-0.000144774
0.00687209
-0.000149474
0.00691071
-0.000154119
0.00695047
-0.000158696
0.00699137
-0.000163194
0.00703339
-0.0001676
0.00707649
-0.000171902
0.00712065
-0.000176085
0.00716584
-0.000180138
0.00721201
-0.000184046
0.00725913
-0.000187798
0.00730716
-0.000191381
0.00735605
-0.000194783
0.00740575
-0.000197993
0.00745622
-0.000200999
0.00750738
-0.000203793
0.0075592
-0.000206365
0.00761161
-0.000208708
0.00766455
-0.000210815
0.00771797
-0.000212681
0.00777179
-0.000214302
0.00782595
-0.000215675
0.0078804
-0.000216798
0.00793506
-0.000217672
0.00798987
-0.000218299
0.00804478
-0.000218681
0.00809972
-0.000218822
0.00815463
-0.000218727
0.00820945
-0.000218404
0.00826413
-0.000217859
0.00831862
-0.000217103
0.00837285
-0.000216143
0.00842678
-0.000214991
0.00848037
-0.000213657
0.00853358
-0.000212153
0.00858636
-0.000210492
0.00863867
-0.000208685
0.00869049
-0.000206746
0.00874179
-0.000204686
0.00879253
-0.000202518
0.00884269
-0.000200255
0.00889226
-0.000197908
0.00894121
-0.000195491
0.00898954
-0.000193013
0.00903722
-0.000190486
0.00908425
-0.000187921
0.00913063
-0.000185326
0.00917634
-0.00018271
0.00922139
-0.000180083
0.00926578
-0.000177451
0.0093095
-0.00017482
0.00935257
-0.000172197
0.00939497
-0.000169586
0.00943673
-0.000166992
0.00947784
-0.000164416
0.0095183
-0.000161862
0.00955814
-0.000159331
0.00959735
-0.000156824
0.00963593
-0.000154339
0.00967391
-0.000151878
0.00971127
-0.000149436
0.00974803
-0.000147014
0.00978419
-0.000144607
0.00981976
-0.000142212
0.00985473
-0.000139825
0.00988911
-0.000137441
0.0099229
-0.000135057
0.00995609
-0.000132666
0.00998869
-0.000130263
0.0100207
-0.000127843
0.0100521
-0.0001254
0.0100829
-0.000122927
0.010113
-0.00012042
0.0101425
-0.000117872
0.0101714
-0.000115278
0.0101996
-0.000112631
0.0102272
-0.000109927
0.0102541
-0.00010716
0.0102802
-0.000104325
0.0103056
-0.000101417
0.0103303
-9.84329e-05
0.0103543
-9.53674e-05
0.0103774
-9.22173e-05
0.0103997
-8.89793e-05
0.0104212
-8.56507e-05
0.0104419
-8.22291e-05
0.0104617
-7.87125e-05
0.0104805
-7.50994e-05
0.0104985
-7.13887e-05
0.0105155
-6.75799e-05
0.0105315
-6.36727e-05
0.0105465
-5.96674e-05
0.0105604
-5.55646e-05
0.0105734
-5.13654e-05
0.0105852
-4.70712e-05
0.010596
-4.26838e-05
0.0106056
-3.82054e-05
0.0106141
-3.36385e-05
0.0106214
-2.89859e-05
0.0106275
-2.42507e-05
0.0106325
-1.94363e-05
0.0106362
-1.45463e-05
0.0106386
-9.58453e-06
0.0106398
-4.55503e-06
0.0106397
5.37905e-07
0.0106383
5.68983e-06
0.0106357
1.08963e-05
0.0106317
1.61525e-05
0.0106263
2.14536e-05
0.0106196
2.67949e-05
0.0106116
3.21711e-05
0.0106022
3.75773e-05
0.0105915
4.30083e-05
0.0105794
4.84589e-05
0.0105659
5.39238e-05
0.010551
5.93977e-05
0.0105348
6.48752e-05
0.0105172
7.03509e-05
0.0104982
7.58194e-05
0.0104778
8.12751e-05
0.0104561
8.67126e-05
0.0104331
9.21263e-05
0.0104086
9.75104e-05
0.0103829
0.00010286
0.0103557
0.000108168
0.0103273
0.000113429
0.0102976
0.000118638
0.0102666
0.000123789
0.0102343
0.000128876
0.0102007
0.000133892
0.0101659
0.000138832
0.0101299
0.00014369
0.0100926
0.00014846
0.0100542
0.000153134
0.0100147
0.000157708
0.00997401
0.000162175
0.00993224
0.000166529
0.00988941
0.000170764
0.00984555
0.000174873
0.00980068
0.000178851
0.00975485
0.000182692
0.00970809
0.000186389
0.00966043
0.000189937
0.00961193
0.000193331
0.00956261
0.000196565
0.00951251
0.000199634
0.00946169
0.000202533
0.00941018
0.000205258
0.00935804
0.000207804
0.00930529
0.000210167
0.00925201
0.000212343
0.00919822
0.00021433
0.00914398
0.000216125
0.00908934
0.000217725
0.00903434
0.000219128
0.00897905
0.000220334
0.0089235
0.000221341
0.00886775
0.000222148
0.00881185
0.000222756
0.00875584
0.000223167
0.00869979
0.00022338
0.00864373
0.000223397
0.00858772
0.000223222
0.0085318
0.000222856
0.00847603
0.000222304
0.00842044
0.000221568
0.00836509
0.000220653
0.00831001
0.000219565
0.00825525
0.000218307
0.00820086
0.000216886
0.00814686
0.000215308
0.0080933
0.000213578
0.00804022
0.000211704
0.00798764
0.000209692
0.00793561
0.00020755
0.00788415
0.000205284
0.00783329
0.000202903
0.00778307
0.000200414
0.00773349
0.000197824
0.0076846
0.000195142
0.0076364
0.000192376
0.00758893
0.000189532
0.00754218
0.00018662
0.00749619
0.000183647
0.00745096
0.00018062
0.00740651
0.000177548
0.00736284
0.000174437
0.00731996
0.000171295
0.00727789
0.000168129
0.00723661
0.000164947
0.00719614
0.000161754
0.00715647
0.000158557
0.00711761
0.000155363
0.00707955
0.000152177
0.00704229
0.000149006
0.00700582
0.000145854
0.00697014
0.000142728
0.00693523
0.000139631
0.0069011
0.000136569
0.00686772
0.000133545
0.0068351
0.000130565
0.00680321
0.000127632
0.00677205
0.000124749
0.00674159
0.00012192
0.00671184
0.000119148
0.00668276
0.000116435
0.00665435
0.000113784
0.00662658
0.000111198
0.00659945
0.000108678
0.00657294
0.000106226
0.00654702
0.000103844
0.00652168
0.000101533
0.0064969
9.92933e-05
0.00647267
9.71269e-05
0.00644895
9.50341e-05
0.00642575
9.30151e-05
0.00640303
9.10709e-05
0.00638077
8.91998e-05
0.00635897
8.74067e-05
0.0063376
8.56765e-05
0.00631663
8.40526e-05
0.00629608
8.24056e-05
0.00627584
8.11133e-05
7.90646e-05
0.0062505
-2.51917e-06
0.00625201
-7.55903e-06
0.00625451
-1.26056e-05
0.00625803
-1.76643e-05
0.00626256
-2.27401e-05
0.0062681
-2.7838e-05
0.00627466
-3.29624e-05
0.00628225
-3.81178e-05
0.00629087
-4.33085e-05
0.00630054
-4.85382e-05
0.00631126
-5.38106e-05
0.00632304
-5.91289e-05
0.00633589
-6.44961e-05
0.00634982
-6.99144e-05
0.00636485
-7.53857e-05
0.00638099
-8.09116e-05
0.00639824
-8.64927e-05
0.00641662
-9.21293e-05
0.00643614
-9.78208e-05
0.00645681
-0.000103566
0.00647865
-0.000109363
0.00650166
-0.00011521
0.00652586
-0.000121101
0.00655125
-0.000127034
0.00657784
-0.000133003
0.00660564
-0.000139001
0.00663466
-0.000145022
0.0066649
-0.000151057
0.00669636
-0.000157097
0.00672903
-0.000163132
0.00676293
-0.000169152
0.00679805
-0.000175143
0.00683437
-0.000181094
0.00687188
-0.000186992
0.00691059
-0.000192821
0.00695046
-0.000198567
0.00699148
-0.000204214
0.00703362
-0.000209747
0.00707687
-0.000215149
0.00712119
-0.000220404
0.00716655
-0.000225495
0.00721291
-0.000230406
0.00726023
-0.00023512
0.00730847
-0.000239621
0.00735758
-0.000243896
0.00740752
-0.000247928
0.00745822
-0.000251705
0.00750964
-0.000255215
0.00756172
-0.000258445
0.0076144
-0.000261387
0.00766762
-0.000264031
0.00772131
-0.000266371
0.00777541
-0.000268402
0.00782985
-0.000270121
0.00788458
-0.000271525
0.00793953
-0.000272616
0.00799462
-0.000273394
0.0080498
-0.000273864
0.00810501
-0.00027403
0.00816018
-0.000273899
0.00821526
-0.000273481
0.00827019
-0.000272784
0.0083249
-0.00027182
0.00837936
-0.000270601
0.00843351
-0.00026914
0.00848731
-0.000267451
0.0085407
-0.000265549
0.00859366
-0.000263449
0.00864614
-0.000261167
0.00869811
-0.000258718
0.00874954
-0.000256119
0.00880041
-0.000253385
0.00885069
-0.000250533
0.00890036
-0.000247578
0.0089494
-0.000244534
0.00899781
-0.000241416
0.00904556
-0.000238237
0.00909265
-0.000235011
0.00913907
-0.00023175
0.00918483
-0.000228465
0.00922991
-0.000225167
0.00927432
-0.000221863
0.00931807
-0.000218564
0.00936114
-0.000215275
0.00940356
-0.000212003
0.00944532
-0.000208753
0.00948643
-0.000205529
0.00952691
-0.000202333
0.00956674
-0.000199167
0.00960595
-0.000196032
0.00964454
-0.000192928
0.00968251
-0.000189853
0.00971988
-0.000186805
0.00975665
-0.000183781
0.00979282
-0.000180778
0.0098284
-0.00017779
0.00986339
-0.000174814
0.00989779
-0.000171843
0.0099316
-0.000168871
0.00996483
-0.000165891
0.00999746
-0.000162898
0.0100295
-0.000159882
0.0100609
-0.000156838
0.0100918
-0.000153758
0.010122
-0.000150634
0.0101516
-0.000147459
0.0101805
-0.000144226
0.0102088
-0.000140927
0.0102364
-0.000137556
0.0102634
-0.000134105
0.0102896
-0.000130569
0.0103152
-0.000126942
0.0103399
-0.000123217
0.010364
-0.000119391
0.0103872
-0.000115458
0.0104096
-0.000111415
0.0104313
-0.000107258
0.010452
-0.000102983
0.0104719
-9.8589e-05
0.0104909
-9.40734e-05
0.0105089
-8.9435e-05
0.010526
-8.4673e-05
0.0105421
-7.97872e-05
0.0105572
-7.4778e-05
0.0105713
-6.96462e-05
0.0105843
-6.4393e-05
0.0105963
-5.90204e-05
0.0106071
-5.35307e-05
0.0106168
-4.79265e-05
0.0106254
-4.22111e-05
0.0106328
-3.6388e-05
0.010639
-3.04611e-05
0.010644
-2.44347e-05
0.0106478
-1.83133e-05
0.0106503
-1.21019e-05
0.0106516
-5.80536e-06
0.0106515
5.70803e-07
0.0106502
7.02098e-06
0.0106476
1.35396e-05
0.0106436
2.01206e-05
0.0106383
2.67581e-05
0.0106316
3.34458e-05
0.0106236
4.01775e-05
0.0106143
4.69468e-05
0.0106035
5.37471e-05
0.0105914
6.05721e-05
0.0105779
6.74151e-05
0.010563
7.42693e-05
0.0105468
8.11282e-05
0.0105292
8.79849e-05
0.0105101
9.48327e-05
0.0104898
0.000101665
0.010468
0.000108474
0.0104449
0.000115253
0.0104204
0.000121996
0.0103945
0.000128695
0.0103674
0.000135343
0.0103389
0.000141933
0.010309
0.000148457
0.0102779
0.000154908
0.0102455
0.000161279
0.0102119
0.000167563
0.0101769
0.000173751
0.0101408
0.000179836
0.0101034
0.000185811
0.0100649
0.000191668
0.0100252
0.000197398
0.00998439
0.000202995
0.00994247
0.000208451
0.00989948
0.000213757
0.00985545
0.000218906
0.00981041
0.000223891
0.00976439
0.000228704
0.00971744
0.000233338
0.0096696
0.000237785
0.00962089
0.000242038
0.00957136
0.000246091
0.00952106
0.000249938
0.00947002
0.000253571
0.00941829
0.000256986
0.00936592
0.000260176
0.00931295
0.000263138
0.00925943
0.000265865
0.00920541
0.000268355
0.00915093
0.000270603
0.00909605
0.000272607
0.00904081
0.000274364
0.00898527
0.000275873
0.00892948
0.000277132
0.00887348
0.000278142
0.00881734
0.000278901
0.0087611
0.000279412
0.0087048
0.000279675
0.0086485
0.000279693
0.00859226
0.000279468
0.00853611
0.000279005
0.00848011
0.000278307
0.0084243
0.000277379
0.00836872
0.000276226
0.00831343
0.000274855
0.00825847
0.000273273
0.00820387
0.000271485
0.00814968
0.000269499
0.00809593
0.000267325
0.00804267
0.000264968
0.00798992
0.00026244
0.00793772
0.000259747
0.0078861
0.000256901
0.0078351
0.000253909
0.00778473
0.000250782
0.00773502
0.00024753
0.00768601
0.000244162
0.00763769
0.000240688
0.00759011
0.000237118
0.00754327
0.000233462
0.00749718
0.00022973
0.00745187
0.000225931
0.00740734
0.000222076
0.00736361
0.000218173
0.00732067
0.000214231
0.00727854
0.00021026
0.00723722
0.000206268
0.00719671
0.000202263
0.00715701
0.000198254
0.00711813
0.000194249
0.00708005
0.000190255
0.00704278
0.00018628
0.0070063
0.000182329
0.00697062
0.00017841
0.00693572
0.00017453
0.0069016
0.000170692
0.00686824
0.000166905
0.00683563
0.000163171
0.00680377
0.000159497
0.00677263
0.000155886
0.00674221
0.000152343
0.00671248
0.000148871
0.00668344
0.000145475
0.00665507