/*--------------------------------*- C++ -*----------------------------------*\
| =========                 |                                                 |
| \\      /  F ield         | OpenFOAM: The Open Source CFD Toolbox           |
|  \\    /   O peration     | Version:  2306                                  |
|   \\  /    A nd           | Website:  www.openfoam.com                      |
|    \\/     M anipulation  |                                                 |
\*---------------------------------------------------------------------------*/
FoamFile
{
    version     2.0;
    format      ascii;
    arch        "LSB;label=32;scalar=64";
    class       volScalarField;
    location    "9";
    object      T;
}
// * * * * * * * * * * * * * * * * * * * * * * * * * * * * * * * * * * * * * //

dimensions      [0 0 0 1 0 0 0];

internalField   nonuniform List<scalar> 
32768
(
300
300
300
300
300
300
300
300
300
300
300
300
300
300
300
300
300
300
300
300
300
300
300
300
300
300
300
300
300
300
300
300
300
300
300
300
300
300
300
300
300
300
300
300
300
300
300
300
300
300
300
300
300
300
300
300
300
300
300
300
300
300
300
300
300
300
300
300
300
300
300
300
300
300
300
300
300
300
300
300
300
299.999
299.999
299.999
299.999
299.999
299.999
299.999
299.998
299.998
299.998
299.998
299.997
299.997
299.997
299.996
299.996
299.995
299.995
299.994
299.993
299.993
299.992
299.991
299.99
299.989
299.988
299.986
299.985
299.983
299.982
299.98
299.978
299.976
299.974
299.971
299.969
299.966
299.963
299.96
299.956
299.952
299.948
299.944
299.94
299.935
299.93
299.924
299.918
299.912
299.906
299.899
299.892
299.884
299.876
299.867
299.858
299.849
299.839
299.828
299.817
299.806
299.794
299.781
299.768
299.755
299.74
299.725
299.71
299.694
299.677
299.66
299.642
299.624
299.604
299.585
299.564
299.543
299.521
299.499
299.476
299.452
299.428
299.403
299.377
299.351
299.324
299.296
299.268
299.239
299.21
299.18
299.149
299.118
299.086
299.054
299.021
298.988
298.954
298.919
298.884
298.849
298.813
298.777
298.74
298.702
298.665
298.627
298.588
298.55
298.51
298.471
298.431
298.391
298.351
298.31
298.269
298.228
298.186
298.144
298.102
298.06
298.018
297.975
297.932
297.889
297.846
297.803
297.759
297.715
297.671
297.627
297.583
297.538
297.494
297.449
297.404
297.358
297.313
297.267
297.221
297.175
297.128
297.081
297.033
296.985
296.937
296.887
296.837
296.785
296.731
296.673
296.609
296.534
296.437
296.301
296.089
295.731
295.091
293.91
291.686
287.459
279.392
263.978
234.536
178.365
71.3826
-131.983
-517.788
-1248.18
-2628.08
-5229.66
-10124.5
-19315.3
-36538.9
-68745.7
300
300
300
300
300
300
300
300
300
300
300
300
300
300
300
300
300
300
300
300
300
300
300
300
300
300
300
300
300
300
300
300
300
300
300
300
300
300
300
300
300
300
300
300
300
300
300
300
300
300
300
300
300
300
300
300
300
300
300
300
300
300
300
300
300
300
300
300
300
300
300
300
300
300
300
300
300
300
300
300
299.999
299.999
299.999
299.999
299.999
299.999
299.999
299.999
299.998
299.998
299.998
299.997
299.997
299.997
299.996
299.996
299.995
299.995
299.994
299.994
299.993
299.992
299.991
299.99
299.989
299.988
299.987
299.985
299.984
299.982
299.98
299.978
299.976
299.974
299.971
299.969
299.966
299.963
299.96
299.956
299.952
299.949
299.944
299.94
299.935
299.93
299.924
299.918
299.912
299.906
299.899
299.892
299.884
299.876
299.867
299.858
299.849
299.839
299.828
299.817
299.806
299.794
299.781
299.768
299.754
299.74
299.725
299.71
299.694
299.677
299.66
299.642
299.624
299.604
299.585
299.564
299.543
299.522
299.499
299.476
299.453
299.428
299.403
299.378
299.352
299.325
299.298
299.27
299.241
299.212
299.182
299.151
299.12
299.089
299.057
299.024
298.991
298.957
298.923
298.888
298.853
298.818
298.782
298.745
298.708
298.671
298.633
298.595
298.557
298.518
298.479
298.439
298.399
298.359
298.319
298.278
298.237
298.196
298.155
298.113
298.071
298.029
297.987
297.944
297.902
297.859
297.816
297.773
297.729
297.686
297.642
297.598
297.554
297.51
297.465
297.421
297.376
297.331
297.285
297.24
297.194
297.148
297.101
297.054
297.007
296.959
296.91
296.861
296.811
296.759
296.705
296.647
296.584
296.508
296.412
296.276
296.064
295.706
295.067
293.886
291.662
287.437
279.373
263.962
234.526
178.365
71.3991
-131.943
-517.717
-1248.08
-2627.98
-5229.67
-10125
-19317
-36543.8
-68758.2
300
300
300
300
300
300
300
300
300
300
300
300
300
300
300
300
300
300
300
300
300
300
300
300
300
300
300
300
300
300
300
300
300
300
300
300
300
300
300
300
300
300
300
300
300
300
300
300
300
300
300
300
300
300
300
300
300
300
300
300
300
300
300
300
300
300
300
300
300
300
300
300
300
300
300
300
300
300
300
299.999
299.999
299.999
299.999
299.999
299.999
299.999
299.998
299.998
299.998
299.998
299.997
299.997
299.997
299.996
299.996
299.995
299.994
299.994
299.993
299.992
299.991
299.99
299.989
299.988
299.987
299.986
299.984
299.982
299.981
299.979
299.977
299.974
299.972
299.969
299.967
299.964
299.96
299.957
299.953
299.949
299.945
299.94
299.936
299.93
299.925
299.919
299.913
299.906
299.9
299.892
299.885
299.876
299.868
299.859
299.849
299.839
299.829
299.818
299.806
299.794
299.782
299.769
299.755
299.741
299.726
299.71
299.694
299.678
299.661
299.643
299.624
299.605
299.586
299.565
299.544
299.523
299.501
299.478
299.454
299.43
299.405
299.38
299.354
299.328
299.3
299.273
299.244
299.215
299.186
299.156
299.125
299.094
299.062
299.03
298.997
298.964
298.931
298.896
298.862
298.827
298.791
298.755
298.719
298.682
298.645
298.607
298.57
298.531
298.493
298.454
298.415
298.375
298.336
298.296
298.255
298.215
298.174
298.133
298.092
298.051
298.009
297.967
297.925
297.883
297.841
297.798
297.756
297.713
297.67
297.627
297.583
297.54
297.496
297.452
297.408
297.364
297.319
297.275
297.23
297.184
297.139
297.093
297.047
297
296.953
296.906
296.858
296.809
296.759
296.707
296.653
296.596
296.532
296.458
296.362
296.226
296.014
295.657
295.018
293.838
291.616
287.393
279.334
263.931
234.508
178.37
71.4385
-131.853
-517.558
-1247.85
-2627.74
-5229.63
-10125.8
-19320.3
-36553.5
-68783.2
300
300
300
300
300
300
300
300
300
300
300
300
300
300
300
300
300
300
300
300
300
300
300
300
300
300
300
300
300
300
300
300
300
300
300
300
300
300
300
300
300
300
300
300
300
300
300
300
300
300
300
300
300
300
300
300
300
300
300
300
300
300
300
300
300
300
300
300
300
300
300
300
300
300
300
300
300
299.999
299.999
299.999
299.999
299.999
299.999
299.999
299.998
299.998
299.998
299.998
299.997
299.997
299.997
299.996
299.996
299.995
299.994
299.994
299.993
299.992
299.991
299.99
299.989
299.988
299.987
299.985
299.984
299.982
299.98
299.978
299.976
299.974
299.971
299.968
299.965
299.962
299.959
299.955
299.951
299.947
299.943
299.938
299.933
299.928
299.922
299.916
299.909
299.903
299.895
299.888
299.88
299.871
299.862
299.853
299.843
299.832
299.821
299.81
299.798
299.785
299.772
299.759
299.744
299.73
299.714
299.698
299.682
299.664
299.647
299.628
299.609
299.59
299.569
299.548
299.527
299.505
299.482
299.459
299.435
299.41
299.385
299.359
299.333
299.306
299.278
299.25
299.222
299.192
299.163
299.132
299.102
299.07
299.039
299.006
298.974
298.94
298.907
298.873
298.838
298.803
298.768
298.732
298.696
298.66
298.623
298.586
298.549
298.511
298.473
298.435
298.396
298.357
298.318
298.279
298.239
298.199
298.159
298.119
298.079
298.038
297.997
297.956
297.915
297.874
297.833
297.791
297.749
297.707
297.665
297.623
297.58
297.538
297.495
297.452
297.409
297.366
297.322
297.278
297.235
297.19
297.146
297.101
297.056
297.011
296.966
296.92
296.873
296.826
296.778
296.73
296.68
296.629
296.576
296.519
296.456
296.381
296.286
296.151
295.939
295.582
294.944
293.766
291.546
287.328
279.275
263.886
234.483
178.378
71.5003
-131.712
-517.314
-1247.5
-2627.36
-5229.55
-10127
-19325.2
-36567.9
-68820.7
300
300
300
300
300
300
300
300
300
300
300
300
300
300
300
300
300
300
300
300
300
300
300
300
300
300
300
300
300
300
300
300
300
300
300
300
300
300
300
300
300
300
300
300
300
300
300
300
300
300
300
300
300
300
300
300
300
300
300
300
300
300
300
300
300
300
300
300
300
300
300
300
300
300
300
299.999
299.999
299.999
299.999
299.999
299.999
299.999
299.998
299.998
299.998
299.998
299.997
299.997
299.996
299.996
299.995
299.995
299.994
299.993
299.993
299.992
299.991
299.99
299.989
299.987
299.986
299.984
299.983
299.981
299.979
299.977
299.974
299.972
299.969
299.966
299.963
299.96
299.956
299.952
299.948
299.943
299.939
299.933
299.928
299.922
299.916
299.909
299.902
299.895
299.887
299.879
299.87
299.861
299.851
299.841
299.83
299.819
299.807
299.795
299.782
299.768
299.754
299.739
299.724
299.708
299.692
299.675
299.657
299.638
299.62
299.6
299.58
299.559
299.537
299.515
299.492
299.469
299.445
299.421
299.395
299.37
299.343
299.316
299.289
299.261
299.232
299.203
299.174
299.144
299.113
299.082
299.05
299.018
298.986
298.953
298.92
298.886
298.852
298.818
298.783
298.748
298.712
298.676
298.64
298.604
298.567
298.53
298.493
298.455
298.418
298.38
298.342
298.303
298.265
298.226
298.187
298.148
298.109
298.069
298.029
297.99
297.95
297.91
297.87
297.829
297.789
297.748
297.707
297.666
297.625
297.584
297.543
297.501
297.46
297.418
297.376
297.334
297.292
297.249
297.207
297.164
297.121
297.077
297.034
296.99
296.946
296.901
296.856
296.811
296.765
296.719
296.672
296.624
296.575
296.525
296.472
296.416
296.353
296.279
296.184
296.05
295.839
295.483
294.846
293.669
291.453
287.241
279.198
263.824
234.45
178.39
71.5833
-131.524
-516.986
-1247.03
-2626.85
-5229.45
-10128.5
-19331.7
-36587.2
-68870.7
300
300
300
300
300
300
300
300
300
300
300
300
300
300
300
300
300
300
300
300
300
300
300
300
300
300
300
300
300
300
300
300
300
300
300
300
300
300
300
300
300
300
300
300
300
300
300
300
300
300
300
300
300
300
300
300
300
300
300
300
300
300
300
300
300
300
300
300
300
300
300
300
300
299.999
299.999
299.999
299.999
299.999
299.999
299.999
299.998
299.998
299.998
299.998
299.997
299.997
299.996
299.996
299.995
299.995
299.994
299.993
299.992
299.991
299.99
299.989
299.988
299.986
299.985
299.983
299.981
299.979
299.977
299.975
299.972
299.969
299.966
299.963
299.96
299.956
299.952
299.948
299.943
299.938
299.933
299.927
299.921
299.914
299.907
299.9
299.892
299.884
299.875
299.866
299.856
299.846
299.835
299.824
299.812
299.8
299.787
299.773
299.759
299.744
299.728
299.712
299.695
299.678
299.659
299.641
299.621
299.601
299.58
299.559
299.537
299.514
299.491
299.467
299.442
299.417
299.391
299.364
299.337
299.31
299.281
299.253
299.223
299.193
299.163
299.132
299.101
299.069
299.037
299.005
298.971
298.938
298.904
298.87
298.836
298.801
298.766
298.73
298.695
298.659
298.623
298.586
298.55
298.513
298.476
298.439
298.401
298.364
298.326
298.288
298.25
298.212
298.174
298.136
298.097
298.059
298.02
297.981
297.942
297.903
297.864
297.825
297.786
297.747
297.707
297.668
297.628
297.589
297.549
297.509
297.469
297.429
297.388
297.348
297.308
297.267
297.226
297.185
297.144
297.103
297.061
297.019
296.977
296.935
296.893
296.85
296.807
296.763
296.719
296.675
296.63
296.585
296.538
296.491
296.443
296.394
296.342
296.286
296.224
296.151
296.057
295.923
295.713
295.358
294.723
293.549
291.337
287.131
279.1
263.747
234.407
178.404
71.6863
-131.29
-516.577
-1246.44
-2626.22
-5229.32
-10130.5
-19339.9
-36611.4
-68933.3
300
300
300
300
300
300
300
300
300
300
300
300
300
300
300
300
300
300
300
300
300
300
300
300
300
300
300
300
300
300
300
300
300
300
300
300
300
300
300
300
300
300
300
300
300
300
300
300
300
300
300
300
300
300
300
300
300
300
300
300
300
300
300
300
300
300
300
300
300
300
300
299.999
299.999
299.999
299.999
299.999
299.999
299.999
299.998
299.998
299.998
299.997
299.997
299.997
299.996
299.996
299.995
299.994
299.993
299.993
299.992
299.991
299.989
299.988
299.987
299.985
299.984
299.982
299.98
299.977
299.975
299.972
299.97
299.966
299.963
299.96
299.956
299.951
299.947
299.942
299.937
299.931
299.925
299.919
299.912
299.905
299.897
299.889
299.88
299.871
299.861
299.851
299.84
299.828
299.816
299.803
299.79
299.776
299.761
299.745
299.729
299.713
299.695
299.677
299.658
299.638
299.618
299.597
299.575
299.553
299.529
299.505
299.481
299.455
299.429
299.403
299.376
299.348
299.319
299.29
299.26
299.23
299.199
299.168
299.136
299.103
299.07
299.037
299.003
298.969
298.935
298.9
298.865
298.829
298.793
298.757
298.721
298.684
298.647
298.61
298.573
298.536
298.499
298.461
298.423
298.386
298.348
298.31
298.272
298.234
298.196
298.158
298.12
298.082
298.044
298.005
297.967
297.929
297.891
297.853
297.815
297.777
297.738
297.7
297.662
297.624
297.586
297.547
297.509
297.471
297.432
297.394
297.355
297.317
297.278
297.239
297.201
297.162
297.123
297.083
297.044
297.004
296.965
296.925
296.885
296.844
296.804
296.763
296.721
296.68
296.638
296.596
296.553
296.51
296.466
296.422
296.377
296.331
296.284
296.235
296.184
296.129
296.068
295.996
295.903
295.77
295.561
295.207
294.574
293.403
291.196
286.999
278.982
263.654
234.355
178.42
71.8077
-131.011
-516.092
-1245.74
-2625.48
-5229.19
-10132.9
-19349.7
-36640.5
-69008.7
300
300
300
300
300
300
300
300
300
300
300
300
300
300
300
300
300
300
300
300
300
300
300
300
300
300
300
300
300
300
300
300
300
300
300
300
300
300
300
300
300
300
300
300
300
300
300
300
300
300
300
300
300
300
300
300
300
300
300
300
300
300
300
300
300
300
300
300
300
299.999
299.999
299.999
299.999
299.999
299.999
299.999
299.998
299.998
299.998
299.997
299.997
299.996
299.996
299.995
299.995
299.994
299.993
299.992
299.991
299.99
299.989
299.987
299.986
299.984
299.982
299.98
299.978
299.975
299.973
299.97
299.967
299.963
299.959
299.955
299.951
299.946
299.941
299.936
299.93
299.923
299.917
299.909
299.902
299.894
299.885
299.875
299.865
299.855
299.844
299.832
299.82
299.806
299.793
299.778
299.763
299.747
299.73
299.712
299.694
299.675
299.655
299.634
299.613
299.59
299.567
299.543
299.519
299.493
299.467
299.44
299.412
299.383
299.354
299.324
299.293
299.262
299.23
299.197
299.164
299.13
299.096
299.061
299.026
298.99
298.953
298.917
298.88
298.842
298.805
298.767
298.728
298.69
298.651
298.612
298.573
298.534
298.495
298.456
298.416
298.377
298.338
298.298
298.259
298.22
298.181
298.142
298.103
298.064
298.025
297.986
297.948
297.909
297.871
297.833
297.795
297.757
297.719
297.681
297.644
297.606
297.569
297.532
297.495
297.457
297.421
297.384
297.347
297.31
297.273
297.236
297.2
297.163
297.126
297.089
297.052
297.015
296.978
296.941
296.903
296.866
296.828
296.791
296.753
296.714
296.676
296.637
296.598
296.559
296.52
296.48
296.44
296.399
296.358
296.316
296.274
296.231
296.187
296.142
296.096
296.049
295.999
295.945
295.885
295.814
295.722
295.59
295.383
295.03
294.4
293.232
291.031
286.843
278.843
263.543
234.292
178.435
71.9461
-130.692
-515.533
-1244.94
-2624.62
-5229.07
-10135.8
-19361.3
-36674.7
-69096.9
300
300
300
300
300
300
300
300
300
300
300
300
300
300
300
300
300
300
300
300
300
300
300
300
300
300
300
300
300
300
300
300
300
300
300
300
300
300
300
300
300
300
300
300
300
300
300
300
300
300
300
300
300
300
300
300
300
300
300
300
300
300
300
300
300
300
300
299.999
299.999
299.999
299.999
299.999
299.999
299.999
299.998
299.998
299.998
299.997
299.997
299.996
299.996
299.995
299.994
299.994
299.993
299.992
299.99
299.989
299.988
299.986
299.985
299.983
299.981
299.978
299.976
299.973
299.97
299.967
299.963
299.959
299.955
299.951
299.946
299.94
299.935
299.929
299.922
299.915
299.907
299.899
299.89
299.881
299.871
299.86
299.849
299.837
299.824
299.811
299.797
299.782
299.766
299.749
299.732
299.713
299.694
299.674
299.653
299.631
299.608
299.584
299.56
299.534
299.508
299.48
299.452
299.423
299.392
299.361
299.33
299.297
299.264
299.229
299.194
299.159
299.122
299.085
299.048
299.009
298.971
298.931
298.892
298.851
298.811
298.77
298.728
298.687
298.645
298.603
298.561
298.518
298.476
298.434
298.391
298.349
298.306
298.264
298.221
298.179
298.137
298.095
298.054
298.012
297.971
297.93
297.89
297.849
297.809
297.77
297.73
297.691
297.652
297.614
297.575
297.537
297.5
297.462
297.425
297.388
297.352
297.315
297.279
297.244
297.208
297.172
297.137
297.102
297.067
297.032
296.997
296.962
296.927
296.893
296.858
296.823
296.789
296.754
296.719
296.684
296.649
296.614
296.578
296.543
296.507
296.471
296.435
296.398
296.361
296.324
296.286
296.248
296.21
296.171
296.132
296.092
296.051
296.01
295.968
295.925
295.88
295.834
295.786
295.733
295.675
295.604
295.513
295.383
295.177
294.827
294.198
293.035
290.84
286.663
278.683
263.415
234.218
178.449
72.0995
-130.334
-514.905
-1244.04
-2623.68
-5228.97
-10139.1
-19374.7
-36713.9
-69198.1
300
300
300
300
300
300
300
300
300
300
300
300
300
300
300
300
300
300
300
300
300
300
300
300
300
300
300
300
300
300
300
300
300
300
300
300
300
300
300
300
300
300
300
300
300
300
300
300
300
300
300
300
300
300
300
300
300
300
300
300
300
300
300
300
300
300
299.999
299.999
299.999
299.999
299.999
299.999
299.998
299.998
299.998
299.997
299.997
299.996
299.996
299.995
299.994
299.993
299.992
299.991
299.99
299.989
299.987
299.985
299.983
299.981
299.979
299.977
299.974
299.971
299.967
299.964
299.96
299.955
299.951
299.946
299.94
299.934
299.928
299.921
299.913
299.905
299.897
299.887
299.877
299.867
299.855
299.843
299.83
299.817
299.802
299.787
299.771
299.753
299.735
299.716
299.696
299.675
299.653
299.63
299.606
299.58
299.554
299.527
299.498
299.469
299.438
299.407
299.374
299.34
299.306
299.27
299.233
299.196
299.157
299.118
299.078
299.037
298.995
298.953
298.91
298.866
298.822
298.777
298.732
298.686
298.64
298.594
298.547
298.501
298.454
298.406
298.359
298.312
298.265
298.218
298.171
298.124
298.077
298.031
297.985
297.939
297.894
297.848
297.804
297.759
297.716
297.672
297.629
297.587
297.545
297.504
297.463
297.423
297.383
297.343
297.305
297.266
297.229
297.191
297.155
297.118
297.082
297.047
297.012
296.977
296.943
296.909
296.875
296.842
296.809
296.776
296.743
296.711
296.678
296.646
296.614
296.582
296.55
296.518
296.486
296.454
296.422
296.39
296.357
296.325
296.292
296.259
296.226
296.192
296.159
296.125
296.09
296.055
296.02
295.985
295.948
295.912
295.875
295.837
295.798
295.759
295.718
295.677
295.635
295.59
295.543
295.492
295.435
295.367
295.277
295.148
294.944
294.596
293.97
292.811
290.624
286.459
278.5
263.268
234.131
178.461
72.2658
-129.94
-514.213
-1243.05
-2622.65
-5228.91
-10142.9
-19389.9
-36758.2
-69312.5
300
300
300
300
300
300
300
300
300
300
300
300
300
300
300
300
300
300
300
300
300
300
300
300
300
300
300
300
300
300
300
300
300
300
300
300
300
300
300
300
300
300
300
300
300
300
300
300
300
300
300
300
300
300
300
300
300
300
300
300
300
300
300
300
299.999
299.999
299.999
299.999
299.999
299.999
299.998
299.998
299.998
299.997
299.997
299.996
299.995
299.995
299.994
299.993
299.992
299.991
299.989
299.988
299.986
299.984
299.982
299.98
299.977
299.975
299.972
299.968
299.965
299.961
299.956
299.951
299.946
299.94
299.934
299.927
299.92
299.912
299.904
299.895
299.885
299.874
299.863
299.851
299.838
299.825
299.81
299.794
299.778
299.76
299.742
299.722
299.701
299.679
299.656
299.632
299.606
299.58
299.552
299.523
299.493
299.461
299.428
299.394
299.359
299.322
299.284
299.245
299.205
299.164
299.122
299.078
299.034
298.989
298.942
298.895
298.847
298.798
298.749
298.698
298.648
298.596
298.544
298.492
298.439
298.387
298.333
298.28
298.227
298.174
298.12
298.067
298.014
297.961
297.908
297.856
297.804
297.753
297.702
297.652
297.602
297.552
297.504
297.456
297.409
297.362
297.316
297.271
297.227
297.183
297.14
297.098
297.057
297.017
296.977
296.938
296.9
296.863
296.826
296.79
296.755
296.72
296.686
296.652
296.62
296.587
296.555
296.524
296.493
296.463
296.432
296.403
296.373
296.344
296.315
296.286
296.257
296.228
296.199
296.171
296.142
296.113
296.085
296.056
296.027
295.997
295.968
295.938
295.908
295.878
295.847
295.816
295.785
295.753
295.72
295.687
295.654
295.62
295.585
295.55
295.514
295.476
295.438
295.399
295.359
295.316
295.271
295.222
295.167
295.1
295.012
294.884
294.682
294.337
293.714
292.56
290.381
286.23
278.293
263.101
234.031
178.469
72.4428
-129.514
-513.461
-1241.97
-2621.54
-5228.91
-10147.3
-19406.9
-36807.8
-69440.1
300
300
300
300
300
300
300
300
300
300
300
300
300
300
300
300
300
300
300
300
300
300
300
300
300
300
300
300
300
300
300
300
300
300
300
300
300
300
300
300
300
300
300
300
300
300
300
300
300
300
300
300
300
300
300
300
300
300
300
300
300
300
299.999
299.999
299.999
299.999
299.999
299.999
299.998
299.998
299.998
299.997
299.997
299.996
299.995
299.995
299.994
299.993
299.992
299.99
299.989
299.987
299.985
299.983
299.981
299.979
299.976
299.973
299.97
299.966
299.962
299.957
299.952
299.947
299.941
299.935
299.928
299.92
299.912
299.903
299.894
299.884
299.873
299.861
299.848
299.834
299.82
299.804
299.787
299.77
299.751
299.731
299.709
299.687
299.663
299.638
299.612
299.584
299.554
299.524
299.492
299.458
299.423
299.387
299.349
299.309
299.268
299.226
299.182
299.137
299.091
299.043
298.994
298.944
298.892
298.839
298.786
298.731
298.675
298.619
298.561
298.503
298.444
298.385
298.325
298.265
298.205
298.144
298.083
298.022
297.961
297.9
297.839
297.779
297.718
297.659
297.599
297.54
297.482
297.424
297.368
297.311
297.256
297.202
297.148
297.095
297.044
296.993
296.943
296.895
296.847
296.801
296.756
296.711
296.668
296.626
296.585
296.545
296.507
296.469
296.432
296.396
296.361
296.328
296.295
296.262
296.231
296.2
296.171
296.142
296.113
296.085
296.058
296.031
296.004
295.978
295.953
295.927
295.902
295.877
295.853
295.828
295.803
295.779
295.754
295.73
295.705
295.68
295.655
295.63
295.604
295.578
295.552
295.525
295.498
295.471
295.443
295.414
295.385
295.356
295.325
295.294
295.263
295.23
295.196
295.162
295.127
295.09
295.052
295.011
294.969
294.922
294.868
294.803
294.717
294.592
294.392
294.049
293.43
292.281
290.111
285.975
278.063
262.914
233.915
178.47
72.6279
-129.059
-512.655
-1240.82
-2620.38
-5228.99
-10152.2
-19425.9
-36862.8
-69581.3
300
300
300
300
300
300
300
300
300
300
300
300
300
300
300
300
300
300
300
300
300
300
300
300
300
300
300
300
300
300
300
300
300
300
300
300
300
300
300
300
300
300
300
300
300
300
300
300
300
300
300
300
300
300
300
300
300
300
300
300
300
299.999
299.999
299.999
299.999
299.999
299.998
299.998
299.998
299.997
299.997
299.996
299.995
299.995
299.994
299.993
299.991
299.99
299.988
299.987
299.985
299.983
299.98
299.977
299.974
299.971
299.967
299.963
299.959
299.954
299.948
299.943
299.936
299.929
299.921
299.913
299.904
299.894
299.883
299.872
299.859
299.846
299.832
299.816
299.8
299.782
299.763
299.743
299.721
299.699
299.674
299.649
299.621
299.593
299.562
299.53
299.497
299.461
299.425
299.386
299.345
299.303
299.259
299.214
299.166
299.117
299.067
299.014
298.96
298.905
298.848
298.789
298.73
298.668
298.606
298.542
298.478
298.412
298.345
298.278
298.21
298.141
298.072
298.002
297.932
297.862
297.791
297.721
297.651
297.581
297.511
297.442
297.373
297.304
297.237
297.17
297.104
297.039
296.975
296.911
296.849
296.789
296.729
296.671
296.614
296.558
296.504
296.451
296.399
296.349
296.301
296.254
296.208
296.164
296.121
296.08
296.04
296.002
295.965
295.929
295.894
295.861
295.829
295.798
295.769
295.74
295.713
295.686
295.66
295.635
295.611
295.588
295.565
295.543
295.521
295.5
295.479
295.459
295.439
295.419
295.399
295.379
295.36
295.34
295.321
295.301
295.281
295.261
295.241
295.22
295.199
295.178
295.156
295.134
295.111
295.087
295.064
295.039
295.014
294.988
294.961
294.934
294.905
294.876
294.846
294.814
294.782
294.748
294.712
294.675
294.635
294.59
294.539
294.476
294.392
294.269
294.072
293.731
293.117
291.974
289.813
285.693
277.808
262.705
233.783
178.464
72.8183
-128.581
-511.803
-1239.6
-2619.17
-5229.18
-10157.8
-19446.9
-36923.2
-69736.2
300
300
300
300
300
300
300
300
300
300
300
300
300
300
300
300
300
300
300
300
300
300
300
300
300
300
300
300
300
300
300
300
300
300
300
300
300
300
300
300
300
300
300
300
300
300
300
300
300
300
300
300
300
300
300
300
300
300
300
299.999
299.999
299.999
299.999
299.999
299.998
299.998
299.998
299.997
299.997
299.996
299.995
299.995
299.994
299.992
299.991
299.99
299.988
299.986
299.984
299.982
299.979
299.976
299.973
299.969
299.965
299.961
299.956
299.951
299.945
299.938
299.931
299.923
299.915
299.905
299.895
299.884
299.872
299.859
299.845
299.83
299.814
299.797
299.778
299.758
299.737
299.714
299.689
299.664
299.636
299.607
299.576
299.543
299.508
299.471
299.433
299.392
299.35
299.305
299.259
299.21
299.16
299.107
299.052
298.995
298.937
298.876
298.813
298.749
298.682
298.614
298.545
298.474
298.401
298.327
298.252
298.175
298.098
298.019
297.94
297.86
297.779
297.698
297.617
297.535
297.454
297.372
297.291
297.21
297.13
297.05
296.971
296.892
296.815
296.738
296.663
296.588
296.515
296.444
296.374
296.305
296.238
296.173
296.11
296.048
295.988
295.93
295.873
295.819
295.766
295.716
295.667
295.62
295.575
295.532
295.491
295.451
295.414
295.378
295.344
295.311
295.28
295.251
295.223
295.196
295.171
295.147
295.125
295.103
295.083
295.063
295.045
295.027
295.01
294.994
294.978
294.963
294.948
294.934
294.92
294.906
294.892
294.879
294.865
294.852
294.838
294.824
294.81
294.796
294.781
294.766
294.75
294.734
294.718
294.701
294.683
294.664
294.645
294.625
294.604
294.583
294.56
294.537
294.512
294.487
294.46
294.433
294.403
294.373
294.34
294.306
294.268
294.226
294.178
294.117
294.036
293.916
293.721
293.384
292.774
291.637
289.486
285.383
277.527
262.473
233.633
178.447
73.0109
-128.082
-510.91
-1238.34
-2617.94
-5229.5
-10163.9
-19469.9
-36989.3
-69905.2
300
300
300
300
300
300
300
300
300
300
300
300
300
300
300
300
300
300
300
300
300
300
300
300
300
300
300
300
300
300
300
300
300
300
300
300
300
300
300
300
300
300
300
300
300
300
300
300
300
300
300
300
300
300
300
300
300
300
299.999
299.999
299.999
299.999
299.999
299.998
299.998
299.997
299.997
299.996
299.995
299.995
299.994
299.993
299.991
299.99
299.988
299.986
299.984
299.981
299.979
299.975
299.972
299.968
299.964
299.959
299.953
299.947
299.941
299.934
299.926
299.917
299.908
299.897
299.886
299.874
299.861
299.846
299.831
299.814
299.796
299.776
299.755
299.733
299.709
299.683
299.655
299.626
299.594
299.561
299.526
299.488
299.449
299.407
299.363
299.317
299.268
299.217
299.163
299.107
299.049
298.988
298.924
298.859
298.791
298.72
298.648
298.573
298.496
298.417
298.336
298.253
298.168
298.082
297.994
297.905
297.815
297.723
297.631
297.537
297.444
297.349
297.254
297.16
297.065
296.97
296.876
296.782
296.688
296.596
296.504
296.414
296.324
296.236
296.15
296.065
295.981
295.9
295.82
295.742
295.666
295.593
295.521
295.452
295.385
295.32
295.258
295.198
295.141
295.086
295.033
294.983
294.935
294.889
294.846
294.806
294.767
294.731
294.697
294.665
294.635
294.607
294.581
294.557
294.535
294.514
294.495
294.477
294.461
294.446
294.433
294.42
294.409
294.398
294.388
294.38
294.371
294.363
294.356
294.349
294.343
294.336
294.33
294.323
294.317
294.311
294.304
294.297
294.29
294.282
294.274
294.265
294.256
294.246
294.236
294.224
294.212
294.2
294.186
294.171
294.156
294.139
294.121
294.103
294.083
294.061
294.039
294.015
293.99
293.963
293.934
293.903
293.869
293.83
293.784
293.727
293.648
293.53
293.338
293.005
292.4
291.27
289.13
285.044
277.219
262.216
233.463
178.419
73.2026
-127.569
-509.984
-1237.03
-2616.71
-5229.99
-10170.8
-19495.1
-37061.1
-70088.4
300
300
300
300
300
300
300
300
300
300
300
300
300
300
300
300
300
300
300
300
300
300
300
300
300
300
300
300
300
300
300
300
300
300
300
300
300
300
300
300
300
300
300
300
300
300
300
300
300
300
300
300
300
300
300
300
299.999
299.999
299.999
299.999
299.999
299.998
299.998
299.998
299.997
299.996
299.996
299.995
299.994
299.993
299.991
299.99
299.988
299.986
299.984
299.981
299.978
299.975
299.971
299.967
299.962
299.957
299.951
299.944
299.937
299.929
299.921
299.911
299.901
299.889
299.877
299.863
299.849
299.833
299.815
299.797
299.776
299.754
299.731
299.706
299.679
299.65
299.618
299.585
299.55
299.512
299.472
299.43
299.384
299.337
299.286
299.233
299.178
299.119
299.057
298.993
298.926
298.856
298.783
298.707
298.628
298.547
298.462
298.376
298.286
298.194
298.1
298.004
297.905
297.804
297.702
297.598
297.493
297.386
297.278
297.169
297.06
296.949
296.839
296.728
296.618
296.507
296.398
296.288
296.18
296.072
295.966
295.861
295.757
295.656
295.556
295.458
295.362
295.268
295.177
295.088
295.001
294.918
294.837
294.758
294.683
294.611
294.541
294.475
294.411
294.351
294.293
294.239
294.188
294.139
294.094
294.051
294.012
293.975
293.941
293.909
293.881
293.854
293.83
293.809
293.79
293.773
293.758
293.745
293.733
293.724
293.716
293.709
293.704
293.701
293.698
293.696
293.695
293.695
293.696
293.697
293.699
293.701
293.703
293.705
293.708
293.71
293.712
293.714
293.715
293.717
293.717
293.718
293.717
293.716
293.714
293.711
293.708
293.703
293.698
293.692
293.684
293.676
293.666
293.655
293.643
293.629
293.615
293.598
293.581
293.561
293.54
293.518
293.493
293.465
293.435
293.399
293.357
293.303
293.227
293.112
292.924
292.594
291.994
290.871
288.743
284.676
276.883
261.934
233.272
178.375
73.3896
-127.047
-509.035
-1235.69
-2615.48
-5230.67
-10178.5
-19522.5
-37138.8
-70286.3
300
300
300
300
300
300
300
300
300
300
300
300
300
300
300
300
300
300
300
300
300
300
300
300
300
300
300
300
300
300
300
300
300
300
300
300
300
300
300
300
300
300
300
300
300
300
300
300
300
300
300
300
300
300
300
299.999
299.999
299.999
299.999
299.999
299.998
299.998
299.997
299.997
299.996
299.995
299.994
299.993
299.991
299.99
299.988
299.986
299.983
299.981
299.978
299.974
299.97
299.965
299.96
299.955
299.949
299.942
299.934
299.925
299.916
299.905
299.894
299.881
299.868
299.853
299.836
299.819
299.8
299.779
299.756
299.732
299.706
299.677
299.647
299.614
299.579
299.542
299.502
299.459
299.414
299.366
299.315
299.261
299.203
299.143
299.079
299.012
298.942
298.868
298.791
298.71
298.626
298.539
298.448
298.354
298.256
298.156
298.052
297.945
297.836
297.723
297.609
297.492
297.372
297.251
297.128
297.003
296.877
296.75
296.622
296.494
296.365
296.235
296.106
295.977