/*--------------------------------*- C++ -*----------------------------------*\
| =========                 |                                                 |
| \\      /  F ield         | OpenFOAM: The Open Source CFD Toolbox           |
|  \\    /   O peration     | Version:  2306                                  |
|   \\  /    A nd           | Website:  www.openfoam.com                      |
|    \\/     M anipulation  |                                                 |
\*---------------------------------------------------------------------------*/
FoamFile
{
    version     2.0;
    format      ascii;
    arch        "LSB;label=32;scalar=64";
    class       volVectorField;
    location    "9";
    object      U;
}
// * * * * * * * * * * * * * * * * * * * * * * * * * * * * * * * * * * * * * //

dimensions      [0 1 -1 0 0 0 0];

internalField   nonuniform List<vector> 
32768
(
(1.00001 -4.03251e-05 0)
(1.00017 -0.000121185 0)
(1.00049 -0.000202202 0)
(1.00097 -0.000283378 0)
(1.00162 -0.000364818 0)
(1.00243 -0.000446618 0)
(1.00341 -0.000528844 0)
(1.00455 -0.000611551 0)
(1.00585 -0.000694799 0)
(1.00733 -0.000778651 0)
(1.00897 -0.000863161 0)
(1.01078 -0.00094838 0)
(1.01276 -0.00103435 0)
(1.01492 -0.0011211 0)
(1.01725 -0.00120867 0)
(1.01975 -0.00129707 0)
(1.02244 -0.00138631 0)
(1.0253 -0.00147639 0)
(1.02834 -0.00156731 0)
(1.03157 -0.00165903 0)
(1.03498 -0.00175153 0)
(1.03858 -0.00184477 0)
(1.04236 -0.00193867 0)
(1.04633 -0.00203317 0)
(1.05049 -0.00212818 0)
(1.05484 -0.00222361 0)
(1.05939 -0.00231933 0)
(1.06412 -0.00241522 0)
(1.06905 -0.00251112 0)
(1.07417 -0.00260689 0)
(1.07948 -0.00270235 0)
(1.08498 -0.00279732 0)
(1.09067 -0.00289158 0)
(1.09655 -0.00298494 0)
(1.10261 -0.00307716 0)
(1.10886 -0.00316802 0)
(1.11529 -0.00325728 0)
(1.12189 -0.00334468 0)
(1.12867 -0.00342999 0)
(1.13561 -0.00351293 0)
(1.14272 -0.00359326 0)
(1.14999 -0.00367073 0)
(1.15741 -0.00374509 0)
(1.16497 -0.00381609 0)
(1.17268 -0.0038835 0)
(1.18051 -0.00394711 0)
(1.18847 -0.00400671 0)
(1.19654 -0.0040621 0)
(1.20472 -0.00411312 0)
(1.213 -0.00415962 0)
(1.22136 -0.00420147 0)
(1.22981 -0.00423857 0)
(1.23832 -0.00427083 0)
(1.2469 -0.00429821 0)
(1.25552 -0.00432069 0)
(1.26419 -0.00433825 0)
(1.27288 -0.00435093 0)
(1.28159 -0.00435879 0)
(1.29032 -0.0043619 0)
(1.29905 -0.00436037 0)
(1.30777 -0.00435432 0)
(1.31647 -0.00434391 0)
(1.32515 -0.0043293 0)
(1.33379 -0.00431067 0)
(1.34239 -0.00428823 0)
(1.35095 -0.0042622 0)
(1.35944 -0.00423279 0)
(1.36788 -0.00420025 0)
(1.37625 -0.0041648 0)
(1.38454 -0.00412671 0)
(1.39276 -0.0040862 0)
(1.40089 -0.00404354 0)
(1.40893 -0.00399896 0)
(1.41689 -0.00395269 0)
(1.42475 -0.00390498 0)
(1.43251 -0.00385603 0)
(1.44017 -0.00380608 0)
(1.44773 -0.00375531 0)
(1.45519 -0.00370392 0)
(1.46255 -0.00365209 0)
(1.4698 -0.00359997 0)
(1.47695 -0.0035477 0)
(1.48399 -0.00349543 0)
(1.49093 -0.00344326 0)
(1.49777 -0.00339128 0)
(1.5045 -0.00333958 0)
(1.51112 -0.00328823 0)
(1.51765 -0.00323725 0)
(1.52407 -0.00318669 0)
(1.53039 -0.00313656 0)
(1.53662 -0.00308686 0)
(1.54274 -0.00303756 0)
(1.54877 -0.00298865 0)
(1.55469 -0.00294006 0)
(1.56053 -0.00289176 0)
(1.56626 -0.00284368 0)
(1.5719 -0.00279572 0)
(1.57744 -0.00274782 0)
(1.58289 -0.00269988 0)
(1.58824 -0.0026518 0)
(1.5935 -0.00260347 0)
(1.59866 -0.00255479 0)
(1.60372 -0.00250563 0)
(1.60868 -0.0024559 0)
(1.61354 -0.00240547 0)
(1.6183 -0.00235423 0)
(1.62296 -0.00230207 0)
(1.62751 -0.00224887 0)
(1.63195 -0.00219453 0)
(1.63629 -0.00213895 0)
(1.64051 -0.00208203 0)
(1.64461 -0.00202367 0)
(1.6486 -0.00196379 0)
(1.65247 -0.00190232 0)
(1.65621 -0.00183918 0)
(1.65983 -0.0017743 0)
(1.66331 -0.00170763 0)
(1.66666 -0.00163913 0)
(1.66987 -0.00156875 0)
(1.67294 -0.00149647 0)
(1.67586 -0.00142226 0)
(1.67863 -0.00134611 0)
(1.68124 -0.00126802 0)
(1.6837 -0.00118799 0)
(1.68599 -0.00110604 0)
(1.68812 -0.00102217 0)
(1.69008 -0.00093643 0)
(1.69187 -0.000848844 0)
(1.69348 -0.000759457 0)
(1.69491 -0.000668317 0)
(1.69615 -0.000575481 0)
(1.69721 -0.000481008 0)
(1.69808 -0.000384964 0)
(1.69875 -0.000287422 0)
(1.69923 -0.000188456 0)
(1.6995 -8.81475e-05 0)
(1.69958 1.34211e-05 0)
(1.69945 0.00011616 0)
(1.69912 0.00021998 0)
(1.69857 0.000324788 0)
(1.69782 0.00043049 0)
(1.69685 0.000536988 0)
(1.69567 0.000644182 0)
(1.69427 0.000751971 0)
(1.69266 0.000860252 0)
(1.69083 0.000968921 0)
(1.68878 0.00107787 0)
(1.68652 0.001187 0)
(1.68403 0.0012962 0)
(1.68133 0.00140537 0)
(1.67841 0.00151438 0)
(1.67527 0.00162314 0)
(1.67192 0.00173153 0)
(1.66834 0.00183945 0)
(1.66456 0.00194677 0)
(1.66055 0.00205339 0)
(1.65634 0.00215919 0)
(1.65192 0.00226405 0)
(1.64728 0.00236786 0)
(1.64244 0.00247051 0)
(1.6374 0.00257187 0)
(1.63215 0.00267182 0)
(1.62671 0.00277025 0)
(1.62107 0.00286703 0)
(1.61524 0.00296203 0)
(1.60922 0.00305515 0)
(1.60301 0.00314626 0)
(1.59663 0.00323522 0)
(1.59007 0.00332193 0)
(1.58334 0.00340626 0)
(1.57644 0.00348808 0)
(1.56938 0.00356728 0)
(1.56217 0.00364375 0)
(1.5548 0.00371736 0)
(1.54729 0.003788 0)
(1.53965 0.00385556 0)
(1.53187 0.00391994 0)
(1.52396 0.00398103 0)
(1.51594 0.00403874 0)
(1.5078 0.00409298 0)
(1.49956 0.00414367 0)
(1.49122 0.00419072 0)
(1.48279 0.00423407 0)
(1.47428 0.00427365 0)
(1.46569 0.00430941 0)
(1.45704 0.0043413 0)
(1.44832 0.00436929 0)
(1.43956 0.00439334 0)
(1.43075 0.00441346 0)
(1.4219 0.00442962 0)
(1.41302 0.00444182 0)
(1.40413 0.0044501 0)
(1.39522 0.00445446 0)
(1.3863 0.00445494 0)
(1.37739 0.00445159 0)
(1.36849 0.00444447 0)
(1.35961 0.00443364 0)
(1.35075 0.00441917 0)
(1.34193 0.00440115 0)
(1.33314 0.00437967 0)
(1.32441 0.00435483 0)
(1.31572 0.00432675 0)
(1.30709 0.00429555 0)
(1.29853 0.00426133 0)
(1.29005 0.00422424 0)
(1.28163 0.00418442 0)
(1.2733 0.00414199 0)
(1.26506 0.00409711 0)
(1.25691 0.00404993 0)
(1.24886 0.00400059 0)
(1.24091 0.00394926 0)
(1.23306 0.00389607 0)
(1.22532 0.0038412 0)
(1.21769 0.00378479 0)
(1.21018 0.003727 0)
(1.20278 0.00366798 0)
(1.19551 0.00360789 0)
(1.18835 0.00354688 0)
(1.18132 0.00348509 0)
(1.17441 0.00342268 0)
(1.16763 0.00335977 0)
(1.16097 0.00329652 0)
(1.15444 0.00323305 0)
(1.14804 0.00316949 0)
(1.14176 0.00310596 0)
(1.13561 0.0030426 0)
(1.12959 0.0029795 0)
(1.12369 0.00291678 0)
(1.11792 0.00285455 0)
(1.11228 0.0027929 0)
(1.10675 0.00273193 0)
(1.10135 0.00267172 0)
(1.09607 0.00261236 0)
(1.0909 0.00255392 0)
(1.08585 0.00249647 0)
(1.08092 0.00244008 0)
(1.07609 0.00238482 0)
(1.07138 0.00233073 0)
(1.06677 0.00227787 0)
(1.06227 0.00222628 0)
(1.05786 0.002176 0)
(1.05356 0.00212707 0)
(1.04936 0.00207953 0)
(1.04525 0.00203338 0)
(1.04123 0.00198867 0)
(1.03729 0.0019454 0)
(1.03345 0.00190359 0)
(1.02968 0.00186326 0)
(1.026 0.00182437 0)
(1.02238 0.00178702 0)
(1.01886 0.00175099 0)
(1.01534 0.00171669 0)
(1.01207 0.00168333 0)
(1.00843 0.00165172 0)
(1.00587 0.00162219 0)
(1.0007 0.00158594 0)
(1.00001 -0.000121151 0)
(1.00017 -0.000363778 0)
(1.00049 -0.000606787 0)
(1.00097 -0.000850312 0)
(1.00162 -0.00109463 0)
(1.00243 -0.00134 0)
(1.0034 -0.00158663 0)
(1.00454 -0.0018347 0)
(1.00585 -0.00208441 0)
(1.00732 -0.00233593 0)
(1.00896 -0.00258943 0)
(1.01077 -0.00284506 0)
(1.01275 -0.00310295 0)
(1.01491 -0.0033632 0)
(1.01724 -0.0036259 0)
(1.01974 -0.00389111 0)
(1.02242 -0.00415885 0)
(1.02528 -0.00442912 0)
(1.02833 -0.00470191 0)
(1.03155 -0.00497713 0)
(1.03496 -0.00525469 0)
(1.03856 -0.00553446 0)
(1.04234 -0.00581625 0)
(1.04631 -0.00609985 0)
(1.05047 -0.006385 0)
(1.05482 -0.00667139 0)
(1.05937 -0.00695869 0)
(1.0641 -0.00724649 0)
(1.06903 -0.00753437 0)
(1.07415 -0.00782185 0)
(1.07946 -0.00810841 0)
(1.08497 -0.00839349 0)
(1.09066 -0.00867648 0)
(1.09654 -0.00895676 0)
(1.10261 -0.00923365 0)
(1.10886 -0.00950645 0)
(1.11529 -0.00977444 0)
(1.1219 -0.0100369 0)
(1.12868 -0.010293 0)
(1.13563 -0.0105421 0)
(1.14275 -0.0107833 0)
(1.15002 -0.0110159 0)
(1.15745 -0.0112392 0)
(1.16502 -0.0114524 0)
(1.17273 -0.0116548 0)
(1.18058 -0.0118458 0)
(1.18855 -0.0120247 0)
(1.19663 -0.0121911 0)
(1.20482 -0.0123442 0)
(1.21311 -0.0124838 0)
(1.22148 -0.0126094 0)
(1.22994 -0.0127208 0)
(1.23846 -0.0128176 0)
(1.24705 -0.0128997 0)
(1.25568 -0.0129671 0)
(1.26436 -0.0130197 0)
(1.27306 -0.0130577 0)
(1.28179 -0.0130812 0)
(1.29053 -0.0130904 0)
(1.29926 -0.0130856 0)
(1.30799 -0.0130673 0)
(1.31671 -0.0130359 0)
(1.32539 -0.0129918 0)
(1.33405 -0.0129358 0)
(1.34266 -0.0128682 0)
(1.35122 -0.0127899 0)
(1.35973 -0.0127014 0)
(1.36817 -0.0126035 0)
(1.37654 -0.012497 0)
(1.38484 -0.0123824 0)
(1.39307 -0.0122607 0)
(1.4012 -0.0121324 0)
(1.40925 -0.0119984 0)
(1.41721 -0.0118594 0)
(1.42507 -0.0117161 0)
(1.43284 -0.011569 0)
(1.4405 -0.011419 0)
(1.44807 -0.0112665 0)
(1.45553 -0.0111122 0)
(1.46289 -0.0109565 0)
(1.47014 -0.0108 0)
(1.47729 -0.0106431 0)
(1.48434 -0.0104861 0)
(1.49127 -0.0103295 0)
(1.49811 -0.0101735 0)
(1.50484 -0.0100184 0)
(1.51147 -0.00986427 0)
(1.51799 -0.00971133 0)
(1.52442 -0.00955964 0)
(1.53074 -0.00940924 0)
(1.53696 -0.00926014 0)
(1.54309 -0.00911228 0)
(1.54911 -0.00896557 0)
(1.55504 -0.00881988 0)
(1.56087 -0.00867503 0)
(1.56661 -0.00853084 0)
(1.57225 -0.00838706 0)
(1.57779 -0.00824344 0)
(1.58324 -0.0080997 0)
(1.58859 -0.00795555 0)
(1.59385 -0.00781065 0)
(1.59901 -0.00766469 0)
(1.60407 -0.00751733 0)
(1.60904 -0.00736823 0)
(1.6139 -0.00721703 0)
(1.61866 -0.0070634 0)
(1.62332 -0.006907 0)
(1.62788 -0.00674749 0)
(1.63232 -0.00658455 0)
(1.63666 -0.00641788 0)
(1.64089 -0.00624718 0)
(1.645 -0.00607217 0)
(1.64899 -0.0058926 0)
(1.65286 -0.00570822 0)
(1.65661 -0.00551883 0)
(1.66022 -0.00532423 0)
(1.66371 -0.00512425 0)
(1.66706 -0.00491876 0)
(1.67028 -0.00470763 0)
(1.67335 -0.00449078 0)
(1.67627 -0.00426814 0)
(1.67905 -0.00403967 0)
(1.68167 -0.00380537 0)
(1.68413 -0.00356525 0)
(1.68643 -0.00331933 0)
(1.68856 -0.00306769 0)
(1.69052 -0.0028104 0)
(1.69232 -0.00254758 0)
(1.69393 -0.00227935 0)
(1.69536 -0.00200586 0)
(1.69661 -0.00172727 0)
(1.69767 -0.00144376 0)
(1.69854 -0.00115554 0)
(1.69922 -0.00086282 0)
(1.6997 -0.000565827 0)
(1.69998 -0.000264801 0)
(1.70005 4.00058e-05 0)
(1.69993 0.000348329 0)
(1.69959 0.000659899 0)
(1.69905 0.000974436 0)
(1.6983 0.00129166 0)
(1.69733 0.00161126 0)
(1.69615 0.00193296 0)
(1.69475 0.00225644 0)
(1.69314 0.0025814 0)
(1.69131 0.00290753 0)
(1.68927 0.0032345 0)
(1.687 0.00356201 0)
(1.68451 0.00388973 0)
(1.68181 0.00421733 0)
(1.67889 0.0045445 0)
(1.67575 0.0048709 0)
(1.67239 0.00519619 0)
(1.66882 0.00552005 0)
(1.66503 0.00584214 0)
(1.66102 0.00616211 0)
(1.65681 0.00647962 0)
(1.65238 0.00679434 0)
(1.64774 0.0071059 0)
(1.6429 0.00741395 0)
(1.63785 0.00771815 0)
(1.6326 0.00801813 0)
(1.62715 0.00831352 0)
(1.62151 0.00860398 0)
(1.61567 0.00888913 0)
(1.60965 0.0091686 0)
(1.60344 0.00944203 0)
(1.59705 0.00970904 0)
(1.59048 0.00996928 0)
(1.58374 0.0102224 0)
(1.57684 0.010468 0)
(1.56977 0.0107057 0)
(1.56255 0.0109352 0)
(1.55518 0.0111561 0)
(1.54766 0.0113681 0)
(1.54001 0.0115709 0)
(1.53222 0.0117641 0)
(1.52431 0.0119475 0)
(1.51628 0.0121207 0)
(1.50813 0.0122835 0)
(1.49988 0.0124356 0)
(1.49153 0.0125768 0)
(1.4831 0.0127069 0)
(1.47457 0.0128256 0)
(1.46598 0.0129329 0)
(1.45731 0.0130286 0)
(1.44859 0.0131126 0)
(1.43981 0.0131848 0)
(1.43099 0.0132451 0)
(1.42213 0.0132935 0)
(1.41325 0.0133301 0)
(1.40434 0.0133549 0)
(1.39542 0.0133679 0)
(1.3865 0.0133693 0)
(1.37758 0.0133592 0)
(1.36867 0.0133378 0)
(1.35978 0.0133052 0)
(1.35091 0.0132617 0)
(1.34208 0.0132075 0)
(1.33329 0.0131429 0)
(1.32454 0.0130683 0)
(1.31585 0.0129839 0)
(1.30721 0.0128902 0)
(1.29865 0.0127874 0)
(1.29015 0.012676 0)
(1.28173 0.0125564 0)
(1.27339 0.0124289 0)
(1.26515 0.0122941 0)
(1.25699 0.0121524 0)
(1.24893 0.0120043 0)
(1.24097 0.0118501 0)
(1.23312 0.0116904 0)
(1.22538 0.0115256 0)
(1.21775 0.0113562 0)
(1.21023 0.0111827 0)
(1.20283 0.0110055 0)
(1.19555 0.010825 0)
(1.18839 0.0106419 0)
(1.18135 0.0104564 0)
(1.17444 0.010269 0)
(1.16766 0.0100801 0)
(1.161 0.00989022 0)
(1.15446 0.00969967 0)
(1.14806 0.00950887 0)
(1.14178 0.00931818 0)
(1.13563 0.00912796 0)
(1.12961 0.00893856 0)
(1.12372 0.00875031 0)
(1.11794 0.00856352 0)
(1.1123 0.00837848 0)
(1.10677 0.00819547 0)
(1.10137 0.00801476 0)
(1.09609 0.00783659 0)
(1.09092 0.0076612 0)
(1.08587 0.0074888 0)
(1.08094 0.00731958 0)
(1.07612 0.00715373 0)
(1.0714 0.00699141 0)
(1.0668 0.00683278 0)
(1.0623 0.00667797 0)
(1.0579 0.0065271 0)
(1.0536 0.00638029 0)
(1.04939 0.00623762 0)
(1.04528 0.00609917 0)
(1.04127 0.00596501 0)
(1.03733 0.00583519 0)
(1.03349 0.00570975 0)
(1.02972 0.00558873 0)
(1.02604 0.0054721 0)
(1.02243 0.00535997 0)
(1.01891 0.00525214 0)
(1.0154 0.00514873 0)
(1.01213 0.00504999 0)
(1.00848 0.00495294 0)
(1.00594 0.00487052 0)
(1.00076 0.00475405 0)
(1.00001 -0.000202006 0)
(1.00017 -0.000606252 0)
(1.00048 -0.00101105 0)
(1.00097 -0.00141677 0)
(1.00162 -0.00182383 0)
(1.00243 -0.00223261 0)
(1.0034 -0.00264347 0)
(1.00454 -0.00305675 0)
(1.00584 -0.00347277 0)
(1.00731 -0.00389184 0)
(1.00895 -0.00431423 0)
(1.01076 -0.00474019 0)
(1.01274 -0.00516993 0)
(1.01489 -0.00560364 0)
(1.01721 -0.00604146 0)
(1.01972 -0.00648349 0)
(1.02239 -0.00692977 0)
(1.02525 -0.00738032 0)
(1.02829 -0.00783508 0)
(1.03152 -0.00829395 0)
(1.03492 -0.00875676 0)
(1.03852 -0.00922328 0)
(1.0423 -0.00969323 0)
(1.04627 -0.0101662 0)
(1.05043 -0.0106419 0)
(1.05478 -0.0111196 0)
(1.05933 -0.0115989 0)
(1.06406 -0.0120791 0)
(1.06899 -0.0125595 0)
(1.07411 -0.0130393 0)
(1.07943 -0.0135176 0)
(1.08494 -0.0139934 0)
(1.09063 -0.0144658 0)
(1.09652 -0.0149337 0)
(1.1026 -0.015396 0)
(1.10885 -0.0158515 0)
(1.11529 -0.016299 0)
(1.12191 -0.0167373 0)
(1.12871 -0.0171651 0)
(1.13567 -0.0175811 0)
(1.1428 -0.017984 0)
(1.15009 -0.0183725 0)
(1.15753 -0.0187455 0)
(1.16512 -0.0191016 0)
(1.17285 -0.0194397 0)
(1.18071 -0.0197587 0)
(1.1887 -0.0200576 0)
(1.1968 -0.0203354 0)
(1.20501 -0.0205912 0)
(1.21332 -0.0208242 0)
(1.22172 -0.0210339 0)
(1.2302 -0.0212197 0)
(1.23874 -0.0213812 0)
(1.24735 -0.0215182 0)
(1.25601 -0.0216305 0)
(1.26471 -0.0217181 0)
(1.27343 -0.0217812 0)
(1.28218 -0.02182 0)
(1.29094 -0.021835 0)
(1.2997 -0.0218266 0)
(1.30845 -0.0217956 0)
(1.31718 -0.0217426 0)
(1.32589 -0.0216685 0)
(1.33456 -0.0215744 0)
(1.34319 -0.021461 0)
(1.35176 -0.0213297 0)
(1.36029 -0.0211814 0)
(1.36875 -0.0210175 0)
(1.37713 -0.020839 0)
(1.38545 -0.0206472 0)
(1.39368 -0.0204435 0)
(1.40183 -0.0202289 0)
(1.40989 -0.0200047 0)
(1.41785 -0.0197722 0)
(1.42572 -0.0195325 0)
(1.4335 -0.0192867 0)
(1.44117 -0.0190359 0)
(1.44874 -0.0187811 0)
(1.4562 -0.0185233 0)
(1.46357 -0.0182632 0)
(1.47082 -0.0180019 0)
(1.47798 -0.0177399 0)
(1.48502 -0.017478 0)
(1.49196 -0.0172166 0)
(1.4988 -0.0169563 0)
(1.50553 -0.0166975 0)
(1.51216 -0.0164404 0)
(1.51868 -0.0161854 0)
(1.52511 -0.0159325 0)
(1.53143 -0.0156819 0)
(1.53765 -0.0154334 0)
(1.54378 -0.015187 0)
(1.5498 -0.0149426 0)
(1.55573 -0.0147 0)
(1.56156 -0.0144588 0)
(1.5673 -0.0142187 0)
(1.57294 -0.0139793 0)
(1.57849 -0.0137402 0)
(1.58394 -0.013501 0)
(1.58929 -0.013261 0)
(1.59455 -0.0130199 0)
(1.59972 -0.0127769 0)
(1.60478 -0.0125317 0)
(1.60975 -0.0122835 0)
(1.61462 -0.0120319 0)
(1.61939 -0.0117762 0)
(1.62405 -0.0115159 0)
(1.62861 -0.0112503 0)
(1.63306 -0.0109791 0)
(1.63741 -0.0107016 0)
(1.64164 -0.0104173 0)
(1.64576 -0.0101259 0)
(1.64976 -0.00982684 0)
(1.65363 -0.00951974 0)
(1.65739 -0.00920426 0)
(1.66102 -0.00888006 0)
(1.66451 -0.00854687 0)
(1.66787 -0.00820446 0)
(1.67109 -0.00785263 0)
(1.67417 -0.00749123 0)
(1.67711 -0.00712016 0)
(1.67989 -0.00673934 0)
(1.68252 -0.00634877 0)
(1.68499 -0.00594846 0)
(1.68729 -0.00553847 0)
(1.68944 -0.00511891 0)
(1.69141 -0.00468993 0)
(1.69321 -0.00425169 0)
(1.69483 -0.00380441 0)
(1.69627 -0.00334834 0)
(1.69752 -0.00288375 0)
(1.69859 -0.00241095 0)
(1.69946 -0.00193028 0)
(1.70015 -0.0014421 0)
(1.70063 -0.000946772 0)
(1.70092 -0.000444715 0)
(1.701 6.36547e-05 0)
(1.70087 0.000577899 0)
(1.70054 0.00109756 0)
(1.70001 0.00162219 0)
(1.69925 0.00215128 0)
(1.69829 0.00268436 0)
(1.69711 0.00322093 0)
(1.69572 0.00376048 0)
(1.69411 0.0043025 0)
(1.69228 0.00484646 0)
(1.69023 0.00539185 0)
(1.68796 0.00593813 0)
(1.68548 0.00648475 0)
(1.68277 0.0070312 0)
(1.67985 0.00757691 0)
(1.67671 0.00812134 0)
(1.67335 0.00866394 0)
(1.66977 0.00920415 0)
(1.66597 0.0097414 0)
(1.66196 0.0102751 0)
(1.65774 0.0108048 0)
(1.65331 0.0113297 0)
(1.64867 0.0118495 0)
(1.64381 0.0123634 0)
(1.63876 0.0128708 0)
(1.6335 0.0133712 0)
(1.62804 0.013864 0)
(1.62239 0.0143486 0)
(1.61654 0.0148243 0)
(1.61051 0.0152905 0)
(1.60429 0.0157467 0)
(1.59789 0.0161922 0)
(1.59131 0.0166264 0)
(1.58456 0.0170486 0)
(1.57764 0.0174584 0)
(1.57056 0.017855 0)
(1.56333 0.0182379 0)
(1.55594 0.0186065 0)
(1.54841 0.0189603 0)
(1.54074 0.0192986 0)
(1.53293 0.019621 0)
(1.525 0.019927 0)
(1.51695 0.020216 0)
(1.50879 0.0204876 0)
(1.50052 0.0207414 0)
(1.49216 0.020977 0)
(1.4837 0.021194 0)
(1.47516 0.0213922 0)
(1.46655 0.0215712 0)
(1.45786 0.0217308 0)
(1.44912 0.0218708 0)
(1.44032 0.0219912 0)
(1.43148 0.0220917 0)
(1.4226 0.0221724 0)
(1.4137 0.0222334 0)
(1.40477 0.0222746 0)
(1.39584 0.0222962 0)
(1.38689 0.0222983 0)
(1.37795 0.0222812 0)
(1.36903 0.0222452 0)
(1.36012 0.0221906 0)
(1.35123 0.0221178 0)
(1.34238 0.0220272 0)
(1.33357 0.0219192 0)
(1.32481 0.0217945 0)
(1.3161 0.0216534 0)
(1.30745 0.0214967 0)
(1.29887 0.0213249 0)
(1.29036 0.0211388 0)
(1.28192 0.0209389 0)
(1.27357 0.020726 0)
(1.26531 0.0205008 0)
(1.25714 0.020264 0)
(1.24907 0.0200165 0)
(1.2411 0.019759 0)
(1.23324 0.0194923 0)
(1.22549 0.0192171 0)
(1.21785 0.0189342 0)
(1.21032 0.0186444 0)
(1.20291 0.0183485 0)
(1.19563 0.0180473 0)
(1.18846 0.0177414 0)
(1.18142 0.0174317 0)
(1.1745 0.0171189 0)
(1.16771 0.0168036 0)
(1.16105 0.0164866 0)
(1.15451 0.0161686 0)
(1.14811 0.0158501 0)
(1.14183 0.0155318 0)
(1.13568 0.0152144 0)
(1.12965 0.0148983 0)
(1.12376 0.0145842 0)
(1.11798 0.0142725 0)
(1.11234 0.0139637 0)
(1.10681 0.0136584 0)
(1.10141 0.0133569 0)
(1.09613 0.0130597 0)
(1.09097 0.0127671 0)
(1.08592 0.0124795 0)
(1.08099 0.0121972 0)
(1.07617 0.0119206 0)
(1.07146 0.0116498 0)
(1.06686 0.0113853 0)
(1.06236 0.0111271 0)
(1.05796 0.0108755 0)
(1.05366 0.0106307 0)
(1.04947 0.0103927 0)
(1.04536 0.0101619 0)
(1.04134 0.00993821 0)
(1.03742 0.00972177 0)
(1.03358 0.00951266 0)
(1.02982 0.0093109 0)
(1.02614 0.00911655 0)
(1.02253 0.00892952 0)
(1.01902 0.00875012 0)
(1.01551 0.00857721 0)
(1.01224 0.00841431 0)
(1.0086 0.00825008 0)
(1.00606 0.00811958 0)
(1.00089 0.0079166 0)
(1.00001 -0.000282591 0)
(1.00017 -0.000848055 0)
(1.00048 -0.0014143 0)
(1.00097 -0.00198187 0)
(1.00161 -0.00255134 0)
(1.00242 -0.00312323 0)
(1.00339 -0.00369805 0)
(1.00453 -0.00427628 0)
(1.00583 -0.00485839 0)
(1.00729 -0.00544479 0)
(1.00893 -0.00603588 0)
(1.01073 -0.00663202 0)
(1.01271 -0.00723351 0)
(1.01486 -0.00784061 0)
(1.01718 -0.00845352 0)
(1.01968 -0.00907238 0)
(1.02235 -0.00969727 0)
(1.02521 -0.0103282 0)
(1.02824 -0.0109651 0)
(1.03146 -0.0116079 0)
(1.03487 -0.0122562 0)
(1.03846 -0.0129099 0)
(1.04224 -0.0135684 0)
(1.04621 -0.0142314 0)
(1.05037 -0.0148981 0)
(1.05472 -0.0155678 0)
(1.05926 -0.0162399 0)
(1.064 -0.0169133 0)
(1.06893 -0.017587 0)
(1.07406 -0.01826 0)
(1.07938 -0.018931 0)
(1.08489 -0.0195987 0)
(1.0906 -0.0202617 0)
(1.09649 -0.0209184 0)
(1.10258 -0.0215674 0)
(1.10885 -0.0222069 0)
(1.1153 -0.0228352 0)
(1.12194 -0.0234507 0)
(1.12875 -0.0240514 0)
(1.13573 -0.0246357 0)
(1.14288 -0.0252016 0)
(1.15019 -0.0257474 0)
(1.15765 -0.0262713 0)
(1.16527 -0.0267716 0)
(1.17302 -0.0272466 0)
(1.18091 -0.0276947 0)
(1.18893 -0.0281146 0)
(1.19706 -0.0285047 0)
(1.2053 -0.0288639 0)
(1.21364 -0.0291911 0)
(1.22207 -0.0294855 0)
(1.23058 -0.0297462 0)
(1.23916 -0.0299727 0)
(1.2478 -0.0301647 0)
(1.25649 -0.0303219 0)
(1.26523 -0.0304443 0)
(1.27399 -0.0305323 0)
(1.28277 -0.0305861 0)
(1.29156 -0.0306063 0)
(1.30035 -0.0305937 0)
(1.30913 -0.0305492 0)
(1.31789 -0.0304739 0)
(1.32663 -0.0303689 0)
(1.33533 -0.0302356 0)
(1.34398 -0.0300754 0)
(1.35258 -0.0298899 0)
(1.36113 -0.0296806 0)
(1.36961 -0.0294494 0)
(1.37802 -0.0291977 0)
(1.38635 -0.0289275 0)
(1.3946 -0.0286405 0)
(1.40277 -0.0283383 0)
(1.41084 -0.0280228 0)
(1.41882 -0.0276956 0)
(1.4267 -0.0273584 0)
(1.43448 -0.0270127 0)
(1.44217 -0.0266601 0)
(1.44974 -0.026302 0)
(1.45722 -0.0259397 0)
(1.46458 -0.0255745 0)
(1.47184 -0.0252076 0)
(1.479 -0.0248398 0)
(1.48605 -0.0244722 0)
(1.49299 -0.0241056 0)
(1.49983 -0.0237406 0)
(1.50656 -0.0233777 0)
(1.51319 -0.0230175 0)
(1.51972 -0.0226602 0)
(1.52614 -0.022306 0)
(1.53246 -0.021955 0)
(1.53869 -0.0216072 0)
(1.54481 -0.0212625 0)
(1.55084 -0.0209205 0)
(1.55677 -0.0205812 0)
(1.5626 -0.0202439 0)
(1.56834 -0.0199082 0)
(1.57398 -0.0195736 0)
(1.57953 -0.0192395 0)
(1.58498 -0.0189052 0)
(1.59034 -0.01857 0)
(1.59561 -0.0182331 0)
(1.60077 -0.0178937 0)
(1.60585 -0.0175511 0)
(1.61082 -0.0172044 0)
(1.61569 -0.0168528 0)
(1.62047 -0.0164956 0)
(1.62514 -0.0161318 0)
(1.62971 -0.0157608 0)
(1.63417 -0.0153817 0)
(1.63853 -0.0149938 0)
(1.64277 -0.0145964 0)
(1.6469 -0.014189 0)
(1.65091 -0.0137707 0)
(1.6548 -0.0133412 0)
(1.65856 -0.0128999 0)
(1.6622 -0.0124463 0)
(1.66571 -0.0119801 0)
(1.66908 -0.0115009 0)
(1.67232 -0.0110085 0)
(1.67541 -0.0105026 0)
(1.67835 -0.00998308 0)
(1.68115 -0.00944987 0)
(1.68379 -0.00890293 0)
(1.68627 -0.00834231 0)
(1.68859 -0.00776808 0)
(1.69075 -0.0071804 0)
(1.69273 -0.00657946 0)
(1.69454 -0.00596551 0)
(1.69617 -0.00533886 0)
(1.69762 -0.00469986 0)
(1.69889 -0.00404889 0)
(1.69996 -0.00338639 0)
(1.70085 -0.00271283 0)
(1.70154 -0.00202871 0)
(1.70203 -0.00133457 0)
(1.70232 -0.000630972 0)
(1.70241 8.14871e-05 0)
(1.7023 0.000802195 0)
(1.70197 0.00153051 0)
(1.70144 0.00226579 0)
(1.70069 0.00300734 0)
(1.69973 0.00375449 0)
(1.69855 0.00450653 0)
(1.69716 0.00526276 0)
(1.69555 0.00602245 0)
(1.69372 0.00678488 0)
(1.69168 0.0075493 0)
(1.68941 0.00831498 0)
(1.68692 0.00908116 0)
(1.68421 0.00984708 0)
(1.68129 0.010612 0)
(1.67814 0.0113751 0)
(1.67477 0.0121357 0)
(1.67119 0.0128929 0)
(1.66739 0.013646 0)
(1.66337 0.0143941 0)
(1.65914 0.0151366 0)
(1.6547 0.0158725 0)
(1.65005 0.0166011 0)
(1.64519 0.0173215 0)
(1.64012 0.0180329 0)
(1.63485 0.0187344 0)
(1.62938 0.0194253 0)
(1.62371 0.0201047 0)
(1.61785 0.0207716 0)
(1.6118 0.0214254 0)
(1.60556 0.022065 0)
(1.59914 0.0226896 0)
(1.59255 0.0232985 0)
(1.58578 0.0238906 0)
(1.57884 0.0244652 0)
(1.57174 0.0250214 0)
(1.56448 0.0255584 0)
(1.55707 0.0260753 0)
(1.54952 0.0265714 0)
(1.54182 0.027046 0)
(1.534 0.0274981 0)
(1.52604 0.0279272 0)
(1.51797 0.0283325 0)
(1.50978 0.0287135 0)
(1.50149 0.0290694 0)
(1.49309 0.0293998 0)
(1.48461 0.0297041 0)
(1.47604 0.0299819 0)
(1.4674 0.0302329 0)
(1.45868 0.0304567 0)
(1.44991 0.0306529 0)
(1.44108 0.0308216 0)
(1.43222 0.0309624 0)
(1.42331 0.0310754 0)
(1.41437 0.0311607 0)
(1.40542 0.0312182 0)
(1.39645 0.0312482 0)
(1.38748 0.0312508 0)
(1.37852 0.0312266 0)
(1.36956 0.0311757 0)
(1.36062 0.0310987 0)
(1.35171 0.0309962 0)
(1.34283 0.0308686 0)
(1.334 0.0307167 0)
(1.32521 0.0305412 0)
(1.31647 0.0303429 0)
(1.3078 0.0301226 0)
(1.2992 0.0298812 0)
(1.29066 0.0296195 0)
(1.28221 0.0293386 0)
(1.27384 0.0290395 0)
(1.26556 0.0287231 0)
(1.25737 0.0283906 0)
(1.24928 0.028043 0)
(1.2413 0.0276813 0)
(1.23342 0.0273067 0)
(1.22565 0.0269202 0)
(1.218 0.026523 0)
(1.21046 0.0261162 0)
(1.20304 0.0257008 0)
(1.19574 0.0252779 0)
(1.18857 0.0248486 0)
(1.18152 0.0244139 0)
(1.17459 0.0239749 0)
(1.1678 0.0235324 0)
(1.16113 0.0230876 0)
(1.15459 0.0226414 0)
(1.14818 0.0221946 0)
(1.14189 0.0217481 0)
(1.13574 0.0213027 0)
(1.12971 0.0208594 0)
(1.12382 0.0204188 0)
(1.11804 0.0199816 0)
(1.1124 0.0195486 0)
(1.10687 0.0191205 0)
(1.10147 0.0186977 0)
(1.0962 0.0182809 0)
(1.09103 0.0178707 0)
(1.08599 0.0174676 0)
(1.08106 0.0170719 0)
(1.07625 0.0166841 0)
(1.07154 0.0163047 0)
(1.06694 0.0159339 0)
(1.06245 0.0155721 0)
(1.05806 0.0152195 0)
(1.05377 0.0148765 0)
(1.04957 0.0145431 0)
(1.04547 0.0142197 0)
(1.04146 0.0139064 0)
(1.03754 0.0136032 0)
(1.03371 0.0133103 0)
(1.02995 0.0130277 0)
(1.02628 0.0127556 0)
(1.02268 0.0124937 0)
(1.01918 0.0122426 0)
(1.01567 0.0120004 0)
(1.01241 0.011773 0)
(1.00878 0.0115425 0)
(1.00624 0.0113614 0)
(1.00109 0.0110748 0)
(1.00001 -0.00036293 0)
(1.00017 -0.00108915 0)
(1.00048 -0.0018164 0)
(1.00096 -0.00254538 0)
(1.00161 -0.00327682 0)
(1.00241 -0.0040114 0)
(1.00338 -0.0047498 0)
(1.00451 -0.00549262 0)
(1.00581 -0.00624048 0)
(1.00727 -0.00699392 0)
(1.0089 -0.00775347 0)
(1.0107 -0.00851958 0)
(1.01267 -0.00929265 0)
(1.01481 -0.010073 0)
(1.01713 -0.010861 0)
(1.01962 -0.0116567 0)
(1.02229 -0.0124603 0)
(1.02514 -0.0132718 0)
(1.02818 -0.0140911 0)
(1.03139 -0.0149181 0)
(1.03479 -0.0157524 0)
(1.03838 -0.0165937 0)
(1.04215 -0.0174415 0)
(1.04612 -0.018295 0)
(1.05028 -0.0191536 0)
(1.05463 -0.0200163 0)
(1.05918 -0.0208821 0)
(1.06392 -0.0217498 0)
(1.06885 -0.0226182 0)
(1.07398 -0.0234857 0)
(1.07931 -0.0243509 0)
(1.08483 -0.0252119 0)
(1.09055 -0.026067 0)
(1.09645 -0.0269143 0)
(1.10255 -0.0277516 0)
(1.10884 -0.0285769 0)
(1.11531 -0.029388 0)
(1.12196 -0.0301825 0)
(1.1288 -0.0309581 0)
(1.1358 -0.0317125 0)
(1.14298 -0.0324434 0)
(1.15032 -0.0331483 0)
(1.15781 -0.0338249 0)
(1.16546 -0.0344711 0)
(1.17325 -0.0350846 0)
(1.18117 -0.0356634 0)
(1.18923 -0.0362056 0)
(1.1974 -0.0367093 0)
(1.20568 -0.0371731 0)
(1.21406 -0.0375954 0)
(1.22254 -0.0379752 0)
(1.23109 -0.0383114 0)
(1.23972 -0.0386034 0)
(1.24841 -0.0388505 0)
(1.25714 -0.0390527 0)
(1.26592 -0.0392098 0)
(1.27472 -0.0393222 0)
(1.28355 -0.0393904 0)
(1.29238 -0.0394152 0)
(1.30122 -0.0393974 0)
(1.31004 -0.0393384 0)
(1.31884 -0.0392394 0)
(1.32761 -0.0391022 0)
(1.33635 -0.0389283 0)
(1.34504 -0.0387197 0)
(1.35368 -0.0384784 0)
(1.36225 -0.0382065 0)
(1.37076 -0.0379062 0)
(1.3792 -0.0375796 0)
(1.38756 -0.0372291 0)
(1.39583 -0.036857 0)
(1.40402 -0.0364655 0)
(1.41211 -0.0360569 0)
(1.42011 -0.0356333 0)
(1.428 -0.0351969 0)
(1.4358 -0.0347498 0)
(1.44349 -0.0342939 0)
(1.45108 -0.0338311 0)
(1.45856 -0.0333631 0)
(1.46594 -0.0328916 0)
(1.47321 -0.0324179 0)
(1.48037 -0.0319434 0)
(1.48742 -0.0314693 0)
(1.49436 -0.0309967 0)
(1.5012 -0.0305263 0)
(1.50794 -0.030059 0)
(1.51457 -0.0295952 0)
(1.52109 -0.0291353 0)
(1.52752 -0.0286797 0)
(1.53384 -0.0282283 0)
(1.54006 -0.0277813 0)
(1.54619 -0.0273383 0)
(1.55222 -0.0268991 0)
(1.55815 -0.0264633 0)
(1.56398 -0.0260304 0)
(1.56972 -0.0255997 0)
(1.57537 -0.0251705 0)
(1.58092 -0.0247419 0)
(1.58637 -0.0243132 0)
(1.59174 -0.0238833 0)
(1.59701 -0.0234514 0)
(1.60218 -0.0230163 0)
(1.60726 -0.0225771 0)
(1.61224 -0.0221327 0)
(1.61712 -0.0216819 0)
(1.62191 -0.0212238 0)
(1.62659 -0.0207574 0)
(1.63117 -0.0202815 0)
(1.63565 -0.0197952 0)
(1.64001 -0.0192976 0)
(1.64427 -0.0187877 0)
(1.64841 -0.0182647 0)
(1.65244 -0.0177278 0)
(1.65634 -0.0171763 0)
(1.66012 -0.0166095 0)
(1.66378 -0.0160269 0)
(1.6673 -0.0154279 0)
(1.67069 -0.0148121 0)
(1.67394 -0.0141791 0)
(1.67705 -0.0135288 0)
(1.68002 -0.0128608 0)
(1.68283 -0.0121752 0)
(1.68549 -0.0114717 0)
(1.68799 -0.0107506 0)
(1.69032 -0.0100119 0)
(1.69249 -0.00925576 0)
(1.69449 -0.0084825 0)
(1.69632 -0.00769244 0)
(1.69796 -0.00688596 0)
(1.69943 -0.00606352 0)
(1.70071 -0.00522562 0)
(1.7018 -0.00437282 0)
(1.70269 -0.00350574 0)
(1.70339 -0.00262503 0)
(1.7039 -0.00173138 0)
(1.7042 -0.000825521 0)
(1.7043 9.1775e-05 0)
(1.70419 0.00101971 0)
(1.70387 0.00195747 0)
(1.70334 0.0029042 0)
(1.7026 0.00385904 0)
(1.70165 0.00482109 0)
(1.70048 0.00578946 0)
(1.69909 0.00676322 0)
(1.69748 0.00774146 0)
(1.69565 0.00872322 0)
(1.6936 0.00970757 0)
(1.69133 0.0106935 0)
(1.68884 0.0116802 0)
(1.68613 0.0126665 0)
(1.6832 0.0136515 0)
(1.68005 0.0146342 0)
(1.67668 0.0156136 0)
(1.67308 0.0165888 0)
(1.66927 0.0175587 0)
(1.66525 0.0185222 0)
(1.66101 0.0194784 0)
(1.65655 0.0204262 0)
(1.65189 0.0213646 0)
(1.64701 0.0222924 0)
(1.64193 0.0232087 0)
(1.63664 0.0241124 0)
(1.63115 0.0250024 0)
(1.62547 0.0258775 0)
(1.61959 0.0267367 0)
(1.61352 0.0275789 0)
(1.60726 0.028403 0)
(1.60082 0.0292078 0)
(1.59419 0.0299922 0)
(1.5874 0.0307552 0)
(1.58044 0.0314955 0)
(1.57331 0.0322122 0)
(1.56602 0.0329042 0)
(1.55859 0.0335704 0)
(1.551 0.0342097 0)
(1.54328 0.0348212 0)
(1.53542 0.035404 0)
(1.52743 0.0359569 0)
(1.51932 0.0364793 0)
(1.51109 0.0369702 0)
(1.50276 0.0374289 0)
(1.49434 0.0378546 0)
(1.48581 0.0382468 0)
(1.47721 0.0386047 0)
(1.46853 0.038928 0)
(1.45978 0.0392162 0)
(1.45096 0.0394689 0)
(1.4421 0.039686 0)
(1.43319 0.0398672 0)
(1.42425 0.0400125 0)
(1.41527 0.040122 0)
(1.40628 0.0401956 0)
(1.39727 0.0402338 0)
(1.38827 0.0402367 0)
(1.37926 0.0402048 0)
(1.37027 0.0401386 0)
(1.36129 0.0400387 0)
(1.35235 0.0399058 0)
(1.34343 0.0397406 0)
(1.33456 0.039544 0)
(1.32574 0.039317 0)
(1.31697 0.0390606 0)
(1.30827 0.0387758 0)
(1.29963 0.0384637 0)
(1.29107 0.0381256 0)
(1.28259 0.0377626 0)
(1.27419 0.0373762 0)
(1.26588 0.0369676 0)
(1.25767 0.0365381 0)
(1.24956 0.0360891 0)
(1.24155 0.0356221 0)
(1.23365 0.0351385 0)
(1.22587 0.0346396 0)
(1.21819 0.034127 0)
(1.21064 0.0336019 0)
(1.2032 0.0330658 0)
(1.19589 0.0325202 0)
(1.18871 0.0319663 0)
(1.18164 0.0314055 0)
(1.17471 0.0308392 0)
(1.1679 0.0302686 0)
(1.16123 0.0296949 0)
(1.15468 0.0291194 0)
(1.14826 0.0285433 0)
(1.14198 0.0279677 0)
(1.13582 0.0273936 0)
(1.12979 0.0268221 0)
(1.12389 0.0262542 0)
(1.11812 0.0256908 0)
(1.11248 0.0251329 0)
(1.10695 0.0245811 0)
(1.10156 0.0240365 0)
(1.09628 0.0234996 0)
(1.09112 0.0229712 0)
(1.08608 0.0224519 0)
(1.08116 0.0219423 0)
(1.07635 0.0214429 0)
(1.07165 0.0209543 0)
(1.06705 0.0204769 0)
(1.06257 0.0200111 0)
(1.05818 0.0195573 0)
(1.0539 0.0191157 0)
(1.04971 0.0186867 0)
(1.04562 0.0182705 0)
(1.04162 0.0178673 0)
(1.03771 0.0174773 0)
(1.03388 0.0171005 0)
(1.03014 0.016737 0)
(1.02648 0.016387 0)
(1.02288 0.0160502 0)
(1.01939 0.0157274 0)