/*--------------------------------*- C++ -*----------------------------------*\
| =========                 |                                                 |
| \\      /  F ield         | OpenFOAM: The Open Source CFD Toolbox           |
|  \\    /   O peration     | Version:  2312                                  |
|   \\  /    A nd           | Website:  www.openfoam.com                      |
|    \\/     M anipulation  |                                                 |
\*---------------------------------------------------------------------------*/
FoamFile
{
    version     2.0;
    format      ascii;
    arch        "LSB;label=32;scalar=64";
    class       volScalarField;
    location    "0.09";
    object      G;
}
// * * * * * * * * * * * * * * * * * * * * * * * * * * * * * * * * * * * * * //

dimensions      [1 0 -3 0 0 0 0];

internalField   nonuniform List<scalar> 
900
(
99094.7
118478
124958
128207
130367
132017
133333
134402
135275
135984
136551
136990
137312
137523
137628
137628
137523
137312
136990
136551
135984
135275
134402
133333
132017
130367
128207
124958
118478
99094.6
77520.7
96521.7
106949
113051
116952
119711
121784
123397
124672
125682
126473
127077
127514
127799
127939
127939
127799
127514
127077
126473
125682
124672
123397
121784
119711
116952
113051
106949
96521.6
77520.6
69179.5
83920.2
94214.9
101409
106420
110051
112779
114888
116541
117842
118856
119626
120182
120543
120721
120721
120543
120182
119626
118856
117842
116541
114888
112779
110050
106420
101409
94214.9
83920.2
69179.5
63940.3
75636.7
84704.5
91831.2
97221.6
101322
104482
106949
108891
110420
111611
112515
113168
113592
113800
113800
113592
113168
112516
111611
110420
108891
106949
104482
101323
97221.7
91831.4
84704.8
75636.8
63940.3
59929.1
69612.7
77448.7
84044.8
89353.8
93586.4
96952.2
99634.2
101771
103464
104788
105794
106521
106993
107225
107225
106993
106521
105794
104788
103464
101771
99634.2
96952.2
93586.3
89353.7
84044.4
77448.3
69612.7
59929.1
56431.9
64752.8
71559.4
77530.6
82551
86707.4
90112.5
92887
95133.9
96935.3
98354.4
99439
100224
100735
100987
100987
100735
100224
99439
98354.4
96935.2
95133.8
92887
90112.5
86707.5
82551.3
77530.6
71558.8
64752.2
56432
53337.4
60647.3
66628.8
72007.9
76667.1
80635.8
83967.6
86736.1
89013.1
90861.4
92331.6
93463.6
94287.4
94824.8
95090
95090
94824.8
94287.3
93463.6
92331.6
90861.3
89013
86736
83967.6
80635.9
76667.7
72008.8
66628.7
60646.5
53337.5
50527
57058.3
62372.9
67221.7
71506.1
75233.1
78424.2
81120.1
83367.1
85210.7
86690.6
87838.6
88679
89229.6
89502.1
89502.1
89229.6
88679
87838.5
86690.6
85210.6
83366.9
81119.9
78423.9
75232.8
71506.4
67222.7
62373.3
57057.6
50527.1
47928.9
53824.8
58591.8
62976.7
66903.9
70371.6
73387.5
75971.9
78151.3
79956
81415.2
82553.9
83391.7
83942.6
84215.8
84215.8
83942.6
83391.7
82553.9
81415.2
79955.9
78151.2
75971.7
73387.1
70371
66903.8
62977.4
58592.2
53824.4
47928.9
45496.5
50859.6
55168.8
59150.8
62751.4
65962.9
68788.6
71238.6
73326
75068.8
76486.7
77598
78418.3
78958.9
79227.4
79227.4
78958.9
78418.3
77598
76486.7
75068.8
73326
71238.5
68788.3
65962.4
62751
59151.1
55169.2
50859.3
45496.6
43207.5
48117.6
52036.7
55665.3
58970.2
61938.3
64570.8
66873.8
68853
70518
71880.3
72952.5
73745.9
74269.7
74530
74530
74269.7
73745.9
72952.5
71880.3
70518
68853
66873.8
64570.6
61937.8
58969.8
55665.4
52036.9
48117.4
43207.6
41047
45563.7
49144.9
52459.9
55497.2
58238.2
60682.6
62835
64697.3
66274.2
67571.7
68597.4
69358.5
69861.9
70112.3
70112.3
69861.9
69358.5
68597.4
67571.8
66274.2
64697.4
62835
60682.6
58237.9
55496.9
52460
49145
45563.6
41047
38998.2
43167.9
46454
49489
52283.7
54815
57081.1
59085.7
60828.8
62312.3
63539.4
64513.5
65238.8
65719.6
65959.1
65959.1
65719.6
65238.8
64513.5
63539.4
62312.4
60828.8
59085.7
57081.1
54814.8
52283.5
49489
46454.1
43167.9
38998.2
37048.4
40909.3
43935.7
46719.4
49294
51632.3
53731.2
55594.4
57220.4
58609.5
59763
60682.3
61369.2
61825.5
62053.1
62053.1
61825.5
61369.2
60682.3
59763
58609.5
57220.4
55594.4
53731.2
51632.2
49293.9
46719.4
43935.7
40909.2
37048.3
35189.6
38772.8
41569
44126.1
46500.2
48661.3
50604.2
52333.7
53847.1
55143.3
56222.8
57085.7
57732.1
58162.5
58377.6
58377.6
58162.6
57732.1
57085.7
56222.8
55143.4
53847.1
52333.7
50604.2
48661.2
46500.1
44126.1
41569
38772.8
35189.6
33415.7
36746.5
39336.9
41688.5
43879.7
45877.8
47675.8
49279.6
50686
51892.6
52899.3
53705.5
54310.8
54714.5
54916.5
54916.5
54714.5
54310.8
53705.5
52899.3
51892.7
50686
49279.6
47675.8
45877.8
43879.6
41688.5
39337
36746.4
33415.7
31720.1
34819.6
37225.3
39389.8
41413.4
43261.9
44925.1
46411
47716.3
48837.6
49773.9
50524.7
51089
51465.9
51654.6
51654.6
51465.9
51089
50524.7
49774
48837.6
47716.3
46411
44925.1
43261.9
41413.3
39389.8
37225.3
34819.6
31720.1
30097.1
32983.7
35222.4
37216
39085.4
40796.2
42334.4
43709.7
44919.7
45960.1
46829.5
47526.9
48051.3
48401.8
48577.3
48577.3
48401.8
48051.3
47526.9
46829.5
45960.1
44919.7
43709.7
42334.4
40796.2
39085.3
37215.9
35222.4
32983.7
30097.1
28542.1
31231.3
33318.1
35154.8
36881.7
38465.6
39887.7
41159.3
42279.8
43243.9
44049.9
44696.6
45182.8
45507.7
45670.4
45670.4
45507.7
45182.8
44696.5
44049.9
43243.9
42279.8
41159.3
39887.6
38465.6
36881.7
35154.8
33318.1
31231.3
28542.1
27050.6
29555.8
31503.6
33195.6
34790
36256.6
37570.8
38745.5
39781.8
40674.2
41420.3
42019
42469.1
42769.6
42919.9
42919.9
42769.6
42469.1
42019
41420.3
40674.2
39781.8
38745.5
37570.8
36256.6
34790
33195.6
31503.6
29555.7
27050.6
25618.2
27950.7
29770.5
31328.7
32799.4
34157
35371.1
36455.1
37412.3
38237.2
38926.9
39480.4
39896.3
40173.9
40312.7
40312.7
40173.9
39896.3
39480.4
38926.9
38237.2
37412.3
36455.1
35371.1
34157
32799.4
31328.7
29770.5
27950.6
25618.2
24240.6
26410.1
28111.4
29545.2
30899.7
32155.8
33276.8
34275.7
35158.6
35919.9
36556.4
37067.2
37451.2
37707.4
37835.4
37835.4
37707.4
37451.2
37067.2
36556.4
35919.9
35158.6
34275.7
33276.8
32155.8
30899.7
29545.2
28111.3
26410.1
24240.6
22913.6
24928.4
26519
27836.8
29081.7
30242.6
31276.6
32195.6
33008.6
33710.1
34296.4
34766.9
35120.9
35357.1
35475.2
35475.2
35357.1
35120.9
34766.9
34296.4
33710.1
33008.6
32195.6
31276.6
30242.6
29081.7
27836.8
26518.9
24928.4
22913.6
21632.9
23500
24986.2
26195.2
27336
28407.1
29359.7
30203.4
30950.1
31595.2
32134.2
32566.7
32892.4
33110
33218.8
33218.8
33110
32892.4
32566.7
32134.2
31595.2
30950.1
30203.4
29359.7
28407.1
27336
26195.2
24986.2
23500
21632.9
20393.9
22118.9
23505.8
24612.1
25653.4
26639.2
27515.1
28287.6
28971.6
29563.4
30057.8
30454.4
30753.4
30953.4
31053.5
31053.5
30953.4
30753.4
30454.4
30057.8
29563.4
28971.6
28287.6
27515.1
26639.2
25653.4
24612.1
23505.8
22118.9
20393.9
19189.6
20776.1
22067
23075.5
24020.7
24924.6
25728
26432.9
27057.1
27598.5
28050.7
28413.3
28686.9
28870.1
28961.9
28961.9
28870.1
28686.9
28413.3
28050.7
27598.5
27057.1
26432.9
25728
24924.6
24020.7
23075.5
22067
20776.1
19189.6
18022.7
19472.7
20669.2
21583.3
22435.4
23260.1
23994.5
24635.1
25202.2
25695.7
26108.1
26438.4
26687.7
26854.9
26938.7
26938.7
26854.9
26687.7
26438.4
26108.1
25695.7
25202.2
24635.1
23994.5
23260.1
22435.4
21583.3
20669.2
19472.7
18022.7
16851.8
18160.3
19259.6
20079.9
20838.6
21584.2
22251.1
22828.9
23339.7
23786
24159.6
24458.4
24683.7
24835
24910.9
24910.9
24835
24683.7
24458.4
24159.6
23786
23339.7
22828.9
22251.1
21584.2
20838.6
20079.9
19259.6
18160.3
16851.8
15796.3
16966.2
17971.1
18704.7
19379.2
20053.7
20660.6
21183
21644.1
22049.1
22388.6
22659.6
22863.8
23001.1
23070.1
23070.1
23001.1
22863.8
22659.6
22388.6
22049.1
21644.1
21183
20660.6
20053.7
19379.1
18704.7
17971.1
16966.2
15796.3
14159.3
15115.6
15984.2
16599.1
17152.5
17723.1
18245.6
18690.1
19078.8
19422.9
19713.5
19944.4
20117.5
20234.2
20293.3
20293.3
20234.2
20117.5
19944.4
19713.5
19422.9
19078.8
18690.1
18245.6
17723.1
17152.5
16599.1
15984.2
15115.6
14159.3
)
;

boundaryField
{
    fixedWall_Bottom
    {
        type            calculated;
        value           nonuniform List<scalar> 
30
(
129168
131785
133463
134887
136074
137090
137958
138700
139327
139851
140279
140615
140865
141029
141111
141111
141029
140865
140615
140279
139851
139327
138700
137958
137090
136074
134887
133463
131785
129167
)
;
    }
    fixedWall_Right
    {
        type            calculated;
        value           nonuniform List<scalar> 
30
(
69701.7
64673.3
61168.4
58040.8
55208.6
52492.9
49938
47547.4
45282.2
43118.4
41053.8
39085.1
37203.1
35400.4
33672.7
32016.5
30427.6
28901.9
27436.1
26026.8
24670.6
23363.9
22103.4
20885.4
19705.9
18558.9
17447.9
16334.4
15338.8
13803.6
)
;
    }
    fixedWall_Left
    {
        type            calculated;
        value           nonuniform List<scalar> 
30
(
69701.7
64673.3
61168.4
58040.8
55208.6
52493
49938.1
47547.4
45282.3
43118.5
41053.8
39085.1
37203.2
35400.4
33672.7
32016.6
30427.6
28901.9
27436.1
26026.8
24670.6
23363.9
22103.4
20885.4
19706
18558.9
17447.9
16334.4
15338.8
13803.6
)
;
    }
    fixedWall_Top
    {
        type            calculated;
        value           nonuniform List<scalar> 
30
(
13867.9
14755
15585.1
16172.2
16703
17253.6
17758.6
18188
18563.8
18896.8
19178.2
19401.8
19569.5
19682.5
19739.8
19739.8
19682.5
19569.5
19401.8
19178.2
18896.8
18563.8
18188
17758.6
17253.5
16703
16172.2
15585.1
14755
13868
)
;
    }
    frontAndBack
    {
        type            empty;
    }
}


// ************************************************************************* //
