/*--------------------------------*- C++ -*----------------------------------*\
| =========                 |                                                 |
| \\      /  F ield         | OpenFOAM: The Open Source CFD Toolbox           |
|  \\    /   O peration     | Version:  2312                                  |
|   \\  /    A nd           | Website:  www.openfoam.com                      |
|    \\/     M anipulation  |                                                 |
\*---------------------------------------------------------------------------*/
FoamFile
{
    version     2.0;
    format      ascii;
    arch        "LSB;label=32;scalar=64";
    class       volScalarField;
    location    "0.09";
    object      qin;
}
// * * * * * * * * * * * * * * * * * * * * * * * * * * * * * * * * * * * * * //

dimensions      [1 0 -3 0 0 0 0];

internalField   uniform 0;

boundaryField
{
    fixedWall_Bottom
    {
        type            calculated;
        value           nonuniform List<scalar> 
30
(
7015.79
8606.33
9588.81
10395.5
11055.2
11610.9
12079.8
12475.8
12808.5
13084.3
13308
13483.2
13612.5
13697.8
13740.1
13740.1
13697.8
13612.5
13483.2
13308
13084.3
12808.5
12475.8
12079.8
11610.9
11055.1
10395.5
9588.8
8606.3
7015.77
)
;
    }
    fixedWall_Right
    {
        type            calculated;
        value           nonuniform List<scalar> 
30
(
35567.8
32511.2
30382.1
28567.3
26946.2
25396
23950.9
22616.7
21364.5
20176.5
19052.1
17989.7
16982.7
16025.7
15116.1
14251.3
13428.4
12644.5
11897
11183.6
10501.7
9848.66
9221.94
8618.79
8036.1
7469.71
6919.94
6368
5858.7
5092.46
)
;
    }
    fixedWall_Left
    {
        type            calculated;
        value           nonuniform List<scalar> 
30
(
35567.9
32511.2
30382.1
28567.3
26946.2
25396
23950.9
22616.7
21364.5
20176.5
19052.2
17989.7
16982.7
16025.7
15116.1
14251.3
13428.4
12644.5
11897
11183.6
10501.7
9848.67
9221.95
8618.8
8036.11
7469.72
6919.95
6368.01
5858.7
5092.46
)
;
    }
    fixedWall_Top
    {
        type            calculated;
        value           nonuniform List<scalar> 
30
(
8862.17
9563.64
10197.5
10648.6
11055.5
11479.7
11869.7
12201.3
12491.8
12749.5
12967.5
13140.8
13270.7
13358.4
13402.8
13402.8
13358.4
13270.7
13140.8
12967.5
12749.5
12491.8
12201.3
11869.7
11479.7
11055.5
10648.6
10197.5
9563.64
8862.17
)
;
    }
    frontAndBack
    {
        type            empty;
    }
}


// ************************************************************************* //
