/*--------------------------------*- C++ -*----------------------------------*\
| =========                 |                                                 |
| \\      /  F ield         | OpenFOAM: The Open Source CFD Toolbox           |
|  \\    /   O peration     | Version:  2312                                  |
|   \\  /    A nd           | Website:  www.openfoam.com                      |
|    \\/     M anipulation  |                                                 |
\*---------------------------------------------------------------------------*/
FoamFile
{
    version     2.0;
    format      ascii;
    arch        "LSB;label=32;scalar=64";
    class       volScalarField;
    location    "0.09";
    object      qr;
}
// * * * * * * * * * * * * * * * * * * * * * * * * * * * * * * * * * * * * * //

dimensions      [1 0 -3 0 0 0 0];

internalField   uniform 0;

boundaryField
{
    fixedWall_Bottom
    {
        type            calculated;
        value           nonuniform List<scalar> 
30
(
-49688.3
-48097.8
-47115.3
-46308.6
-45648.9
-45093.2
-44624.3
-44228.2
-43895.6
-43619.8
-43396.1
-43220.9
-43091.6
-43006.3
-42964
-42964
-43006.3
-43091.6
-43220.9
-43396.1
-43619.8
-43895.6
-44228.3
-44624.3
-45093.2
-45648.9
-46308.6
-47115.3
-48097.8
-49688.3
)
;
    }
    fixedWall_Right
    {
        type            calculated;
        value           nonuniform List<scalar> 
30
(
35567.8
32511.2
30382.1
28567.3
26946.2
25396
23950.9
22616.7
21364.5
20176.5
19052.1
17989.7
16982.7
16025.7
15116.1
14251.3
13428.4
12644.5
11897
11183.6
10501.7
9848.66
9221.94
8618.79
8036.1
7469.71
6919.94
6368
5858.7
5092.46
)
;
    }
    fixedWall_Left
    {
        type            calculated;
        value           nonuniform List<scalar> 
30
(
35567.9
32511.2
30382.1
28567.3
26946.2
25396
23950.9
22616.7
21364.5
20176.5
19052.2
17989.7
16982.7
16025.7
15116.1
14251.3
13428.4
12644.5
11897
11183.6
10501.7
9848.67
9221.95
8618.8
8036.11
7469.72
6919.95
6368.01
5858.7
5092.46
)
;
    }
    fixedWall_Top
    {
        type            calculated;
        value           nonuniform List<scalar> 
30
(
8862.17
9563.64
10197.5
10648.6
11055.5
11479.7
11869.7
12201.3
12491.8
12749.5
12967.5
13140.8
13270.7
13358.4
13402.8
13402.8
13358.4
13270.7
13140.8
12967.5
12749.5
12491.8
12201.3
11869.7
11479.7
11055.5
10648.6
10197.5
9563.64
8862.17
)
;
    }
    frontAndBack
    {
        type            empty;
    }
}


// ************************************************************************* //
