/*--------------------------------*- C++ -*----------------------------------*\
| =========                 |                                                 |
| \\      /  F ield         | OpenFOAM: The Open Source CFD Toolbox           |
|  \\    /   O peration     | Version:  2312                                  |
|   \\  /    A nd           | Website:  www.openfoam.com                      |
|    \\/     M anipulation  |                                                 |
\*---------------------------------------------------------------------------*/
FoamFile
{
    version     2.0;
    format      ascii;
    arch        "LSB;label=32;scalar=64";
    class       volScalarField;
    location    "0.06";
    object      G;
}
// * * * * * * * * * * * * * * * * * * * * * * * * * * * * * * * * * * * * * //

dimensions      [1 0 -3 0 0 0 0];

internalField   nonuniform List<scalar> 
900
(
98366.2
117738
124200
127440
129591
131232
132541
133605
134473
135178
135741
136177
136497
136707
136811
136811
136707
136497
136177
135741
135178
134473
133605
132541
131232
129591
127440
124200
117738
98366.1
76775.8
95759.7
106166
112255
116144
118893
120958
122564
123832
124837
125624
126224
126659
126942
127081
127081
126942
126659
126224
125624
124837
123832
122564
120957
118893
116144
112254
106166
95759.6
76775.7
68418.4
83139
93410.3
100589
105585
109205
111924
114024
115670
116965
117974
118740
119293
119653
119829
119829
119653
119293
118740
117974
116965
115670
114024
111923
109204
105585
100589
93410.2
83139
68418.3
63167.2
74841.4
83883
90992.3
96367.2
100455
103603
106060
107994
109516
110702
111602
112251
112673
112880
112880
112673
112251
111602
110702
109516
107994
106060
103603
100455
96367.3
90992.4
83883
74841.4
63167.2
59146
68804.6
76613.1
83190.1
88482.2
92700.3
96053.8
98725.2
100853
102538
103856
104857
105580
106050
106281
106281
106050
105580
104857
103856
102538
100853
98725.1
96053.7
92700.2
88482.2
83190.2
76613.2
68804.7
59145.9
55640.3
63933.7
70712.3
76663.1
81665.3
85806
89197.7
91960.7
94197.8
95991
97403.4
98482.6
99264
99772
100022
100022
99771.9
99263.9
98482.6
97403.3
95990.9
94197.7
91960.5
89197.4
85805.8
81665.1
76662.9
70712.1
63933.7
55640.2
52540.4
59820.5
65772.6
71130.2
75770.1
79722.2
83039.7
85795.8
88062.2
89901.6
91364.6
92490.8
93310.2
93844.8
94108.5
94108.5
93844.7
93310.2
92490.8
91364.6
89901.6
88062.1
85795.7
83039.6
79722.1
75770
71130.1
65772.3
59820.6
52540.4
49725.3
56226.1
61510.2
66336.2
70600.3
74309.9
77485.9
80168.6
82404.2
84238.4
85710.4
86852.2
87688
88235.5
88506.4
88506.4
88235.5
87688
86852.2
85710.4
84238.4
82404.2
80168.6
77485.8
74309.8
70600.4
66336.3
61510
56226.2
49725.2
47123.8
52989
57724.6
62085.7
65991.6
69441
72441
75011.6
77179
78973.6
80424.5
81556.6
82389.5
82937.3
83208.9
83208.9
82937.3
82389.6
81556.7
80424.5
78973.6
77179
75011.6
72440.9
69440.9
65991.7
62085.8
57724.5
52989
47123.8
44690.1
50021.6
54298.9
58256.1
61834.5
65027
67836.1
70271.7
72346.7
74078.9
75488.1
76592.6
77407.8
77945.1
78212
78212
77945.1
77407.8
76592.6
75488.1
74078.9
72346.6
70271.6
67836
65026.9
61834.5
58256.2
54298.9
50021.5
44690
42401
47278.6
51165.4
54768.7
58050.7
60999
63614.4
65902.6
67869
69523.2
70876.6
71941.6
72729.6
73249.9
73508.5
73508.4
73249.9
72729.6
71941.5
70876.5
69523.1
67869
65902.5
63614.3
60998.9
58050.6
54768.7
51165.4
47278.6
42400.9
40241.5
44725.1
48273.7
51563.1
54577
57297.8
59724.6
61861.7
63711
65276.8
66565.1
67583.3
68338.8
68838.4
69087
69087
68838.4
68338.8
67583.3
66565.1
65276.8
63711
61861.7
59724.6
57297.7
54576.9
51563
48273.6
44725
40241.4
38194.9
42331.1
45584.3
48593.5
51364.8
53875.5
56123.6
58112.5
59842.2
61314.4
62532
63498.5
64218
64694.9
64932.4
64932.4
64694.9
64218
63498.4
62532
61314.4
59842.2
58112.5
56123.6
53875.5
51364.7
48593.5
45584.3
42331.1
38194.9
36248.4
40075.7
43069.1
45826.9
48377.9
50695.6
52776.1
54623.3
56235.4
57612.9
58756.8
59668.5
60349.5
60801.9
61027.6
61027.6
60801.9
60349.5
59668.4
58756.8
57612.9
56235.4
54623.3
52776.1
50695.5
48377.8
45826.8
43069.1
40075.6
36248.4
34394.2
37943.8
40706.8
43237.8
45588.3
47728.5
49653
51366.3
52865.6
54150
55219.8
56075
56715.7
57142.3
57355.5
57355.5
57142.3
56715.7
56074.9
55219.7
54150
52865.6
51366.3
49653
47728.5
45588.3
43237.7
40706.8
37943.8
34394.1
32625.5
35923
38480.1
40805.6
42973
44950.3
46729.8
48317.4
49709.7
50904.5
51901.4
52700
53299.7
53699.7
53899.9
53899.9
53699.7
53299.7
52700
51901.4
50904.5
49709.7
48317.4
46729.8
44950.3
42973
40805.5
38480.1
35922.9
32625.5
30935.8
34002.3
36374.6
38513.1
40513.1
42340.9
43985.9
45455.7
46747.1
47856.6
48783.3
49526.4
50085.2
50458.5
50645.4
50645.4
50458.5
50085.2
49526.4
48783.3
47856.6
46747.1
45455.7
43985.9
42340.9
40513.1
38513.1
36374.6
34002.3
30935.7
29319
32173.1
34378.5
36346.4
38192.5
39883.1
41403.2
42762.8
43959.2
44988
45847.8
46537.7
47056.6
47403.4
47577.2
47577.2
47403.4
47056.6
46537.7
45847.8
44988
43959.1
42762.7
41403.2
39883
38192.5
36346.4
34378.5
32173
29318.9
27770.2
30427.9
32481.9
34293.3
35997.4
37561.4
38965.9
40222.2
41329.4
42282.3
43078.9
43718.1
44198.9
44520.2
44681.1
44681.1
44520.2
44198.9
43718.1
43078.9
42282.3
41329.4
40222.2
38965.9
37561.4
35997.3
34293.3
32481.8
30427.9
27770.2
26285.2
28760
30675.5
32343
33915.2
35362.5
36659.7
37819.5
38842.9
39724.4
40461.5
41053
41497.7
41794.6
41943.1
41943.1
41794.6
41497.7
41053
40461.5
39724.4
38842.9
37819.5
36659.7
35362.5
33915.1
32343
30675.5
28759.9
26285.1
24859.2
27162.9
28951.1
30485.7
31934.8
33273.9
34471.7
35541.3
36486.2
37300.6
37981.6
38528.2
38938.9
39213
39350
39350
39213
38938.9
38528.2
37981.6
37300.6
36486.2
35541.3
34471.7
33273.9
31934.8
30485.6
28951.1
27162.8
24859.1
23487.8
25630.4
27300.9
28712.2
30046.1
31284.5
32390
33375.3
34246.4
34997.8
35626.1
36130.3
36509.3
36762.1
36888.4
36888.4
36762.1
36509.3
36130.3
35626.1
34997.8
34246.4
33375.3
32389.9
31284.5
30046.1
28712.1
27300.9
25630.3
23487.7
22166.6
24156.8
25717.6
27014.2
28239.6
29383.9
30403.3
31309.6
32111.5
32803.7
33382.3
33846.7
34195.9
34429
34545.5
34545.5
34429
34195.9
33846.6
33382.3
32803.7
32111.5
31309.6
30403.3
29383.9
28239.6
27014.2
25717.6
24156.7
22166.6
20891.1
22736.1
24193.9
25383.3
26505.9
27561.6
28500.8
29332.8
30069.4
30705.8
31237.6
31664.4
31985.8
32200.5
32307.8
32307.8
32200.4
31985.8
31664.4
31237.6
30705.8
30069.4
29332.8
28500.8
27561.6
26505.9
25383.3
24193.9
22736
20891
19656.8
21362.6
22722.6
23811.3
24835.9
25807.8
26671.6
27433.5
28108.4
28692.3
29180.1
29571.5
29866.6
30063.9
30162.7
30162.7
30063.9
29866.5
29571.5
29180.1
28692.3
28108.3
27433.5
26671.5
25807.8
24835.9
23811.2
22722.6
21362.5
19656.7
18456.4
20027.1
21293.1
22286.1
23216.5
24108.1
24900.8
25596.5
26212.6
26746.9
27193.3
27551.2
27821.3
28002.2
28092.7
28092.7
28002.2
27821.3
27551.2
27193.3
26746.9
26212.6
25596.4
24900.8
24108.1
23216.5
22286
21293
20027.1
18456.4
17293.1
18731.3
19905.1
20806.5
21646
22460.3
23185.7
23818.4
24378.6
24866
25273.2
25599.5
25845.7
26010.9
26093.6
26093.6
26010.8
25845.7
25599.5
25273.2
24865.9
24378.6
23818.4
23185.6
22460.3
21645.9
20806.4
19905.1
18731.2
17293.1
16121.9
17423.6
18503.1
19313.8
20062.6
20800
21459.8
22031.4
22536.7
22978.1
23347.4
23642.8
23865.6
24015.2
24090.2
24090.2
24015.2
23865.6
23642.7
23347.4
22978
22536.7
22031.4
21459.7
20800
20062.6
19313.7
18503.1
17423.5
16121.8
15078.3
16246.2
17234.5
17961.3
18628.2
19296.4
19897.7
20415.1
20871.7
21272.5
21608.5
21876.5
22078.6
22214.5
22282.7
22282.7
22214.4
22078.6
21876.5
21608.5
21272.5
20871.7
20415
19897.6
19296.3
18628.1
17961.2
17234.4
16246.1
15078.2
13424.6
14388.5
15245.5
15858.5
16408.3
16975.9
17495.7
17937.5
18323.8
18665.7
18954.1
19183.2
19354.9
19470.8
19529.5
19529.5
19470.8
19354.9
19183.2
18954.1
18665.7
18323.8
17937.4
17495.6
16975.9
16408.2
15858.4
15245.4
14388.4
13424.5
)
;

boundaryField
{
    fixedWall_Bottom
    {
        type            calculated;
        value           nonuniform List<scalar> 
30
(
128457
131066
132729
134144
135323
136331
137193
137929
138552
139072
139497
139831
140078
140241
140323
140323
140241
140078
139831
139497
139072
138552
137929
137193
136331
135323
134144
132729
131066
128457
)
;
    }
    fixedWall_Right
    {
        type            calculated;
        value           nonuniform List<scalar> 
30
(
68991.6
63948.6
60428.6
57290.7
54449.7
51726.8
49166.5
46772.1
44504.7
42340
40275.6
38308.1
36428.4
34629
32905.7
31254.7
29671.4
28151.7
26691.9
25288.7
23938.6
22637.8
21382.7
20169.4
18994.2
17850.5
16742.3
15627.6
14642.3
13087.6
)
;
    }
    fixedWall_Left
    {
        type            calculated;
        value           nonuniform List<scalar> 
30
(
68991.6
63948.7
60428.7
57290.8
54449.7
51726.9
49166.6
46772.1
44504.8
42340
40275.6
38308.1
36428.5
34629
32905.7
31254.7
29671.5
28151.7
26691.9
25288.7
23938.6
22637.8
21382.7
20169.4
18994.2
17850.5
16742.4
15627.7
14642.4
13087.7
)
;
    }
    fixedWall_Top
    {
        type            calculated;
        value           nonuniform List<scalar> 
30
(
13152.8
14050.6
14870.6
15456.9
15984.7
16532.9
17035.6
17462.8
17836.5
18167.6
18447
18669
18835.4
18947.7
19004.6
19004.6
18947.7
18835.4
18669
18447
18167.6
17836.5
17462.8
17035.6
16532.9
15984.7
15456.8
14870.5
14050.5
13152.7
)
;
    }
    frontAndBack
    {
        type            empty;
    }
}


// ************************************************************************* //
