/*--------------------------------*- C++ -*----------------------------------*\
| =========                 |                                                 |
| \\      /  F ield         | OpenFOAM: The Open Source CFD Toolbox           |
|  \\    /   O peration     | Version:  2312                                  |
|   \\  /    A nd           | Website:  www.openfoam.com                      |
|    \\/     M anipulation  |                                                 |
\*---------------------------------------------------------------------------*/
FoamFile
{
    version     2.0;
    format      ascii;
    arch        "LSB;label=32;scalar=64";
    class       volScalarField;
    location    "0.06";
    object      ILambda_9_0;
}
// * * * * * * * * * * * * * * * * * * * * * * * * * * * * * * * * * * * * * //

dimensions      [1 0 -3 0 0 0 0];

internalField   nonuniform List<scalar> 
900
(
7452.63
15298.6
18151.3
18669
18453.5
18186.4
18044.2
18007.4
18018.3
18037.5
18049.5
18053.3
18052.6
18050.8
18049.6
18049.1
18049.1
18049.3
18049.4
18049.5
18049.5
18049.5
18049.5
18049.5
18049.5
18049.5
18049.5
18049.5
18049.5
18049.5
162.424
5738.65
12035.8
16296.9
18249.4
18707.1
18532.1
18252.3
18070.9
18004.5
18005.3
18026.9
18044.9
18053.1
18054.1
18052.2
18050.2
18049.2
18048.9
18049.1
18049.4
18049.5
18049.5
18049.5
18049.5
18049.5
18049.5
18049.5
18049.5
18049.5
-703.151
349.251
4511.82
9900.47
14471.5
17298.1
18507.9
18706.4
18488.5
18224.6
18059.6
18000.3
18003
18025.4
18044.3
18053.2
18054.6
18052.6
18050.5
18049.2
18048.9
18049
18049.3
18049.5
18049.5
18049.5
18049.5
18049.5
18049.5
18049.5
-261.515
-837.847
195.11
3500.27
8180.01
12742.3
16111.1
17989.2
18669.7
18663.5
18412.2
18173.8
18038.1
17995.7
18004.6
18027.7
18045.7
18053.8
18054.7
18052.6
18050.4
18049.2
18048.9
18049
18049.3
18049.5
18049.5
18049.5
18049.5
18049.5
-0.866344
-468.487
-866.711
-38.4611
2633.71
6718.15
11124.2
14808
17232.6
18418.1
18724.1
18582.9
18324
18120.2
18017.5
17993.8
18008.9
18031.9
18047.9
18054.5
18054.6
18052.4
18050.2
18049.1
18048.9
18049
18049.3
18049.5
18049.5
18049.5
35.6963
-76.3648
-535.648
-890.729
-275.129
1891.97
5451.43
9618.82
13454.1
16301.3
17967.7
18643.3
18696
18480.9
18237.4
18073.3
18002.6
17995.3
18015
18036.8
18050.3
18055
18054.3
18052
18050
18049
18048.9
18049.1
18049.4
18049.6
12.4062
44.4283
-116.961
-554.62
-907.001
-484.739
1261.14
4346.41
8226.2
12091.4
15245.6
17342.8
18411
18721.5
18615.5
18373.4
18160.8
18037
17994.5
18000.1
18022.1
18041.7
18052.4
18055.2
18053.8
18051.4
18049.7
18049
18049
18049.5
-1.41485
31.734
43.076
-133.341
-547.295
-910.679
-657.321
729.601
3382.37
6946.21
10749.5
14106.7
16570.8
18028.2
18639.9
18701.8
18508.8
18272.2
18098.6
18012.2
17992.7
18007.1
18029.4
18046.1
18053.9
18055
18053
18050.7
18049.2
18049
-2.67045
5.41206
43.0129
42.5838
-133.293
-523.528
-900.22
-791.014
287.171
2544.6
5778.05
9449.9
12918.5
15679.2
17503.4
18439.8
18718.3
18623.3
18395.4
18184.5
18052
17998.1
17995.9
18015.4
18036.3
18049.7
18054.7
18054.3
18051.9
18049.2
-0.763055
-3.48671
11.9829
50.317
44.5703
-122.62
-488.864
-876.022
-887.453
-75.3617
1821.36
4720.08
8208.53
11709.3
14695.2
16849.8
18117.2
18648.8
18697.8
18516.1
18288.5
18114.1
18020.3
17992.8
18002.6
18024.2
18042.6
18052.5
18055.3
18052.2
0.197363
-2.43994
-2.75361
17.1661
55.2292
48.693
-105.305
-446.925
-839.514
-949.852
-366.527
1202.49
3769.77
7036.99
10502.5
13643.9
16083.8
17673.8
18482.3
18715.5
18619
18401.3
18196.1
18061.5
18001.8
17994.3
18011.7
18033.1
18048.7
18055.3
0.222392
-0.34661
-3.5605
-1.67735
20.8406
58.5664
54.1932
-84.1312
-400.36
-792.631
-982.114
-594.305
678.765
2923.71
5943.49
9317.66
12549
15223.4
17115.7
18212.6
18662.3
18689
18511.8
18292.9
18121.6
18025.4
17993.6
18000.6
18021.2
18047.1
0.0507442
0.328905
-1.04217
-4.30647
-0.722177
23.1762
60.7228
60.3099
-61.0924
-351.233
-737.499
-988.367
-766.189
241.542
2177.67
4933.49
8170.51
11431.7
14287.2
16452.5
17837.9
18527.7
18712.1
18607.8
18397.2
18198.4
18064.9
18002.9
17990.2
18018.7
-0.0232139
0.205495
0.2487
-1.7096
-4.81546
-0.0741497
24.3802
61.8827
66.4054
-37.6375
-301.207
-676.253
-972.709
-889.218
-117.422
1526.75
4010.16
7073.77
10310.9
13294.1
15696
17359.9
18304.5
18676.3
18677.3
18500.5
18288.2
18121
18021.6
17991.3
-0.0195804
0.0202744
0.319217
0.0817806
-2.28705
-5.19579
0.215197
24.6435
62.14
71.991
-14.8242
-251.634
-610.921
-939.059
-969.975
-406.02
965.496
3174.71
6037.38
9203.35
12262.1
14859.8
16783.6
17988.7
18571.4
18708.8
18593.9
18386.8
18195.5
18031.1
-0.00334881
-0.0330838
0.0890587
0.391044
-0.1143
-2.76215
-5.51578
0.160868
24.1343
61.5583
76.7145
6.57942
-203.604
-543.35
-891.07
-1014.59
-631.837
487.97
2426.74
5068.8
8123.47
11208.5
13958.4
16116.4
17579.2
18389.8
18692.3
18666.6
18502.3
18208.8
0.00261205
-0.0180522
-0.0268284
0.162296
0.42997
-0.303788
-3.14095
-5.81223
-0.188357
23.0034
60.1948
80.3346
26.0291
-157.968
-475.158
-832.077
-1028.77
-802.166
87.9066
1764.54
4173.41
7083.56
10149.3
13006.7
15367.5
17077
18126.5
18613
18735.1
18500.8
0.00175875
-0.000710282
-0.0301466
-0.00839657
0.23101
0.449369
-0.467914
-3.43631
-6.09769
-0.764483
21.3853
58.1017
82.6957
43.1694
-115.345
-407.714
-765.095
-1017.82
-924.021
-241.189
1185.35
3354.77
6093.97
9099.32
12019.6
14546.9
16486.2
17770
18487.2
18700.6
0.000159681
0.00353476
-0.00729851
-0.0384356
0.0169687
0.293599
0.459902
-0.601591
-3.66024
-6.36295
-1.49105
19.3899
55.32
83.7183
57.8229
-76.1245
-342.144
-692.85
-986.685
-1004.13
-505.911
685.613
2615.03
5163.39
8072.18
11011.5
13666.6
15808.4
17311.2
18430.6
-0.000335663
0.00165844
0.00352413
-0.0155911
-0.0431274
0.0469493
0.351211
0.465005
-0.708043
-3.81521
-6.58032
-2.29941
17.089
51.8817
83.408
69.9873
-40.4952
-279.373
-617.825
-939.978
-1048.9
-712.817
261.259
1955.17
4299.05
7080.42
9995.37
12748.7
14968.6
17293.3
-0.000197241
-0.00011434
0.00340478
0.00164397
-0.0251421
-0.0436708
0.0816639
0.402325
0.460298
-0.78911
-3.88746
-6.71537
-3.14998
14.5116
47.8284
81.8739
79.8235
-8.49002
-220.191
-542.309
-881.998
-1064.37
-868.306
-92.1102
1375.1
3507.76
6130.23
9017.99
11611.6
15086.7
-1.44819e-05
-0.000524982
0.000890856
0.00484201
-0.00280075
-0.0348294
-0.0375599
0.119992
0.439002
0.439471
-0.834251
-3.84958
-6.74794
-4.04816
11.6577
43.2442
79.3394
87.6172
19.942
-165.31
-468.409
-816.685
-1056.16
-978.461
-379.448
875.898
2783.57
5291.9
7769.96
11951.6
5.15156e-05
-0.00032241
-0.000386274
0.00256219
0.00471723
-0.00994658
-0.0412764
-0.0223956
0.154986
0.448848
0.405062
-0.815836
-3.67561
-6.69416
-5.04295
8.53087
38.2869
76.1296
93.7163
44.8625
-115.4
-398.03
-747.587
-1029.25
-1049.65
-602.552
439.439
2215.97
4142.1
8352.33
4.94357e-05
-0.000104745
-0.000553219
0.000567688
0.00396904
0.00169609
-0.0176506
-0.0396211
-0.000346052
0.17281
0.423527
0.377372
-0.696738
-3.36337
-6.61646
-6.20373
5.17746
33.1984
72.6275
98.4559
66.2874
-71.0847
-332.852
-677.613
-988.956
-1083.25
-787.579
167.044
1316.15
4898.13
3.2809e-05
2.82649e-06
-0.000394613
-0.000205476
0.00204095
0.00344541
-0.00397616
-0.0210744
-0.0271853
0.0186511
0.158057
0.369266
0.39397
-0.448922
-2.95207
-6.61322
-7.58256
1.71521
28.287
69.211
102.09
84.1711
-32.9412
-274.028
-610.182
-934.422
-1107.8
-830.791
-428.556
2111.17
1.77526e-05
4.77813e-05
-0.000239758
-0.000408925
0.000927266
0.00273525
-0.00014457
-0.00916772
-0.0149843
-0.00774428
0.0186687
0.103506
0.311999
0.497414
-0.0740007
-2.52435
-6.78984
-9.17807
-1.6636
23.8821
66.1846
104.761
98.3794
-1.17678
-223.489
-542.274
-891.924
-1027.23
-1155.45
260.693
5.13337e-06
6.43788e-05
-0.000113327
-0.000452851
0.000291847
0.00218194
0.00100813
-0.00575801
-0.00862693
0.00212728
0.00727513
-0.0149108
0.0185806
0.29201
0.715538
0.384925
-2.18815
-7.21902
-10.9119
-4.71776
20.261
63.7139
106.422
109.01
23.1092
-177.033
-495.1
-781.377
-1161.21
-671.92
-4.07455e-06
5.88712e-05
-5.75288e-06
-0.000392786
-0.000191784
0.00160437
0.0020876
-0.00365393
-0.00959562
0.00207437
0.024748
0.00195987
-0.0865634
-0.0676494
0.353198
1.04583
0.839097
-2.06672
-7.92812
-12.6138
-7.11683
17.7481
61.8645
107.034
114.709
43.0331
-151.23
-410.11
-807.947
-906.318
-8.33783e-06
3.95614e-05
6.29592e-05
-0.000256699
-0.00048376
0.000844901
0.00269719
-0.000750271
-0.0100043
-0.00702778
0.0243759
0.044113
-0.0365455
-0.195351
-0.132016
0.526676
1.50648
1.28487
-2.20434
-9.07051
-14.6266
-9.29525
16.2386
61.9033
108.926
123.094
52.1258
-108.189
-401.898
-767.249
-7.32218e-06
5.8464e-06
8.34068e-05
-1.97392e-05
-0.000476845
-0.000265417
0.00181425
0.00276926
-0.00378778
-0.0135297
-0.00260741
0.0399418
0.0561048
-0.0547459
-0.258404
-0.22477
0.460082
1.60209
1.80679
-0.982613
-7.36908
-13.9276
-12.7042
5.30694
42.2763
88.1146
112.503
83.7202
-12.9323
-347.601
)
;

boundaryField
{
    fixedWall_Bottom
    {
        type            greyDiffusiveRadiation;
        refValue        uniform 18049.5;
        refGradient     uniform 0;
        valueFraction   uniform 1;
        source          uniform 0;
        value           uniform 18049.5;
    }
    fixedWall_Right
    {
        type            greyDiffusiveRadiation;
        refValue        uniform 0;
        refGradient     uniform 0;
        valueFraction   uniform 0;
        source          uniform 0;
        value           nonuniform List<scalar> 
30
(
18049.5
18049.5
18049.5
18049.5
18049.5
18049.6
18049.5
18049
18049.2
18052.2
18055.3
18047.1
18018.7
17991.3
18031.1
18208.8
18500.8
18700.6
18430.6
17293.3
15086.7
11951.6
8352.33
4898.13
2111.17
260.693
-671.92
-906.318
-767.249
-347.601
)
;
    }
    fixedWall_Left
    {
        type            greyDiffusiveRadiation;
        refValue        uniform 0;
        refGradient     uniform 0;
        valueFraction   uniform 1;
        source          uniform 0;
        value           uniform 0;
    }
    fixedWall_Top
    {
        type            greyDiffusiveRadiation;
        refValue        uniform 0;
        refGradient     uniform 0;
        valueFraction   uniform 0;
        source          uniform 0;
        value           nonuniform List<scalar> 
30
(
-7.32218e-06
5.8464e-06
8.34068e-05
-1.97392e-05
-0.000476845
-0.000265417
0.00181425
0.00276926
-0.00378778
-0.0135297
-0.00260741
0.0399418
0.0561048
-0.0547459
-0.258404
-0.22477
0.460082
1.60209
1.80679
-0.982613
-7.36908
-13.9276
-12.7042
5.30694
42.2763
88.1146
112.503
83.7202
-12.9323
-347.601
)
;
    }
    frontAndBack
    {
        type            empty;
    }
}


// ************************************************************************* //
