/*--------------------------------*- C++ -*----------------------------------*\
| =========                 |                                                 |
| \\      /  F ield         | OpenFOAM: The Open Source CFD Toolbox           |
|  \\    /   O peration     | Version:  2312                                  |
|   \\  /    A nd           | Website:  www.openfoam.com                      |
|    \\/     M anipulation  |                                                 |
\*---------------------------------------------------------------------------*/
FoamFile
{
    version     2.0;
    format      ascii;
    arch        "LSB;label=32;scalar=64";
    class       volScalarField;
    location    "0.06";
    object      ILambda_62_0;
}
// * * * * * * * * * * * * * * * * * * * * * * * * * * * * * * * * * * * * * //

dimensions      [1 0 -3 0 0 0 0];

internalField   nonuniform List<scalar> 
900
(
18049.5
18049.5
18049.5
18049.5
18049.5
18049.5
18049.5
18049.5
18049.5
18049.5
18049.5
18049.5
18049.5
18049.5
18049.5
18049.5
18049.5
18049.5
18049.5
18049.5
18049.5
18049.5
18049.5
18049.5
18049.6
18048.6
18043.3
18110.1
18557.2
16149.2
18049.5
18049.5
18049.5
18049.5
18049.5
18049.5
18049.5
18049.5
18049.5
18049.5
18049.5
18049.5
18049.5
18049.5
18049.5
18049.5
18049.5
18049.5
18049.5
18049.5
18049.5
18049.5
18049.5
18049.7
18048.9
18040.4
18052.6
18379
18939.2
12820.3
18049.5
18049.5
18049.5
18049.5
18049.5
18049.5
18049.5
18049.5
18049.5
18049.5
18049.5
18049.5
18049.5
18049.5
18049.5
18049.5
18049.5
18049.5
18049.5
18049.5
18049.5
18049.5
18049.6
18049.8
18045.1
18029.2
18115.5
18712.9
18682.7
10017.5
18049.5
18049.5
18049.5
18049.5
18049.5
18049.5
18049.5
18049.5
18049.5
18049.5
18049.5
18049.5
18049.5
18049.5
18049.5
18049.5
18049.5
18049.5
18049.5
18049.5
18049.5
18049.5
18049.9
18049.1
18036.8
18026
18245
19002.4
17917
7698.72
18049.5
18049.5
18049.5
18049.5
18049.5
18049.5
18049.5
18049.5
18049.5
18049.5
18049.5
18049.5
18049.5
18049.5
18049.5
18049.5
18049.5
18049.5
18049.5
18049.5
18049.5
18049.7
18050.2
18046.3
18025.2
18043.9
18432.7
19162.2
16783.3
5803.45
18049.5
18049.5
18049.5
18049.5
18049.5
18049.5
18049.5
18049.5
18049.5
18049.5
18049.5
18049.5
18049.5
18049.5
18049.5
18049.5
18049.5
18049.5
18049.5
18049.5
18049.5
18050
18050.2
18040.6
18013.8
18094.3
18654.7
19138
15406.2
4271.88
18049.5
18049.5
18049.5
18049.5
18049.5
18049.5
18049.5
18049.5
18049.5
18049.5
18049.5
18049.5
18049.5
18049.5
18049.5
18049.5
18049.5
18049.5
18049.5
18049.4
18049.6
18050.5
18049.1
18031.5
18008.4
18183.4
18878.2
18903.4
13888.4
3049.23
18049.5
18049.5
18049.5
18049.5
18049.5
18049.5
18049.5
18049.5
18049.5
18049.5
18049.5
18049.5
18049.5
18049.5
18049.5
18049.5
18049.5
18049.5
18049.4
18049.5
18049.9
18050.9
18046.2
18019.8
18015.9
18311.5
19068
18453.6
12311.9
2086.56
18049.5
18049.5
18049.5
18049.5
18049.5
18049.5
18049.5
18049.5
18049.5
18049.5
18049.5
18049.5
18049.5
18049.5
18049.5
18049.5
18049.5
18049.5
18049.4
18049.5
18050.3
18050.9
18040.9
18007.5
18043.1
18472.2
19190.8
17799.8
10740.7
1340.7
18049.5
18049.5
18049.5
18049.5
18049.5
18049.5
18049.5
18049.5
18049.5
18049.5
18049.5
18049.5
18049.5
18049.5
18049.5
18049.5
18049.5
18049.5
18049.4
18049.7
18050.9
18050.2
18032.7
17997.7
18095.3
18653.8
19217.9
16964.6
9222.51
773.878
18049.5
18049.5
18049.5
18049.5
18049.5
18049.5
18049.5
18049.5
18049.5
18049.5
18049.5
18049.5
18049.5
18049.5
18049.5
18049.5
18049.5
18049.4
18049.4
18050
18051.4
18048
18022
17994.5
18175.7
18840.1
19127.3
15977.2
7792.05
353.319
18049.5
18049.5
18049.5
18049.5
18049.5
18049.5
18049.5
18049.5
18049.5
18049.5
18049.5
18049.5
18049.5
18049.5
18049.5
18049.5
18049.5
18049.4
18049.5
18050.4
18051.8
18044
18009.6
18002.4
18284.7
19012.6
18904.4
14870.9
6472.68
50.8355
18049.5
18049.5
18049.5
18049.5
18049.5
18049.5
18049.5
18049.5
18049.5
18049.5
18049.5
18049.5
18049.5
18049.5
18049.5
18049.5
18049.4
18049.4
18049.6
18051
18051.6
18037.6
17997.2
18025.9
18419.2
19151.3
18542
13680
5278.65
-157.623
18049.5
18049.5
18049.5
18049.5
18049.5
18049.5
18049.5
18049.5
18049.5
18049.5
18049.5
18049.5
18049.5
18049.5
18049.5
18049.5
18049.4
18049.4
18049.9
18051.7
18050.5
18028.8
17987.2
18068.8
18573.2
19237
18039.8
12437.8
4216.84
-292.383
18049.5
18049.5
18049.5
18049.5
18049.5
18049.5
18049.5
18049.5
18049.5
18049.5
18049.5
18049.5
18049.5
18049.5
18049.5
18049.5
18049.4
18049.4
18050.3
18052.3
18047.9
18017.7
17982.4
18133.7
18737.9
19252
17403.9
11175.6
3288.33
-370.457
18049.5
18049.5
18049.5
18049.5
18049.5
18049.5
18049.5
18049.5
18049.5
18049.5
18049.5
18049.5
18049.5
18049.5
18049.5
18049.4
18049.4
18049.5
18050.9
18052.7
18043.6
18005.2
17986.3
18221.7
18902
19181.3
16645.5
9921.25
2489.78
-405.935
18049.5
18049.5
18049.5
18049.5
18049.5
18049.5
18049.5
18049.5
18049.5
18049.5
18049.5
18049.5
18049.5
18049.5
18049.5
18049.4
18049.3
18049.7
18051.6
18052.5
18037.1
17992.4
18002.1
18331.9
19052.9
19013.4
15779.7
8698.96
1814.56
-410.346
18049.5
18049.5
18049.5
18049.5
18049.5
18049.5
18049.5
18049.5
18049.5
18049.5
18049.5
18049.5
18049.5
18049.5
18049.5
18049.4
18049.3
18050.1
18052.4
18051.3
18028.4
17981.2
18032.9
18461.6
19176.8
18740.4
14824.7
7528.7
1253.79
-393
18049.5
18049.5
18049.5
18049.5
18049.5
18049.5
18049.5
18049.5
18049.5
18049.5
18049.5
18049.5
18049.5
18049.5
18049.5
18049.4
18049.4
18050.6
18053.1
18048.9
18017.7
17973.6
18081.3
18605.8
19260
18358.6
13800.1
6426.31
797.136
-361.3
18049.5
18049.5
18049.5
18049.5
18049.5
18049.5
18049.5
18049.5
18049.5
18049.5
18049.5
18049.5
18049.5
18049.5
18049.4
18049.3
18049.5
18051.2
18053.6
18044.9
18005.3
17972.2
18148.8
18758
19289.4
17868.1
12726.8
5403.61
433.454
-321.029
18049.5
18049.5
18049.5
18049.5
18049.5
18049.5
18049.5
18049.5
18049.5
18049.5
18049.5
18049.5
18049.5
18049.5
18049.4
18049.3
18049.7
18052
18053.5
18038.9
17992.3
17979.7
18235.9
18909.9
19253.2
17272.9
11625.1
4468.64
151.363
-276.608
18049.5
18049.5
18049.5
18049.5
18049.5
18049.5
18049.5
18049.5
18049.5
18049.5
18049.5
18049.5
18049.5
18049.5
18049.3
18049.3
18050.1
18052.9
18052.6
18030.8
17979.7
17998.6
18341.8
19051.9
19141.2
16580.1
10514.8
3626.08
-60.3586
-231.321
18049.4
18049.4
18049.4
18049.4
18049.4
18049.4
18049.4
18049.4
18049.4
18049.4
18049.4
18049.4
18049.4
18049.4
18049.3
18049.3
18050.6
18053.7
18050.6
18020.7
17969.3
18031.3
18464.3
19173.9
18945.9
15799.5
9414.11
2877.57
-212.459
-187.525
18049.4
18049.4
18049.4
18049.4
18049.4
18049.4
18049.4
18049.4
18049.4
18049.4
18049.4
18049.4
18049.4
18049.4
18049.2
18049.4
18051.3
18054.3
18047.1
18008.8
17963.1
18079.9
18599.5
19265
18661.8
14943.1
8339.35
2222.26
-314.979
-146.823
18049.4
18049.4
18049.4
18049.4
18049.4
18049.4
18049.4
18049.4
18049.4
18049.4
18049.4
18049.4
18049.4
18049.3
18049.2
18049.7
18052.2
18054.5
18041.9
17995.8
17963
18145.4
18742.6
19315.2
18286.8
14025.3
7304.94
1657.2
-377.143
-110.218
18049.5
18049.5
18049.5
18049.5
18049.5
18049.5
18049.5
18049.5
18049.5
18049.5
18049.5
18049.5
18049.5
18049.3
18049.2
18050.1
18053.1
18054
18034.8
17982.7
17971.8
18228.6
18886.7
19312.6
17818.4
13058.4
6321.64
1177.7
-407.098
-78.2436
18049.5
18049.5
18049.5
18049.5
18049.5
18049.5
18049.5
18049.5
18049.5
18049.5
18049.5
18049.5
18049.5
18049.3
18049.3
18050.7
18054.1
18052.7
18025.9
17970.1
17990.2
18327.3
19025.9
19255.7
17270.6
12068.1
5404.09
778.519
-412.617
-51.1177
18049.6
18049.6
18049.6
18049.6
18049.6
18049.6
18049.6
18049.6
18049.6
18049.6
18049.6
18049.6
18049.5
18049.4
18049.5
18051.5
18054.9
18049.7
18014.8
17961.3
18025.6
18446.3
19147.6
19108.9
16600.4
11022.8
4534.66
449.227
-397.862
-28.5276
18049.7
18049.7
18049.7
18049.7
18049.7
18049.7
18049.7
18049.7
18049.7
18049.7
18049.7
18049.7
18049.6
18049.4
18049.8
18052.3
18055.8
18047.1
18004.3
17952.7
18058
18553.9
19253.3
18972
16014.2
10142.6
3834.03
203.802
-377.383
-11.5861
18049.5
18049.5
18049.5
18049.5
18049.5
18049.5
18049.5
18049.5
18049.5
18049.5
18049.5
18049.5
18049.3
18049.2
18050.2
18053.6
18054.8
18035.9
17983.1
17960.2
18170.3
18772.2
19326.7
18446.5
14701.3
8542.45
2763.69
-81.3833
-317.165
7.81135
)
;

boundaryField
{
    fixedWall_Bottom
    {
        type            greyDiffusiveRadiation;
        refValue        uniform 18049.5;
        refGradient     uniform 0;
        valueFraction   uniform 1;
        source          uniform 0;
        value           uniform 18049.5;
    }
    fixedWall_Right
    {
        type            greyDiffusiveRadiation;
        refValue        uniform 0;
        refGradient     uniform 0;
        valueFraction   uniform 1;
        source          uniform 0;
        value           uniform 0;
    }
    fixedWall_Left
    {
        type            greyDiffusiveRadiation;
        refValue        uniform 0;
        refGradient     uniform 0;
        valueFraction   uniform 0;
        source          uniform 0;
        value           nonuniform List<scalar> 
30
(
18049.5
18049.5
18049.5
18049.5
18049.5
18049.5
18049.5
18049.5
18049.5
18049.5
18049.5
18049.5
18049.5
18049.5
18049.5
18049.5
18049.5
18049.5
18049.5
18049.5
18049.5
18049.5
18049.4
18049.4
18049.4
18049.5
18049.5
18049.6
18049.7
18049.5
)
;
    }
    fixedWall_Top
    {
        type            greyDiffusiveRadiation;
        refValue        uniform 0;
        refGradient     uniform 0;
        valueFraction   uniform 0;
        source          uniform 0;
        value           nonuniform List<scalar> 
30
(
18049.5
18049.5
18049.5
18049.5
18049.5
18049.5
18049.5
18049.5
18049.5
18049.5
18049.5
18049.5
18049.3
18049.2
18050.2
18053.6
18054.8
18035.9
17983.1
17960.2
18170.3
18772.2
19326.7
18446.5
14701.3
8542.45
2763.69
-81.3833
-317.165
7.81135
)
;
    }
    frontAndBack
    {
        type            empty;
    }
}


// ************************************************************************* //
