/*--------------------------------*- C++ -*----------------------------------*\
| =========                 |                                                 |
| \\      /  F ield         | OpenFOAM: The Open Source CFD Toolbox           |
|  \\    /   O peration     | Version:  2312                                  |
|   \\  /    A nd           | Website:  www.openfoam.com                      |
|    \\/     M anipulation  |                                                 |
\*---------------------------------------------------------------------------*/
FoamFile
{
    version     2.0;
    format      ascii;
    arch        "LSB;label=32;scalar=64";
    class       volScalarField;
    location    "0.06";
    object      ILambda_53_0;
}
// * * * * * * * * * * * * * * * * * * * * * * * * * * * * * * * * * * * * * //

dimensions      [1 0 -3 0 0 0 0];

internalField   nonuniform List<scalar> 
900
(
18049.5
18049.5
18049.5
18049.5
18049.5
18049.5
18049.5
18049.5
18049.4
18049.3
18049.1
18049.1
18049.4
18050.1
18051.5
18052.8
18053
18049.9
18041.3
18027
18012.4
18013.4
18058
18179.3
18385.7
18591.8
18492.8
17379.3
13952.6
6394.16
18049.5
18049.5
18049.5
18049.5
18049.5
18049.4
18049.2
18049
18049
18049.3
18050.3
18051.9
18053.5
18053.9
18050.6
18041.3
18025.6
18008.6
18004.8
18039.5
18142.5
18326.8
18546.4
18636
18253.6
16878.2
13953.8
9284.64
3710.76
-292.595
18049.5
18049.5
18049.4
18049.3
18049.1
18048.9
18049.1
18049.8
18051.1
18053
18054.3
18053.2
18047.2
18034.5
18016.8
18002.4
18009.1
18062.8
18187.6
18382.2
18583.3
18624.4
18212.5
16960.8
14516.9
10796.4
6256.86
2014.34
-508.152
-606.375
18049.4
18049.2
18049
18048.9
18049.2
18050.2
18051.8
18053.7
18054.5
18052.1
18044.2
18029.8
18011.8
18000.3
18013.9
18077.3
18209.5
18402.7
18591.2
18622.6
18247.4
17155
15073.6
11927.4
7998.99
3985.99
827.357
-747.527
-761.728
-131.833
18049.1
18048.9
18049.4
18050.6
18052.4
18054.1
18054.4
18051
18041.9
18026.7
18009.1
17999.8
18017.4
18084.4
18216.8
18404.6
18586.1
18625.7
18309.2
17374.4
15589
12866.2
9380.6
5615.1
2268.18
-1.35805
-907.834
-743.611
-226.258
26.8312
18049.3
18050.9
18052.7
18054.3
18054.1
18050.1
18040.4
18024.8
18007.8
18000.1
18019.2
18086.2
18215
18395.8
18573.4
18628.7
18375.9
17587
16053.2
13674.9
10552.2
7030.58
3652.97
999.199
-544.047
-972.336
-676.128
-216.794
19.9814
20.3803
18051.9
18054.4
18053.8
18049.5
18039.4
18023.9
18007.5
18000.5
18019.6
18084.3
18207.4
18380.5
18555.6
18628.8
18437.6
17780.5
16465.4
14381.3
11574.4
8292.48
4964.35
2095.28
99.8712
-861.507
-953.126
-579.91
-173.576
25.6868
36.198
1.49875
18053.8
18049.3
18039
18023.7
18007.7
18000.9
18019
18079.9
18196.1
18361.2
18534
18624.5
18490.1
17950.8
16827.6
15001.6
12478.2
9431.46
6200.95
3223.27
908.448
-498.416
-1007.52
-872.649
-469.125
-118.657
38.1116
43.0697
8.53977
-2.32131
18043.7
18023.7
18008.6
18001.4
18017.6
18074
18182.6
18339.4
18509.6
18615.5
18531.8
18096.8
17143.2
15546.7
13281.9
10465.4
7363.79
4351.09
1816.4
48.7157
-857.32
-1028.7
-753.621
-355.544
-63.6421
51.4186
46.1644
11.973
-2.44857
-0.806
18016.8
18000.2
18016
18067
18167.9
18316.1
18483
18601.8
18562.5
18219.4
17416.1
16025.3
13998.3
11405.8
8454.08
5459.8
2782.65
730.078
-532.935
-1032.07
-964.442
-615.572
-248.055
-14.8854
62.0692
46.315
12.7557
-2.28632
-1.94192
0.121524
18008.6
18058.6
18152.5
18291.9
18455
18584.1
18582.8
18320.1
17649.8
16444.1
14636.6
12261.2
9473.09
6537.11
3779.07
1508.43
-64.5227
-886.845
-1071.15
-847.009
-473.849
-152.675
24.4295
68.4543
43.9515
11.6558
-2.50617
-2.58609
-0.206158
0.152869
18098.6
18272.7
18425.2
18563
18593.7
18400.8
17848
16809.1
15204.4
13038.1
10422.2
7574.57
4785.34
2355
520.711
-605.298
-1061.66
-1016
-701.904
-339.597
-72.8686
53.1882
70.226
39.5654
9.35258
-3.07116
-2.99926
-0.495908
0.234261
0.0237222
18328.1
18553.3
18594.4
18464.3
18014.3
17125.2
15707.6
13741.8
11302.9
8566.33
5786.27
3246.99
1198.83
-202.856
-934.433
-1102.17
-900.937
-548.432
-220.169
-9.99716
71.6404
67.8025
33.7402
6.40559
-3.80706
-3.2469
-0.680902
0.244245
0.100736
-0.0170845
18556.5
18526.4
18149.6
17398.2
16151.3
14376.7
12116.6
9508.23
6770.31
4166.11
1948.95
304.096
-694.049
-1094.71
-1047.87
-753.351
-400.418
-119.72
36.1794
80.8943
62.0181
27.0904
3.26307
-4.53861
-3.34664
-0.755233
0.246382
0.156122
-0.00729197
-0.00858083
18388
17619.9
16540.9
14946.8
12864.2
10397
7728.46
5097.66
2753.14
899.431
-348.765
-989.708
-1126.82
-932.221
-594.188
-267.009
-39.8645
67.0261
82.5346
53.8792
20.1953
0.265669
-5.13131
-3.30227
-0.731933
0.259943
0.195585
0.00997004
-0.018304
0.000276847
17301.2
15385.6
13556.8
11228
8653.26
6029.58
3596.39
1568.38
91.4368
-788.142
-1128.22
-1067.53
-782.43
-438.615
-153.507
19.6884
84.6068
78.3336
44.3982
13.5525
-2.34787
-5.5028
-3.12169
-0.629515
0.288769
0.222648
0.025652
-0.0221631
-0.00427722
0.00146295
14954.4
11851.5
9563.25
6946.19
4466.63
2298.1
616.897
-493.589
-1047.44
-1146.87
-948.578
-619.613
-296.806
-62.1731
60.5618
91.332
70.0395
34.4843
7.55108
-4.42903
-5.61963
-2.82434
-0.469204
0.330103
0.23967
0.0362463
-0.0235215
-0.00847308
0.00167288
0.000377627
11463.4
7621.92
5394.26
3068.86
1221.04
-109.77
-882.044
-1161.93
-1079.89
-796.223
-459.296
-174.792
7.01571
85.221
89.6883
59.2329
24.8769
2.46104
-5.9036
-5.48554
-2.44113
-0.274784
0.378688
0.24854
0.04039
-0.0245509
-0.0116259
0.00102055
0.00113882
-0.000122328
7431.87
3622.19
1950.23
349.867
-626.392
-1105.65
-1166.06
-957.327
-631.168
-312.1
-75.3213
55.693
96.5734
82.0473
47.2446
16.1142
-1.56764
-6.75609
-5.12667
-2.00911
-0.0723197
0.427631
0.251631
0.0385745
-0.0269831
-0.0139704
0.000435025
0.00160619
1.0897e-05
-8.13646e-05
3690.68
654.085
-220.45
-980.584
-1192.65
-1092.79
-804.081
-468.916
-184.512
1.33057
86.5139
97.6529
70.5425
35.1241
8.53076
-4.49835
-7.01776
-4.57863
-1.56312
0.112167
0.467786
0.251207
0.0333638
-0.0315029
-0.0164442
0.000222865
0.00213873
0.000150981
-0.000198851
1.43803e-05
917.598
-944.427
-1097.68
-1199.09
-965.145
-641.192
-319.993
-79.7466
56.6314
102.663
91.3813
56.9986
23.6452
2.27969
-6.39303
-6.75834
-3.87915
-1.12836
0.257294
0.487964
0.247602
0.0286467
-0.0369967
-0.0200285
-4.96758e-05
0.00303774
0.000419511
-0.000367527
-3.39795e-05
2.90429e-05
-623.973
-1348.3
-1066.8
-828.347
-478.588
-192.165
1.80221
93.0962
107.474
80.3938
42.8998
13.3349
-2.63026
-7.38928
-6.07877
-3.06663
-0.716945
0.35139
0.47726
0.237761
0.0276774
-0.0405386
-0.0247617
-0.00135514
0.00414914
0.00111125
-0.000524624
-0.000199652
6.91813e-05
8.00966e-06
-1099.84
-1037.15
-638.44
-343.361
-84.5208
60.3685
114.083
104.074
66.9391
29.382
4.51297
-6.29056
-7.67173
-5.1021
-2.18224
-0.329729
0.3954
0.428913
0.215675
0.0309132
-0.0386092
-0.029078
-0.0044484
0.0046948
0.00232544
-0.000393778
-0.000486641
2.08479e-05
6.70478e-05
-7.58715e-06
-921.218
-509.155
-205.979
-8.64927
101.413
122.146
95.4629
52.7622
17.2569
-2.67056
-8.85032
-7.44179
-3.96118
-1.27196
0.0379458
0.401874
0.343759
0.174891
0.0350795
-0.0290654
-0.0301326
-0.0089994
0.00364725
0.00364559
0.000302339
-0.000711109
-0.000185974
0.000103419
3.02957e-05
-1.09964e-05
-511.456
-87.455
50.6781
122.421
122.305
83.4742
39.3092
6.9922
-8.18867
-10.484
-6.89042
-2.78442
-0.385969
0.389658
0.390306
0.231309
0.111895
0.0341944
-0.01271
-0.0251121
-0.0132879
0.000469911
0.00418718
0.00152468
-0.000564991
-0.00049334
2.47875e-05
9.23474e-05
7.26099e-07
-7.95895e-06
-152.319
120.366
126.883
115.652
70.8
27.1586
-1.09657
-12.1421
-11.3601
-6.18017
-1.68175
0.425409
0.723301
0.380736
0.107778
0.0285741
0.0220764
0.00650742
-0.0127988
-0.0147796
-0.00429456
0.00306224
0.0027651
0.000152279
-0.000680966
-0.000205159
0.000106633
5.11354e-05
-1.30879e-05
-3.5295e-06
48.8455
153.625
98.5322
59.1701
16.9942
-7.12575
-14.6363
-11.6486
-5.42726
-0.735004
1.11772
1.02944
0.387809
-0.00814483
-0.0673518
-0.00489587
0.0228063
0.00550893
-0.0113011
-0.00903048
-3.01342e-05
0.00322965
0.00131142
-0.000486668
-0.000490104
-7.9197e-08
0.000104882
1.30672e-05
-1.46986e-05
-1.57071e-07
106.904
101.88
42.6327
10.3194
-11.2985
-15.8665
-11.472
-4.73091
-0.00269854
1.65248
1.29436
0.420068
-0.0983794
-0.163855
-0.0465236
0.0303535
0.026154
-0.00206489
-0.0116221
-0.00448137
0.00225035
0.00242333
0.000198728
-0.000625029
-0.00022607
9.61892e-05
6.52299e-05
-9.48443e-06
-9.94529e-06
1.44667e-06
87.7223
39.0562
1.5591
-13.2275
-16.7764
-11.1687
-4.16093
0.56969
2.0938
1.54392
0.479013
-0.164556
-0.258736
-0.101072
0.0274827
0.0464964
0.0123859
-0.0107829
-0.00931648
-0.00036708
0.00294571
0.00126029
-0.000425299
-0.00048016
-2.19381e-05
0.000106668
2.35992e-05
-1.61908e-05
-4.21858e-06
1.62293e-06
30.363
-8.86691
-15.2964
-13.5962
-7.77803
-1.74793
1.53589
2.1541
1.2892
0.256491
-0.269381
-0.285296
-0.0986747
0.0361578
0.0551385
0.0179199
-0.00983246
-0.0111814
-0.0019907
0.00281382
0.00182129
-0.000148138
-0.000574309
-0.000139265
0.000105656
5.58567e-05
-1.15685e-05
-1.12984e-05
1.0024e-06
8.80624e-07
)
;

boundaryField
{
    fixedWall_Bottom
    {
        type            greyDiffusiveRadiation;
        refValue        uniform 18049.5;
        refGradient     uniform 0;
        valueFraction   uniform 1;
        source          uniform 0;
        value           uniform 18049.5;
    }
    fixedWall_Right
    {
        type            greyDiffusiveRadiation;
        refValue        uniform 0;
        refGradient     uniform 0;
        valueFraction   uniform 1;
        source          uniform 0;
        value           uniform 0;
    }
    fixedWall_Left
    {
        type            greyDiffusiveRadiation;
        refValue        uniform 0;
        refGradient     uniform 0;
        valueFraction   uniform 0;
        source          uniform 0;
        value           nonuniform List<scalar> 
30
(
18049.5
18049.5
18049.5
18049.4
18049.1
18049.3
18051.9
18053.8
18043.7
18016.8
18008.6
18098.6
18328.1
18556.5
18388
17301.2
14954.4
11463.4
7431.87
3690.68
917.598
-623.973
-1099.84
-921.218
-511.456
-152.319
48.8455
106.904
87.7223
30.363
)
;
    }
    fixedWall_Top
    {
        type            greyDiffusiveRadiation;
        refValue        uniform 0;
        refGradient     uniform 0;
        valueFraction   uniform 0;
        source          uniform 0;
        value           nonuniform List<scalar> 
30
(
30.363
-8.86691
-15.2964
-13.5962
-7.77803
-1.74793
1.53589
2.1541
1.2892
0.256491
-0.269381
-0.285296
-0.0986747
0.0361578
0.0551385
0.0179199
-0.00983246
-0.0111814
-0.0019907
0.00281382
0.00182129
-0.000148138
-0.000574309
-0.000139265
0.000105656
5.58567e-05
-1.15685e-05
-1.12984e-05
1.0024e-06
8.80624e-07
)
;
    }
    frontAndBack
    {
        type            empty;
    }
}


// ************************************************************************* //
