/*--------------------------------*- C++ -*----------------------------------*\
| =========                 |                                                 |
| \\      /  F ield         | OpenFOAM: The Open Source CFD Toolbox           |
|  \\    /   O peration     | Version:  2312                                  |
|   \\  /    A nd           | Website:  www.openfoam.com                      |
|    \\/     M anipulation  |                                                 |
\*---------------------------------------------------------------------------*/
FoamFile
{
    version     2.0;
    format      ascii;
    arch        "LSB;label=32;scalar=64";
    class       volScalarField;
    location    "0.06";
    object      ILambda_56_0;
}
// * * * * * * * * * * * * * * * * * * * * * * * * * * * * * * * * * * * * * //

dimensions      [1 0 -3 0 0 0 0];

internalField   nonuniform List<scalar> 
900
(
18049.5
18049.5
18049.5
18049.5
18049.5
18049.5
18049.5
18049.5
18049.5
18049.5
18049.5
18049.5
18049.5
18049.5
18049.5
18049.5
18049.3
18049.1
18049.3
18050.5
18052.5
18052
18041.4
18018.1
18013.8
18129
18470.6
18747.7
17241.8
9547.76
18049.5
18049.5
18049.5
18049.5
18049.5
18049.5
18049.5
18049.5
18049.5
18049.5
18049.5
18049.5
18049.5
18049.5
18049.3
18049.1
18049.2
18050.4
18052.9
18053.4
18043.9
18018.9
17999.3
18065.2
18331.8
18743.7
18623
16323.4
10136.4
1663.05
18049.5
18049.5
18049.5
18049.5
18049.5
18049.5
18049.5
18049.5
18049.5
18049.5
18049.5
18049.5
18049.4
18049.1
18049
18049.7
18051.9
18054.2
18050.8
18032.7
18002.7
18003.2
18131.5
18467.2
18832.8
18463.8
16016.6
10582.7
3630.37
-525.117
18049.5
18049.5
18049.5
18049.5
18049.5
18049.5
18049.5
18049.5
18049.5
18049.5
18049.5
18049.3
18049
18049.1
18050.5
18053.3
18054.4
18046.2
18021.4
17992.6
18017.2
18194.1
18562
18870.4
18358.6
15916.6
10977.8
4757.59
230.838
-567.85
18049.5
18049.5
18049.5
18049.5
18049.5
18049.5
18049.5
18049.5
18049.5
18049.4
18049.1
18048.9
18049.5
18051.5
18054.4
18053.6
18040.5
18011.3
17987.2
18035.4
18248.3
18629.4
18887.8
18297.1
15915.6
11345.2
5602.2
992.122
-704.789
-220.953
18049.5
18049.5
18049.5
18049.5
18049.5
18049.5
18049.5
18049.5
18049.3
18049
18048.9
18049.9
18052.5
18055.1
18051.9
18034.5
18002.6
17985.3
18054.8
18294
18678.3
18897
18265.8
15966.4
11690.7
6298.72
1685.51
-539.873
-546.228
-11.1907
18049.5
18049.5
18049.5
18049.5
18049.5
18049.5
18049.4
18049.2
18048.9
18049.1
18050.5
18053.5
18055.4
18049.7
18028.5
17995.5
17985.8
18073.7
18331.9
18714.5
18903
18255.7
16046.4
12017.9
6904.88
2318.56
-266.658
-702.3
-202.428
42.4427
18049.4
18049.4
18049.4
18049.4
18049.4
18049.3
18049.1
18048.9
18049.3
18051.2
18054.3
18055.4
18047.1
18022.7
17989.7
17987.7
18091.3
18363
18741.6
18908.1
18260.5
16143.5
12329.3
7449.82
2905.16
58.3322
-750.215
-389.139
-1.3233
28.8016
18049.4
18049.4
18049.4
18049.5
18049.4
18049.1
18049
18049.7
18051.9
18055
18055
18044.3
18017.4
17985
17990.5
18107.1
18388.5
18762.2
18913.1
18275.9
16250.8
12626.8
7949.96
3455.4
411.108
-719.687
-543.433
-98.2681
50.9783
7.67744
18049.5
18049.6
18049.6
18049.5
18049.2
18049.2
18050.1
18052.5
18055.5
18054.4
18041.4
18012.5
17981.3
17993.7
18121.1
18409.2
18777.7
18918.5
18298.8
16363.9
12911.6
8415.42
3976.31
779.443
-630.894
-657.219
-215.746
35.2045
35.0796
-2.46301
18049.7
18049.8
18049.6
18049.3
18049.2
18050.3
18053
18055.7
18053.4
18038.4
18008
17978.4
17997
18133.2
18425.9
18789.4
18924.2
18327.2
16479.9
13184.9
8852.87
4472.86
1156.54
-497.756
-730.761
-335.904
-9.67565
53.2074
10.2919
-3.65795
18049.9
18049.5
18049
18048.9
18050.1
18053
18055.6
18052.3
18035.6
18004
17976.1
18000.3
18143.5
18439.1
18798
18930.3
18359.3
16597
13447.6
9266.92
4948.71
1538.35
-330.046
-766.897
-448.647
-75.1098
56.2763
28.7202
-2.55685
-1.76983
18049.3
18048.3
18048.3
18049.7
18053
18055.5
18051.4
18033.2
18000.8
17974.4
18003.3
18152.1
18449.3
18804.2
18936.5
18393.8
16713.9
13700.3
9660.9
5406.58
1922.33
-134.829
-769.096
-548.244
-153.391
42.8851
46.0666
5.5918
-4.6523
-0.179463
18047.9
18047.5
18049.5
18053.3
18056
18051.1
18031.5
17998.3
17973.3
18006.1
18159.2
18456.9
18808.3
18942.8
18430
16829.5
13943.6
10037.3
5848.53
2306.81
82.6435
-740.775
-631.546
-238.23
14.2673
57.8127
18.2892
-4.25904
-2.51356
0.37709
18047.1
18050.1
18054.7
18057.6
18051.9
18030.8
17996.5
17972.3
18008.3
18164.5
18462.2
18810.6
18949
18467
16943.2
14178.1
10398
6276.17
2690.63
318.364
-685.072
-696.952
-324.724
-27.2209
61.431
32.7126
0.0388709
-4.71236
-0.418734
0.31053
18050.3
18057.7
18060.3
18053.5
18030.4
17994.6
17970.9
18009.3
18167.9
18465.3
18811.4
18955.1
18504.3
17054.6
14404
10744.4
6690.78
3072.97
569.201
-604.788
-743.803
-409.134
-78.8722
55.8276
46.2802
7.86273
-5.4668
-2.15089
0.438849
0.105598
18058.6
18064.2
18054.9
18029.3
17991.4
17967.7
18008.3
18169.2
18466.4
18811
18961.2
18541.6
17163.3
14621.9
11077.8
7093.36
3453.23
832.668
-502.394
-772.019
-488.64
-138.003
40.8774
56.9339
18.193
-3.98837
-4.10041
-0.153694
0.433615
-0.0175209
18065.6
18055
18025.5
17985.5
17961.8
18004.7
18168.3
18466
18809.9
18967.3
18578.7
17269
14831.7
11399
7484.73
3830.96
1106.76
-380.062
-781.868
-561.136
-202.125
17.0732
63.1921
29.7584
-0.0400789
-5.5207
-1.39624
0.534258
0.176993
-0.043574
18057.3
18017.3
17975.7
17952.7
17999
18166.3
18465.3
18809.4
18974.3
18615.6
17371.5
15033.8
11708.7
7865.5
4205.82
1389.84
-239.699
-773.833
-625.062
-269.004
-14.7199
64.0943
41.2766
6.19467
-5.8104
-3.00615
0.214242
0.434134
-0.00417275
-0.0254631
18021.4
17959.9
17942
17992.8
18165.1
18466.4
18811.1
18983.2
18652.6
17470.6
15227.9
12007.1
8236.14
4577.56
1680.58
-82.986
-748.543
-679.293
-336.674
-53.4187
59.1147
51.5803
14.2514
-4.5828
-4.59071
-0.581258
0.588539
0.152916
-0.0565943
-0.00489764
17965.4
17927.5
17989.9
18167.9
18472.4
18817.3
18995
18689.8
17566
15413.8
12294.5
8596.96
4946.06
1977.98
88.6383
-706.729
-723.083
-403.444
-97.8177
48.0934
59.6789
23.4948
-1.67519
-5.74394
-1.76786
0.495338
0.371585
-0.0214949
-0.0394466
0.00424612
17928.1
17990.3
18179.5
18486.1
18830.1
19010.7
18727.1
17656.6
15590.6
12570.4
8948.04
5311.32
2281.42
274.066
-649.144
-756.042
-467.948
-146.68
31.1888
64.8083
33.2055
2.8627
-6.11515
-3.1567
0.0721755
0.55834
0.0945381
-0.0626581
-0.0112619
0.00454866
17972.5
18204.8
18510.2
18850.6
19030.4
18763.4
17741.1
15756.7
12833.7
9289.07
5673.38
2590.72
472.678
-576.391
-778.065
-529.228
-198.877
8.80819
66.4852
42.6765
8.79376
-5.46543
-4.49956
-0.680144
0.612617
0.269046
-0.0438662
-0.0393254
0.00374262
0.00201356
18151.5
18558.3
18876.6
19052.6
18796.2
17816.4
15909.4
13082.7
9619.16
6032.16
2906.08
684.5
-488.645
-789.13
-586.745
-253.579
-18.5457
64.5244
51.3369
15.7604
-3.7112
-5.55219
-1.67678
0.463034
0.447112
0.0313402
-0.0605938
-0.00998465
0.0059567
0.000136571
18463.6
18933
19069.3
18822.1
17878.1
16044.7
13314.1
9936.41
6387.06
3227.86
910.235
-385.355
-788.941
-640.234
-310.397
-50.5247
58.9429
58.8571
23.4158
-0.917487
-6.15021
-2.78366
0.0971857
0.566615
0.149948
-0.0559453
-0.0306525
0.00388841
0.00308032
-0.00042166
18812.4
19108
18824.7
17919.4
16156.1
13523.2
10237.8
6736.92
3556.46
1151.22
-265.052
-776.532
-689.38
-369.373
-87.1939
49.7198
65.1451
31.5821
2.7985
-6.25341
-3.89096
-0.441289
0.594341
0.28045
-0.0212468
-0.0467828
-0.00448943
0.00485616
0.000514826
-0.000264158
19045.9
18850.2
17940.8
16248.6
13710
10521.2
7078.87
3890.01
1407.42
-126.325
-750.176
-733.182
-430.488
-129.029
36.4888
70.1323
40.3072
7.43226
-5.89352
-4.98178
-1.10702
0.542976
0.402704
0.0305165
-0.0536074
-0.0139638
0.00435034
0.00151546
-0.000281469
-2.07542e-05
18823.5
17835.7
16222.4
13803.7
10740.7
7390.43
4223.69
1684.62
40.4132
-701.674
-767.403
-493.378
-177.688
17.6267
73.246
49.8395
13.3413
-4.98385
-6.14044
-1.94861
0.435129
0.538324
0.0922288
-0.0609794
-0.0230754
0.00497025
0.00221491
-0.000713956
1.89565e-06
5.62087e-05
18471.7
16541.4
14251.3
11244.2
7905.81
4682.51
2022.89
224.578
-659.952
-817.87
-572.457
-237.368
-5.67901
76.9167
61.8568
21.1031
-3.65531
-7.68344
-3.13352
0.291949
0.760388
0.185975
-0.0874609
-0.0442109
0.010188
0.00680952
-0.00222689
-0.000918052
0.000458753
4.07582e-06
15806.7
12547.8
9816.57
6732.75
3876.69
1579.02
65.2916
-650.688
-747.907
-510.023
-205.603
1.74928
74.5467
59.0715
20.0973
-3.88668
-7.90347
-3.27967
0.345149
0.874956
0.215996
-0.121305
-0.0648332
0.016936
0.0146604
-0.00311337
-0.00310154
0.000600237
0.000440382
-0.000104506
)
;

boundaryField
{
    fixedWall_Bottom
    {
        type            greyDiffusiveRadiation;
        refValue        uniform 18049.5;
        refGradient     uniform 0;
        valueFraction   uniform 1;
        source          uniform 0;
        value           uniform 18049.5;
    }
    fixedWall_Right
    {
        type            greyDiffusiveRadiation;
        refValue        uniform 0;
        refGradient     uniform 0;
        valueFraction   uniform 1;
        source          uniform 0;
        value           uniform 0;
    }
    fixedWall_Left
    {
        type            greyDiffusiveRadiation;
        refValue        uniform 0;
        refGradient     uniform 0;
        valueFraction   uniform 0;
        source          uniform 0;
        value           nonuniform List<scalar> 
30
(
18049.5
18049.5
18049.5
18049.5
18049.5
18049.5
18049.5
18049.4
18049.4
18049.5
18049.7
18049.9
18049.3
18047.9
18047.1
18050.3
18058.6
18065.6
18057.3
18021.4
17965.4
17928.1
17972.5
18151.5
18463.6
18812.4
19045.9
18823.5
18471.7
15806.7
)
;
    }
    fixedWall_Top
    {
        type            greyDiffusiveRadiation;
        refValue        uniform 0;
        refGradient     uniform 0;
        valueFraction   uniform 0;
        source          uniform 0;
        value           nonuniform List<scalar> 
30
(
15806.7
12547.8
9816.57
6732.75
3876.69
1579.02
65.2916
-650.688
-747.907
-510.023
-205.603
1.74928
74.5467
59.0715
20.0973
-3.88668
-7.90347
-3.27967
0.345149
0.874956
0.215996
-0.121305
-0.0648332
0.016936
0.0146604
-0.00311337
-0.00310154
0.000600237
0.000440382
-0.000104506
)
;
    }
    frontAndBack
    {
        type            empty;
    }
}


// ************************************************************************* //
