/*--------------------------------*- C++ -*----------------------------------*\
| =========                 |                                                 |
| \\      /  F ield         | OpenFOAM: The Open Source CFD Toolbox           |
|  \\    /   O peration     | Version:  2312                                  |
|   \\  /    A nd           | Website:  www.openfoam.com                      |
|    \\/     M anipulation  |                                                 |
\*---------------------------------------------------------------------------*/
FoamFile
{
    version     2.0;
    format      ascii;
    arch        "LSB;label=32;scalar=64";
    class       volScalarField;
    location    "0.06";
    object      ILambda_15_0;
}
// * * * * * * * * * * * * * * * * * * * * * * * * * * * * * * * * * * * * * //

dimensions      [1 0 -3 0 0 0 0];

internalField   nonuniform List<scalar> 
900
(
653.234
1903.68
3087.12
4203.28
5254.36
6243.09
7172.28
8044.66
8862.9
9629.58
10347.2
11018.2
11644.8
12229.4
12774.1
13280.9
13752
14189.2
14594.3
14969.3
15315.7
15635.3
15929.5
16200
16448
16675.3
16881.9
17074.9
17228.5
17467.4
-203.954
-530.716
-763.331
-904.919
-962.166
-942.297
-852.365
-699.08
-488.783
-227.448
79.3065
426.209
808.317
1221.01
1659.96
2121.16
2600.85
3095.56
3602.08
4117.44
4638.9
5163.96
5690.28
6215.84
6738.43
7257.57
7766.24
8286.71
8715.49
9492.67
-6.77053
-47.3804
-115.58
-205.851
-311.738
-427.092
-546.345
-664.546
-777.339
-880.927
-972.031
-1047.86
-1106.06
-1144.69
-1162.2
-1157.38
-1129.33
-1077.46
-1001.42
-901.107
-776.632
-628.288
-456.557
-261.999
-45.6279
192.777
447.709
736.922
981.77
1500.06
0.842229
4.02087
6.80799
6.85538
2.13194
-8.90904
-27.3308
-53.7572
-88.4252
-131.237
-181.808
-239.513
-303.526
-372.856
-446.385
-522.894
-601.1
-679.671
-757.256
-832.499
-904.06
-970.625
-1030.93
-1083.74
-1127.98
-1162.33
-1186.7
-1197.04
-1203.32
-1169.33
0.0086672
0.495041
1.81036
4.1201
7.38246
11.3754
15.7358
19.9985
23.6325
26.0725
26.7451
25.0916
20.5872
12.7566
1.18611
-14.4665
-34.466
-58.9955
-88.1537
-121.954
-160.325
-203.112
-250.074
-300.906
-355.185
-412.622
-471.979
-535.91
-589.895
-693.05
-0.00318028
-0.0228952
-0.0227983
0.0715856
0.361396
0.957216
1.96339
3.46536
5.52034
8.15088
11.341
15.0346
19.1352
23.5084
27.9843
32.3623
36.4157
39.8964
42.5404
44.0732
44.2156
42.6895
39.2257
33.5608
25.4831
14.6658
1.36712
-16.3458
-31.6485
-71.7489
0.000354219
-0.00303195
-0.0182814
-0.0525048
-0.10784
-0.178286
-0.248005
-0.291014
-0.271971
-0.147792
0.13013
0.613256
1.35298
2.39767
3.78986
5.56372
7.7428
10.3381
13.346
16.7474
20.5058
24.5673
28.8607
33.2961
37.7725
42.1603
46.3547
50.163
53.4072
56.8612
1.4424e-05
0.000168915
-6.59098e-05
-0.00233674
-0.00957976
-0.025773
-0.0553633
-0.102495
-0.170156
-0.25932
-0.368157
-0.491392
-0.619862
-0.740309
-0.835395
-0.883889
-0.861006
-0.738911
-0.487388
-0.0747064
0.531326
1.3622
2.44735
3.81367
5.48082
7.47787
9.7642
12.5638
14.9783
20.6186
-4.34638e-06
8.53706e-06
0.000137084
0.000497867
0.00111601
0.00177771
0.00188755
0.000359108
-0.00444258
-0.0146918
-0.0330145
-0.0623237
-0.105592
-0.165588
-0.244593
-0.344105
-0.464536
-0.604895
-0.762482
-0.932612
-1.10842
-1.28074
-1.43818
-1.56685
-1.65223
-1.67257
-1.62499
-1.43095
-1.2736
-0.41923
1.60495e-08
-1.81326e-06
-5.2421e-07
2.92603e-05
0.000144816
0.00043742
0.00102123
0.00200771
0.00346548
0.00536803
0.00753565
0.0095808
0.0108643
0.0104651
0.00716364
-0.000561227
-0.0145172
-0.0367582
-0.0695118
-0.115072
-0.175664
-0.253288
-0.349577
-0.465624
-0.601911
-0.758361
-0.932235
-1.13069
-1.30588
-1.65383
3.26879e-08
6.20698e-08
-8.52319e-07
-4.02421e-06
-9.01196e-06
-9.7452e-06
1.06267e-05
8.54213e-05
0.00026919
0.000639432
0.00129349
0.00234027
0.00388768
0.00602675
0.00881236
0.0122396
0.0162157
0.0205281
0.0248136
0.0285323
0.0309513
0.0311402
0.027984
0.0201703
0.0063492
-0.0154987
-0.0452851
-0.0918392
-0.130663
-0.260847
-2.55963e-09
1.97394e-08
4.2587e-08
-2.2661e-07
-1.59099e-06
-5.52079e-06
-1.40432e-05
-2.9069e-05
-5.08801e-05
-7.58066e-05
-9.3497e-05
-8.42684e-05
-1.676e-05
0.000154148
0.000489109
0.00106526
0.00197539
0.00332412
0.00522063
0.00776798
0.0110503
0.0151193
0.0199833
0.0255886
0.0318429
0.0384847
0.0454517
0.0518018
0.0581445
0.062817
-4.34388e-10
-1.26194e-09
6.62543e-09
3.29095e-08
6.11617e-08
-1.87608e-08
-5.49276e-07
-2.30782e-06
-6.6892e-06
-1.57465e-05
-3.20257e-05
-5.82163e-05
-9.66511e-05
-0.000148601
-0.000213211
-0.000285934
-0.00035649
-0.000406613
-0.000408039
-0.000321198
-9.4864e-05
0.000333231
0.00103534
0.00209262
0.00359089
0.00564397
0.00826008
0.0119636
0.0151362
0.024554
1.21968e-11
-3.30423e-10
-4.40889e-10
1.93736e-09
1.36603e-08
5.2838e-08
1.50947e-07
3.32302e-07
5.5975e-07
6.56263e-07
2.22707e-07
-1.4419e-06
-5.43305e-06
-1.33603e-05
-2.74701e-05
-5.06983e-05
-8.65504e-05
-0.000138736
-0.000210554
-0.000304107
-0.00041948
-0.000553983
-0.000701619
-0.000851912
-0.000991993
-0.00109298
-0.00115748
-0.00104071
-0.00103527
-2.89397e-05
1.44159e-11
-3.86315e-11
-1.20674e-10
-8.22453e-11
-1.02006e-11
7.59725e-10
7.71583e-09
3.69337e-08
1.17964e-07
2.90716e-07
5.98063e-07
1.07748e-06
1.74916e-06
2.58892e-06
3.47124e-06
4.07695e-06
3.77826e-06
1.53056e-06
-4.19556e-06
-1.54215e-05
-3.46136e-05
-6.46032e-05
-0.000108551
-0.000169825
-0.000252331
-0.000359743
-0.000495443
-0.000672495
-0.000837694
-0.00124936
4.24595e-12
1.58002e-12
-3.0949e-11
-3.23514e-11
1.96047e-11
-2.20085e-10
-1.45476e-09
-3.79812e-09
-5.10739e-09
4.8342e-10
2.35292e-08
8.09801e-08
2.00438e-07
4.26931e-07
8.28669e-07
1.4956e-06
2.52527e-06
3.99482e-06
5.92389e-06
8.23692e-06
1.07326e-05
1.30618e-05
1.47063e-05
1.49288e-05
1.27978e-05
6.49487e-06
-4.05482e-06
-2.91804e-05
-4.47446e-05
-0.000148893
2.54967e-13
3.30683e-12
-2.50604e-12
-1.74534e-11
-6.07317e-12
4.87164e-11
8.96091e-12
-4.90777e-10
-1.91704e-09
-4.61391e-09
-8.75212e-09
-1.44897e-08
-2.18253e-08
-2.92525e-08
-3.06271e-08
-1.06505e-08
5.95361e-08
2.24739e-07
5.44888e-07
1.09145e-06
1.94319e-06
3.18391e-06
4.90536e-06
7.20444e-06
1.02179e-05
1.398e-05
1.8839e-05
2.41805e-05
3.0639e-05
3.95211e-05
-1.80445e-13
6.93656e-13
1.45064e-12
-2.28202e-12
-8.39411e-12
-4.13247e-13
3.57e-11
7.28832e-11
2.31965e-11
-2.35289e-10
-8.33496e-10
-1.99724e-09
-4.3002e-09
-8.96978e-09
-1.79632e-08
-3.35184e-08
-5.7091e-08
-8.79187e-08
-1.21697e-07
-1.498e-07
-1.59085e-07
-1.31747e-07
-4.38279e-08
1.37796e-07
4.63098e-07
1.01458e-06
1.84881e-06
3.41796e-06
4.61935e-06
1.0617e-05
-5.14574e-14
-2.14681e-14
4.4111e-13
5.30216e-13
-1.24788e-12
-3.70005e-12
-6.76208e-13
1.41669e-11
3.80175e-11
5.79998e-11
6.7569e-11
8.57066e-11
1.40844e-10
1.85464e-10
-5.15678e-11
-1.21239e-09
-4.36698e-09
-1.09212e-08
-2.24043e-08
-4.0261e-08
-6.58123e-08
-1.00486e-07
-1.46252e-07
-2.05721e-07
-2.83033e-07
-3.75302e-07
-5.00028e-07
-5.73467e-07
-7.77165e-07
-5.42967e-07
-2.59224e-15
-3.58414e-14
2.11496e-14
2.12566e-13
1.82807e-13
-5.55986e-13
-1.55567e-12
-8.8424e-13
3.31267e-12
1.01151e-11
1.62455e-11
2.33673e-11
4.98967e-11
1.37048e-10
3.36489e-10
6.74879e-10
1.10586e-09
1.47265e-09
1.50323e-09
8.39779e-10
-9.29235e-10
-4.2939e-09
-9.98599e-09
-1.92437e-08
-3.45061e-08
-5.90892e-08
-9.907e-08
-1.64943e-07
-2.33161e-07
-4.72316e-07
1.61223e-15
-6.22049e-15
-1.46357e-14
1.80399e-14
8.88191e-14
6.34212e-14
-2.13352e-13
-5.95009e-13
-5.09136e-13
4.90367e-13
1.72055e-12
1.15243e-12
-2.5949e-12
-5.97125e-12
3.88255e-12
4.99897e-11
1.60363e-10
3.58118e-10
6.52815e-10
1.04119e-09
1.52232e-09
2.12384e-09
2.92134e-09
4.02891e-09
5.53541e-09
7.19958e-09
9.21023e-09
6.83965e-09
1.08304e-08
-2.38016e-08
4.18433e-16
1.88779e-16
-3.66671e-15
-5.1138e-15
9.29935e-15
3.43598e-14
2.36313e-14
-7.18243e-14
-2.04222e-13
-1.89051e-13
1.23052e-13
4.79048e-13
-3.31831e-14
-2.68292e-12
-8.03029e-12
-1.4476e-11
-1.73606e-11
-9.5569e-12
1.63293e-11
6.54992e-11
1.40973e-10
2.49187e-10
4.13007e-10
6.88891e-10
1.19522e-09
2.07012e-09
3.66094e-09
5.85692e-09
9.19858e-09
1.53294e-08
2.19407e-17
2.63799e-16
-1.46373e-16
-1.64091e-15
-1.6816e-15
3.88783e-15
1.26058e-14
9.2616e-15
-2.19566e-14
-6.63013e-14
-6.00558e-14
6.81543e-14
2.84244e-13
3.27901e-13
-2.92833e-13
-2.09756e-12
-5.26463e-12
-9.327e-12
-1.32638e-11
-1.62091e-11
-1.86361e-11
-2.33668e-11
-3.52261e-11
-5.85248e-11
-8.97654e-11
-1.10779e-10
-8.45694e-11
1.54039e-10
2.79411e-10
2.26764e-09
-1.00988e-17
4.24982e-17
1.01403e-16
-1.18867e-16
-6.45553e-16
-5.6094e-16
1.41686e-15
4.44547e-15
3.70297e-15
-6.28426e-15
-2.21333e-14
-2.34182e-14
2.08339e-14
1.23391e-13
2.38855e-13
2.43668e-13
-2.98297e-14
-6.98862e-13
-1.72232e-12
-2.88019e-12
-3.95639e-12
-5.18896e-12
-7.91407e-12
-1.51777e-11
-3.20385e-11
-6.35822e-11
-1.20594e-10
-1.81379e-10
-3.09685e-10
-3.31134e-10
-2.54627e-18
-8.23714e-19
2.30544e-17
3.37169e-17
-5.77425e-17
-2.35752e-16
-1.96279e-16
4.63341e-16
1.51465e-15
1.48003e-15
-1.61644e-15
-7.56736e-15
-1.09143e-14
-1.0139e-15
3.17433e-14
8.46849e-14
1.33847e-13
1.38299e-13
6.56853e-14
-6.54083e-14
-1.48789e-13
1.76726e-15
5.58244e-13
1.48212e-12
2.17267e-12
1.39403e-12
-3.81108e-12
-1.6702e-11
-3.51635e-11
-1.09091e-10
-1.53457e-19
-1.43776e-18
9.19461e-19
9.66233e-18
1.07395e-17
-2.25802e-17
-8.18937e-17
-7.25381e-17
1.34819e-16
4.97726e-16
5.91096e-16
-2.73852e-16
-2.3689e-15
-4.56339e-15
-3.89719e-15
3.2646e-15
1.82349e-14
3.65396e-14
4.7079e-14
3.75501e-14
8.00785e-15
-9.82523e-15
6.40259e-14
3.6017e-13
1.02644e-12
2.15813e-12
3.79477e-12
4.90292e-12
7.80998e-12
5.55548e-13
4.48649e-20
-2.25817e-19
-5.13135e-19
6.54572e-19
3.58828e-18
3.46861e-18
-7.69659e-18
-2.73714e-17
-2.75935e-17
3.35288e-17
1.56318e-16
2.30386e-16
3.62578e-17
-6.00914e-16
-1.52694e-15
-2.03456e-15
-1.00883e-15
2.32811e-15
7.19354e-15
1.0199e-14
5.60868e-15
-1.19e-14
-4.14145e-14
-6.75825e-14
-5.17584e-14
6.52986e-14
3.97116e-13
9.36395e-13
1.94504e-12
3.59332e-12
1.18061e-20
3.69153e-22
-1.12022e-19
-1.61098e-19
2.9323e-19
1.24033e-18
1.1695e-18
-2.32561e-18
-8.79045e-18
-1.04404e-17
6.03548e-18
4.55695e-17
8.35393e-17
5.72465e-17
-1.04406e-16
-4.05236e-16
-6.94209e-16
-6.46337e-16
9.26671e-17
1.55215e-15
2.94894e-15
2.30566e-15
-3.45083e-15
-1.75535e-14
-4.1123e-14
-7.10807e-14
-9.43038e-14
-8.15044e-14
-6.33286e-14
3.50087e-13
8.70487e-22
5.81364e-21
-5.28337e-21
-4.39783e-20
-4.88906e-20
1.07529e-19
4.08768e-19
4.11044e-19
-6.14425e-19
-2.69722e-18
-3.82892e-18
3.28463e-20
1.17929e-17
2.71945e-17
3.01785e-17
-3.16287e-18
-8.65365e-17
-1.94365e-16
-2.38154e-16
-7.63685e-17
4.13668e-16
1.19125e-15
1.86235e-15
1.51167e-15
-1.30808e-15
-8.31059e-15
-2.15165e-14
-3.77584e-14
-6.87206e-14
-7.17409e-14
-1.63815e-22
9.03582e-22
2.1372e-21
-2.42654e-21
-1.54903e-20
-1.84345e-20
2.79229e-20
1.28651e-19
1.69547e-19
-7.92513e-20
-7.36579e-19
-1.40389e-18
-9.43464e-19
2.00247e-18
7.47814e-18
1.22672e-17
9.23477e-18
-9.82915e-18
-4.66087e-17
-8.54217e-17
-8.45697e-17
2.13402e-17
2.9893e-16
7.68264e-16
1.33101e-15
1.72221e-15
1.32774e-15
-3.72153e-16
-4.01289e-15
-1.61363e-14
)
;

boundaryField
{
    fixedWall_Bottom
    {
        type            greyDiffusiveRadiation;
        refValue        uniform 18049.5;
        refGradient     uniform 0;
        valueFraction   uniform 1;
        source          uniform 0;
        value           uniform 18049.5;
    }
    fixedWall_Right
    {
        type            greyDiffusiveRadiation;
        refValue        uniform 0;
        refGradient     uniform 0;
        valueFraction   uniform 0;
        source          uniform 0;
        value           nonuniform List<scalar> 
30
(
17467.4
9492.67
1500.06
-1169.33
-693.05
-71.7489
56.8612
20.6186
-0.41923
-1.65383
-0.260847
0.062817
0.024554
-2.89397e-05
-0.00124936
-0.000148893
3.95211e-05
1.0617e-05
-5.42967e-07
-4.72316e-07
-2.38016e-08
1.53294e-08
2.26764e-09
-3.31134e-10
-1.09091e-10
5.55548e-13
3.59332e-12
3.50087e-13
-7.17409e-14
-1.61363e-14
)
;
    }
    fixedWall_Left
    {
        type            greyDiffusiveRadiation;
        refValue        uniform 0;
        refGradient     uniform 0;
        valueFraction   uniform 1;
        source          uniform 0;
        value           uniform 0;
    }
    fixedWall_Top
    {
        type            greyDiffusiveRadiation;
        refValue        uniform 0;
        refGradient     uniform 0;
        valueFraction   uniform 0;
        source          uniform 0;
        value           nonuniform List<scalar> 
30
(
-1.63815e-22
9.03582e-22
2.1372e-21
-2.42654e-21
-1.54903e-20
-1.84345e-20
2.79229e-20
1.28651e-19
1.69547e-19
-7.92513e-20
-7.36579e-19
-1.40389e-18
-9.43464e-19
2.00247e-18
7.47814e-18
1.22672e-17
9.23477e-18
-9.82915e-18
-4.66087e-17
-8.54217e-17
-8.45697e-17
2.13402e-17
2.9893e-16
7.68264e-16
1.33101e-15
1.72221e-15
1.32774e-15
-3.72153e-16
-4.01289e-15
-1.61363e-14
)
;
    }
    frontAndBack
    {
        type            empty;
    }
}


// ************************************************************************* //
