/*--------------------------------*- C++ -*----------------------------------*\
| =========                 |                                                 |
| \\      /  F ield         | OpenFOAM: The Open Source CFD Toolbox           |
|  \\    /   O peration     | Version:  2312                                  |
|   \\  /    A nd           | Website:  www.openfoam.com                      |
|    \\/     M anipulation  |                                                 |
\*---------------------------------------------------------------------------*/
FoamFile
{
    version     2.0;
    format      ascii;
    arch        "LSB;label=32;scalar=64";
    class       volScalarField;
    location    "0.06";
    object      ILambda_13_0;
}
// * * * * * * * * * * * * * * * * * * * * * * * * * * * * * * * * * * * * * //

dimensions      [1 0 -3 0 0 0 0];

internalField   nonuniform List<scalar> 
900
(
3083.65
8015.32
11668
14255.4
16016.6
17161.6
17861.5
18250.9
18432.6
18482.9
18456.5
18391.3
18312.2
18234.7
18167
18112.8
18072.8
18045.8
18029.5
18021.6
18019.7
18021.8
18026
18031.2
18036.4
18041.1
18045
18047.9
18050
18051.5
-673.378
-494.037
987.277
3252.72
5846.89
8441.92
10828.7
12892.2
14586
15910.9
16897.2
17591.5
18047.1
18316.9
18449.5
18487
18463.5
18405.4
18332.2
18257.2
18188.8
18131.4
18086.7
18054.5
18033.5
18021.7
18016.9
18017.3
18019.9
18028.4
-163.248
-679.098
-1036.19
-944.338
-281.531
932.906
2591.35
4545.14
6639.05
8733.29
10715.5
12505.4
14053.8
15339.4
16363.2
17142.3
17704.9
18084.8
18317.5
18437.6
18476
18459.5
18409.8
18343.6
18273
18206.3
18148.2
18101.1
18066.8
18034.6
8.94023
-88.5063
-346.694
-697.21
-1003.49
-1118.76
-927.147
-363.699
582.325
1874.89
3444.03
5200.25
7047.85
8895.72
10665.1
12294.2
13740
14977.8
15999.5
16810.7
17427.1
17871.4
18170.2
18351.2
18441.2
18464.7
18443.5
18393
18337.8
18235.6
5.19546
22.3032
5.12473
-93.4326
-292.258
-568.072
-859.983
-1084.8
-1155.51
-997.542
-560.16
177.97
1208.45
2496.88
3989.22
5619.29
7316.34
9011.69
10644
12162.9
13531.1
14724.5
15732.1
16553.9
17199.1
17683.3
18027.7
18252.4
18387.6
18443.1
-0.383334
6.52915
23.4297
37.6139
23.5241
-46.4237
-189.218
-402.2
-659.977
-917.195
-1115.56
-1192.92
-1092.43
-770.154
-200.171
623.109
1685.31
2954.67
4386.1
5926.08
7517.71
9105.35
10638.5
12074.6
13380.8
14534.9
15523.4
16352.4
16976
17690
-0.226974
-0.481616
3.11547
14.4202
32.5005
48.4748
46.1762
6.40202
-86.9235
-240.732
-448.612
-689.353
-928.377
-1121.57
-1220.65
-1179.03
-957.3
-527.609
123.575
994.392
2068.2
3315.57
4697.29
6167.99
7679.43
9185.97
10637.6
12031.6
13170.9
14847
0.0221997
-0.319075
-0.911603
-0.101236
5.01246
16.7906
34.6298
53.153
61.9621
47.2421
-5.1379
-105.81
-258.301
-456.453
-683.379
-912.141
-1107.98
-1231.73
-1243.88
-1108.66
-797.738
-292.942
412.022
1311.35
2386.98
3614.43
4945.35
6401.76
7662.23
9937.06
0.0126306
0.0122971
-0.253474
-0.929408
-1.50355
-0.463845
4.40433
15.0073
31.5309
51.1625
67.4754
70.8133
49.7175
-6.84145
-106.862
-252.842
-439.913
-654.912
-876.593
-1076.95
-1223.5
-1282.19
-1220.59
-1010.64
-632.43
-70.3151
660.909
1624.85
2500.79
4524.14
-0.00104391
0.0164546
0.027459
-0.112702
-0.605513
-1.45973
-2.16602
-1.5145
2.24524
10.8313
25.0487
43.8502
63.6446
78.1158
78.6978
55.7049
-0.0198888
-95.1861
-232.182
-407.572
-611.25
-826.385
-1030.28
-1195.64
-1293.86
-1292.09
-1177.65
-871.825
-578.293
541.557
-0.000717874
-0.000356752
0.0148592
0.0411919
0.00892715
-0.233856
-0.846521
-1.81996
-2.76119
-2.7539
-0.41303
5.80314
17.048
33.4175
53.3176
73.0461
86.7425
86.8092
64.8169
12.8041
-75.2205
-201.794
-364.847
-556.736
-764.924
-968.953
-1154.02
-1267.52
-1372
-1169.2
4.68574e-05
-0.000929475
-0.000746671
0.0100928
0.0392768
0.0654282
0.00784618
-0.27424
-0.922291
-1.9547
-3.11351
-3.74651
-2.7946
1.06534
9.10655
22.0946
39.7603
60.3212
80.1911
94.0006
94.9873
75.7504
29.2325
-50.03
-165.154
-314.758
-495.281
-694.982
-890.306
-1156.66
3.97053e-05
-1.18109e-06
-0.000827917
-0.00150806
0.00392766
0.0255806
0.0658943
0.0973592
0.0421701
-0.225528
-0.837895
-1.85008
-3.13123
-4.26059
-4.46982
-2.67795
2.34338
11.6651
25.7932
44.2405
65.1803
85.2804
99.7575
102.705
87.6201
47.826
-20.3421
-129.633
-238.013
-525.887
-2.67215e-06
4.83672e-05
2.1909e-05
-0.000629235
-0.00194216
-0.0009539
0.0101557
0.0408368
0.0908968
0.133764
0.102658
-0.109713
-0.628446
-1.54441
-2.83323
-4.25905
-5.29513
-5.10519
-2.62353
3.25375
13.3891
28.0851
46.7865
67.8218
88.411
103.938
111.302
96.0889
83.5036
-42.9252
-1.65638e-06
-3.37674e-06
4.46985e-05
7.30976e-05
-0.000365567
-0.00177507
-0.00320394
-0.000258097
0.0151548
0.0511793
0.107885
0.165782
0.173672
0.0416194
-0.35086
-1.12004
-2.31285
-3.82313
-5.31683
-6.19833
-5.64039
-2.68287
3.61837
13.9689
28.7392
47.221
69.2134
88.7946
111.898
111.588
9.72137e-07
-4.24436e-06
-7.0092e-06
4.32199e-05
0.00011817
-0.00011101
-0.0011994
-0.00318217
-0.0043661
-0.000371758
0.0158858
0.0524831
0.113449
0.188687
0.240047
0.190506
-0.0722788
-0.669095
-1.67957
-3.08173
-4.69805
-6.16314
-6.91315
-6.22168
-3.19186
2.98386
13.2626
28.1936
44.803
79.8836
5.27068e-07
7.95137e-07
-7.11167e-06
-8.42263e-06
4.24026e-05
0.000132552
5.6158e-05
-0.000569787
-0.00204476
-0.0041752
-0.00567144
-0.00305191
0.0106694
0.0456128
0.110052
0.199663
0.284381
0.300311
0.153993
-0.25881
-1.02387
-2.1764
-3.66764
-5.33677
-6.86755
-7.72751
-7.40766
-3.89534
-0.836987
20.3279
-1.43073e-08
1.27795e-06
-6.23248e-07
-8.96532e-06
-6.02974e-06
3.89247e-05
0.000111624
0.000109289
-0.000130045
-0.000817845
-0.00231138
-0.00499639
-0.00828186
-0.00859366
0.00221965
0.0355438
0.100134
0.193091
0.29178
0.350826
0.305365
0.077961
-0.413375
-1.24447
-2.47822
-4.06428
-6.07742
-7.49671
-9.98557
-6.66466
-1.37872e-07
5.30792e-07
1.17019e-06
-2.51053e-06
-8.6128e-06
-8.88801e-07
3.2173e-05
6.89383e-05
7.71774e-05
6.46951e-05
-9.34223e-06
-0.000540264
-0.00245016
-0.00656102
-0.0119382
-0.0141049
-0.00484563
0.0252525
0.0821994
0.164188
0.259317
0.345069
0.386417
0.332421
0.0984042
-0.398024
-1.35596
-2.70674
-4.62039
-7.85361
-9.07806e-08
3.89848e-08
8.92591e-07
3.45574e-07
-3.91135e-06
-6.13076e-06
4.96301e-06
2.39846e-05
2.38374e-05
1.13954e-05
8.46873e-05
0.0003254
0.000472737
-0.000329213
-0.00320383
-0.00845115
-0.0142661
-0.0163216
-0.0088273
0.0135321
0.0542715
0.115429
0.198168
0.302187
0.413935
0.502987
0.493953
0.189283
-0.1087
-2.55897
-2.77617e-08
-1.11371e-07
3.26354e-07
8.66448e-07
-7.40514e-07
-4.30564e-06
-2.54444e-06
9.73261e-06
1.65001e-05
-9.88151e-06
-4.61499e-05
3.09073e-05
0.000349469
0.000778901
0.000716478
-0.00073803
-0.00412884
-0.00891029
-0.0132844
-0.0148727
-0.0116152
-0.00163536
0.0185376
0.0570908
0.127371
0.24086
0.418851
0.548164
0.866071
0.347858
4.23723e-09
-8.74747e-08
-6.0226e-09
5.23955e-07
5.11197e-07
-1.62566e-06
-3.75261e-06
9.22774e-07
1.24365e-05
1.07774e-05
-2.78642e-05
-7.67068e-05
-2.44698e-05
0.000248909
0.000685894
0.000913077
0.000361404
-0.00133477
-0.00396363
-0.0068235
-0.00939336
-0.0120261
-0.0156578
-0.0197189
-0.0179749
0.000466398
0.0681956
0.171498
0.39054
0.670305
9.57185e-09
-3.07891e-08
-8.6082e-08
1.33372e-07
5.49992e-07
2.88907e-08
-2.069e-06
-2.65884e-06
3.43239e-06
1.29533e-05
6.76511e-06
-3.28386e-05
-8.11372e-05
-5.21541e-05
0.000142623
0.00047081
0.000705116
0.000528981
-0.000191953
-0.00120843
-0.00207782
-0.00283302
-0.00471959
-0.0102764
-0.0212986
-0.037689
-0.0481618
-0.0370635
-0.00912173
0.24057
5.154e-09
4.65564e-10
-5.3844e-08
-3.94193e-08
2.32947e-07
4.32786e-07
-3.89239e-07
-2.07199e-06
-1.47004e-06
4.71571e-06
1.17732e-05
3.94116e-06
-3.02011e-05
-6.95811e-05
-5.30585e-05
7.51366e-05
0.000284668
0.000424795
0.000320183
-2.35038e-05
-0.00028026
2.5261e-05
0.000950841
0.00134572
-0.00127457
-0.0103516
-0.0283454
-0.0458558
-0.0844352
-0.0209275
1.15671e-09
6.89664e-09
-1.44861e-08
-5.41227e-08
2.00198e-08
2.63923e-07
2.50878e-07
-6.43113e-07
-1.77701e-06
-4.84774e-07
4.94496e-06
9.64378e-06
1.85717e-06
-2.47004e-05
-5.26195e-05
-3.98665e-05
4.52887e-05
0.000170186
0.000222216
8.84405e-05
-0.000183404
-0.00026532
0.000356263
0.00194287
0.00389322
0.00441825
-0.000540891
-0.00982727
-0.0359017
-0.0565924
-3.28716e-10
4.03637e-09
2.31078e-09
-2.43016e-08
-3.71985e-08
6.5755e-08
2.36573e-07
7.6788e-08
-7.24737e-07
-1.35439e-06
1.80976e-07
4.49065e-06
7.26652e-06
3.15208e-07
-1.91452e-05
-3.70333e-05
-2.4403e-05
3.6325e-05
0.000113868
0.000118877
-3.7253e-05
-0.000320961
-0.000467399
-1.15285e-05
0.00142518
0.00383023
0.00563551
0.0056671
0.000943893
-0.0223229
-4.0838e-10
1.05164e-09
4.12862e-09
-3.65024e-09
-2.57275e-08
-1.46285e-08
8.72305e-08
1.78294e-07
-4.91488e-08
-6.79771e-07
-9.34501e-07
5.4184e-07
3.72038e-06
5.1246e-06
-7.18282e-07
-1.4594e-05
-2.54354e-05
-1.29343e-05
3.35212e-05
8.83434e-05
8.17771e-05
-6.19689e-05
-0.000338571
-0.000570731
-0.000412064
0.000582586
0.00248368
0.00462517
0.00784631
0.000302584
-1.75371e-10
-1.21084e-10
1.93534e-09
2.38573e-09
-7.75108e-09
-2.08315e-08
4.40207e-09
8.70319e-08
1.14831e-07
-1.18236e-07
-5.67283e-07
-5.88427e-07
6.72949e-07
2.89615e-06
3.44517e-06
-1.25806e-06
-1.11002e-05
-1.77307e-05
-6.69529e-06
2.95664e-05
7.31245e-05
7.27116e-05
-3.47884e-05
-0.000266381
-0.000530537
-0.000582977
-5.90869e-05
0.00098479
0.00367053
0.00436428
-3.027e-11
-2.4556e-10
3.7683e-10
1.97459e-09
1.93164e-10
-9.10129e-09
-1.3418e-08
1.61764e-08
7.40949e-08
6.18401e-08
-1.42666e-07
-4.38693e-07
-3.38313e-07
6.68264e-07
2.17837e-06
2.26706e-06
-1.40931e-06
-8.47774e-06
-1.28892e-05
-4.29558e-06
2.34538e-05
5.9534e-05
6.87039e-05
2.38592e-06
-0.000167985
-0.00040763
-0.000540298
-0.000468522
0.000309892
0.00208906
1.62395e-11
-1.03453e-10
-1.66069e-10
5.54832e-10
1.56534e-09
-5.9148e-10
-7.58689e-09
-8.96146e-09
1.42064e-08
5.43572e-08
4.35834e-08
-9.79006e-08
-3.06654e-07
-2.69002e-07
3.71291e-07
1.44042e-06
1.77532e-06
-2.88807e-07
-5.10643e-06
-9.56328e-06
-6.90083e-06
9.31099e-06
3.73501e-05
6.01224e-05
4.62873e-05
-3.9749e-05
-0.000193974
-0.000377565
-0.000560352
3.88346e-05
)
;

boundaryField
{
    fixedWall_Bottom
    {
        type            greyDiffusiveRadiation;
        refValue        uniform 18049.5;
        refGradient     uniform 0;
        valueFraction   uniform 1;
        source          uniform 0;
        value           uniform 18049.5;
    }
    fixedWall_Right
    {
        type            greyDiffusiveRadiation;
        refValue        uniform 0;
        refGradient     uniform 0;
        valueFraction   uniform 0;
        source          uniform 0;
        value           nonuniform List<scalar> 
30
(
18051.5
18028.4
18034.6
18235.6
18443.1
17690
14847
9937.06
4524.14
541.557
-1169.2
-1156.66
-525.887
-42.9252
111.588
79.8836
20.3279
-6.66466
-7.85361
-2.55897
0.347858
0.670305
0.24057
-0.0209275
-0.0565924
-0.0223229
0.000302584
0.00436428
0.00208906
3.88346e-05
)
;
    }
    fixedWall_Left
    {
        type            greyDiffusiveRadiation;
        refValue        uniform 0;
        refGradient     uniform 0;
        valueFraction   uniform 1;
        source          uniform 0;
        value           uniform 0;
    }
    fixedWall_Top
    {
        type            greyDiffusiveRadiation;
        refValue        uniform 0;
        refGradient     uniform 0;
        valueFraction   uniform 0;
        source          uniform 0;
        value           nonuniform List<scalar> 
30
(
1.62395e-11
-1.03453e-10
-1.66069e-10
5.54832e-10
1.56534e-09
-5.9148e-10
-7.58689e-09
-8.96146e-09
1.42064e-08
5.43572e-08
4.35834e-08
-9.79006e-08
-3.06654e-07
-2.69002e-07
3.71291e-07
1.44042e-06
1.77532e-06
-2.88807e-07
-5.10643e-06
-9.56328e-06
-6.90083e-06
9.31099e-06
3.73501e-05
6.01224e-05
4.62873e-05
-3.9749e-05
-0.000193974
-0.000377565
-0.000560352
3.88346e-05
)
;
    }
    frontAndBack
    {
        type            empty;
    }
}


// ************************************************************************* //
