/*--------------------------------*- C++ -*----------------------------------*\
| =========                 |                                                 |
| \\      /  F ield         | OpenFOAM: The Open Source CFD Toolbox           |
|  \\    /   O peration     | Version:  2312                                  |
|   \\  /    A nd           | Website:  www.openfoam.com                      |
|    \\/     M anipulation  |                                                 |
\*---------------------------------------------------------------------------*/
FoamFile
{
    version     2.0;
    format      ascii;
    arch        "LSB;label=32;scalar=64";
    class       volScalarField;
    location    "0.06";
    object      ILambda_49_0;
}
// * * * * * * * * * * * * * * * * * * * * * * * * * * * * * * * * * * * * * //

dimensions      [1 0 -3 0 0 0 0];

internalField   nonuniform List<scalar> 
900
(
18041.7
18061.1
18078
18100.6
18127.7
18159.7
18196.3
18237
18280.8
18326.1
18370.5
18410.8
18442.5
18459.8
18455.4
18419.9
18341.9
18207.1
17998.6
17696.2
17275.6
16708.8
15962.9
15000.2
13777.6
12246
10350.7
8031.93
5229.13
1900.23
18366.6
18426.8
18447.3
18462.1
18456.6
18426.6
18364.5
18261.9
18109.8
17898.1
17616
17252.3
16795.7
16234.9
15559.7
14761.1
13832.6
12770.8
11576.8
10257.4
8826.96
7308.81
5737.54
4161.11
2643.28
1266.15
132.507
-633.208
-889.769
-507.765
18130.8
17845.7
17600.3
17271
16871.8
16392.3
15827.2
15171.9
14423.4
13580.8
12645.9
11623.2
10520.8
9350.51
8128.22
6873.9
5611.69
4369.51
3178.56
2072.27
1084.91
249.632
-404.131
-853.959
-1088.56
-1112.7
-952.923
-663.39
-329.524
-60.5799
15285.8
14215.5
13514.8
12645.4
11727.8
10744.5
9710.12
8635.37
7534.67
6424.36
5322.69
4249.33
3224.8
2269.73
1403.94
645.524
9.65167
-492.509
-854.956
-1077.88
-1168.46
-1141.35
-1018.56
-828.713
-605.206
-383.277
-195.544
-66.0364
-3.16084
6.139
9507.12
7906.69
7026.55
5981.3
4991.04
4024.17
3106.38
2250.05
1469.43
776.544
181.32
-309.111
-690.904
-963.897
-1131.86
-1202.55
-1187.55
-1101.84
-963.096
-790.664
-604.32
-422.768
-262.048
-133.966
-44.7822
5.5909
23.5057
20.2345
9.05326
0.828116
3347.94
2034.64
1448.92
778.82
231.178
-237.22
-612.207
-896.416
-1091.79
-1203.73
-1239.98
-1210.56
-1127.33
-1003.41
-852.562
-688.416
-523.747
-369.719
-235.208
-126.271
-45.8242
6.39671
33.5516
41.0644
35.6769
24.2711
12.629
4.38962
0.549211
-0.155076
-397.812
-923.064
-1059.36
-1206.02
-1262.88
-1265.48
-1215.43
-1124.45
-1002.56
-860.512
-708.599
-556.353
-412.059
-282.397
-172.183
-84.2252
-19.3281
23.5632
47.0787
55.011
51.8029
41.987
29.6415
17.9393
8.86175
3.13447
0.411397
-0.317493
-0.193353
-0.00831833
-1278.17
-1203.66
-1097.57
-975.972
-836.827
-693.013
-550.088
-414.927
-292.467
-186.5
-99.3139
-31.7746
16.5938
47.4151
63.2015
67.0464
62.299
52.2478
39.8378
27.4455
16.7342
8.60901
3.27623
0.39713
-0.695474
-0.760873
-0.444399
-0.148706
-0.0128238
0.00544553
-723.056
-503.473
-396.135
-277.45
-178.958
-96.049
-30.5924
17.9859
50.8388
69.8314
77.318
75.9236
68.325
57.0419
44.2662
31.7416
20.7024
11.8683
5.4892
1.43116
-0.708305
-1.47022
-1.40884
-0.991484
-0.539316
-0.214625
-0.0490099
0.00278463
0.00489008
7.37863e-05
-120.377
-7.43986
24.2709
59.4371
77.5111
86.2076
86.2149
80.0615
69.7725
57.2789
44.207
31.833
21.0432
12.3387
5.87586
1.53524
-0.994483
-2.13033
-2.31691
-1.96307
-1.39705
-0.842865
-0.419012
-0.156643
-0.0301181
0.0101218
0.011314
0.00401265
0.000157867
-0.000168698
90.0089
97.3688
88.2413
79.2346
66.5819
53.5049
40.5742
28.8064
18.7269
10.6502
4.63768
0.556985
-1.86784
-2.99448
-3.20333
-2.84804
-2.22177
-1.54049
-0.941079
-0.490053
-0.198934
-0.0430713
0.0190569
0.0294216
0.0198749
0.00857356
0.0020354
-5.78848e-05
-0.000155795
2.85393e-06
66.7384
45.2266
34.5835
23.4418
14.5237
7.501
2.34638
-1.10948
-3.13133
-4.01792
-4.08485
-3.63
-2.91029
-2.12435
-1.40598
-0.82776
-0.412693
-0.149544
-0.00799207
0.0490315
0.0565755
0.042276
0.0240076
0.0103144
0.00294833
0.000217024
-0.000257852
-0.000110988
-1.58048e-06
5.27593e-06
13.5794
2.28854
-0.283489
-3.26937
-4.53903
-5.01379
-4.81316
-4.20973
-3.398
-2.5367
-1.73925
-1.07534
-0.574968
-0.235982
-0.0345355
0.0637874
0.0943901
0.0873324
0.0645672
0.0398915
0.0203258
0.00795929
0.00184079
-0.000264171
-0.000507509
-0.000255855
-6.14858e-05
1.70842e-06
4.51998e-06
4.03073e-09
-5.48414
-6.21331
-5.3035
-4.58803
-3.60582
-2.69663
-1.86776
-1.18202
-0.651582
-0.275117
-0.0355779
0.0932701
0.142011
0.140521
0.11387
0.0799718
0.0492992
0.0262756
0.0114037
0.00323364
-0.000304191
-0.00117942
-0.000913021
-0.000435771
-0.000127759
-1.31674e-05
5.46198e-06
2.11073e-06
1.43618e-07
-4.66235e-08
-4.22919
-2.5447
-1.81638
-1.10228
-0.585214
-0.225256
0.00714317
0.136506
0.190942
0.194173
0.167181
0.12687
0.0856093
0.0509325
0.0259353
0.0103752
0.0021578
-0.00128539
-0.00211508
-0.00178287
-0.00111826
-0.000531104
-0.000168611
-1.62171e-05
1.44332e-05
6.73423e-06
3.17297e-07
-2.62612e-07
1.20251e-07
1.1902e-10
-0.729433
0.0147642
0.101657
0.235072
0.257471
0.246123
0.20979
0.164232
0.118194
0.0772345
0.0444768
0.0210307
0.00638336
-0.00115887
-0.00385408
-0.00388164
-0.00287733
-0.00177806
-0.000946668
-0.000422514
-0.00013494
-6.52101e-06
2.69767e-05
1.87323e-05
4.95954e-06
-7.34993e-07
-6.21981e-07
1.40434e-07
9.75796e-08
-2.71942e-08
0.338672
0.33828
0.254646
0.199991
0.138377
0.0917495
0.0551751
0.0291099
0.0115465
0.000847001
-0.00460228
-0.00633634
-0.00580346
-0.00425418
-0.00259656
-0.00132058
-0.000546205
-0.000168847
-2.08746e-05
2.51644e-05
3.25562e-05
2.45289e-05
1.18277e-05
2.30018e-06
-1.12313e-06
-7.50307e-07
6.15872e-08
1.48707e-07
-3.73802e-09
-1.46142e-08
0.207322
0.0963626
0.0603202
0.0278319
0.00869231
-0.00152099
-0.00648539
-0.00806548
-0.0078072
-0.00654503
-0.00485231
-0.00314123
-0.00170762
-0.000708126
-0.000150346
7.1156e-05
0.000104048
7.08783e-05
3.71562e-05
1.90804e-05
1.05182e-05
4.73954e-06
6.22194e-07
-9.77162e-07
-6.65031e-07
-2.45405e-08
1.38654e-07
2.93693e-08
-2.12379e-08
-1.51138e-09
0.0212264
-0.0149852
-0.0125327
-0.0145672
-0.0117891
-0.00898657
-0.00638233
-0.00430661
-0.00273597
-0.00156611
-0.000728039
-0.000183395
0.000104246
0.000194633
0.000167649
0.000100027
4.22914e-05
1.16902e-05
2.26472e-06
1.42142e-06
1.21637e-06
1.54412e-07
-5.83795e-07
-4.77611e-07
-7.37878e-08
9.71419e-08
4.57363e-08
-1.15174e-08
-9.02487e-09
1.71185e-09
-0.0193924
-0.0155974
-0.00962951
-0.00632176
-0.00336147
-0.00172344
-0.000766611
-0.0002711
-7.47358e-06
0.00013425
0.000196841
0.000197298
0.000154235
9.36577e-05
4.02894e-05
7.66315e-06
-4.39561e-06
-4.39603e-06
-1.28398e-06
3.56154e-07
2.56741e-07
-2.2504e-07
-2.9675e-07
-8.6765e-08
5.36416e-08
4.45491e-08
-2.91937e-10
-9.6642e-09
-9.36964e-10
1.03367e-09
-0.00828609
-0.00222038
-0.000886834
0.00013068
0.000470607
0.000453068
0.000348409
0.000242553
0.000173337
0.000129562
9.43893e-05
5.97828e-05
2.80599e-05
5.181e-06
-5.89414e-06
-7.32445e-06
-4.19015e-06
-9.74392e-07
4.29079e-07
3.83862e-07
-2.42152e-08
-1.72268e-07
-7.92235e-08
2.21161e-08
3.44476e-08
6.33648e-09
-6.73181e-09
-2.75341e-09
8.74719e-10
2.30803e-10
-0.000102191
0.00131346
0.000845201
0.000692024
0.000405464
0.000210368
9.74905e-05
4.6313e-05
2.79497e-05
1.94957e-05
1.11295e-05
2.30333e-06
-4.06705e-06
-6.19867e-06
-4.84619e-06
-2.21755e-06
-2.16352e-07
5.10444e-07
3.68391e-07
3.96432e-08
-1.01647e-07
-6.37104e-08
4.39644e-09
2.30007e-08
8.22045e-09
-3.38497e-09
-2.98836e-09
9.756e-11
5.21631e-10
-3.6654e-11
0.00093791
0.000618787
0.00028686
0.000129731
1.77413e-05
-1.71912e-05
-1.98464e-05
-1.05699e-05
-2.87857e-06
-4.46765e-07
-1.49444e-06
-3.02048e-06
-3.27056e-06
-2.2282e-06
-8.09617e-07
1.53693e-07
4.25686e-07
2.63998e-07
3.6279e-08
-6.35783e-08
-4.67853e-08
-3.04806e-09
1.39052e-08
7.32255e-09
-1.06129e-09
-2.33741e-09
-4.17303e-10
4.014e-10
1.14951e-10
-4.55253e-11
0.00028567
1.1938e-05
-2.99836e-05
-4.97193e-05
-4.26846e-05
-2.46474e-05
-1.0106e-05
-1.88008e-06
5.78233e-07
7.22919e-08
-9.36499e-07
-1.25339e-06
-8.46723e-07
-2.1766e-07
1.95696e-07
2.7541e-07
1.54695e-07
1.78255e-08
-4.09603e-08
-3.16366e-08
-4.66973e-09
7.88901e-09
5.45912e-09
1.09623e-10
-1.51147e-09
-5.64486e-10
1.94218e-10
1.57836e-10
-1.43482e-11
-1.49405e-11
-2.05201e-05
-7.01836e-05
-4.073e-05
-2.67052e-05
-1.09675e-05
-1.73723e-06
1.88467e-06
2.06547e-06
9.18614e-07
-9.81624e-08
-4.76574e-07
-3.47089e-07
-5.95046e-08
1.28121e-07
1.51321e-07
7.93596e-08
5.06217e-09
-2.57697e-08
-1.97742e-08
-3.86093e-09
4.32645e-09
3.64975e-09
5.02432e-10
-8.55781e-10
-4.94047e-10
4.45549e-11
1.28281e-10
1.87945e-11
-1.89272e-11
-1.05372e-12
-3.72397e-05
-2.22068e-05
-7.3237e-06
-1.08331e-06
2.58497e-06
2.85614e-06
1.8509e-06
6.83536e-07
-5.41769e-08
-2.815e-07
-1.9546e-07
-3.18178e-08
6.76677e-08
7.71355e-08
3.82297e-08
-1.47119e-10
-1.53783e-08
-1.15192e-08
-2.53101e-09
2.3444e-09
2.2641e-09
5.09613e-10
-4.38394e-10
-3.54331e-10
-2.67679e-11
8.04246e-11
3.003e-11
-9.49082e-12
-6.06035e-12
1.15512e-12
-9.12155e-06
1.08958e-06
2.57341e-06
2.73823e-06
2.01314e-06
9.63069e-07
2.07399e-07
-1.60404e-07
-2.17069e-07
-1.24959e-07
-1.90515e-08
3.64927e-08
3.98053e-08
1.84327e-08
-1.35958e-09
-8.7273e-09
-6.34419e-09
-1.44619e-09
1.27065e-09
1.32909e-09
3.8484e-10
-2.08229e-10
-2.25311e-10
-4.56309e-11
4.19706e-11
2.66771e-11
-1.48959e-12
-5.6153e-12
-4.73374e-13
5.59608e-13
1.00049e-06
2.72629e-06
1.56152e-06
9.07627e-07
2.82826e-07
-7.18095e-08
-1.81408e-07
-1.48874e-07
-6.88941e-08
-4.64979e-09
2.29373e-08
2.16315e-08
9.03206e-09
-1.33094e-09
-4.81549e-09
-3.35999e-09
-7.49572e-10
6.92086e-10
7.47655e-10
2.50336e-10
-9.39844e-11
-1.32228e-10
-4.04093e-11
1.86309e-11
1.86534e-11
2.2366e-12
-3.48568e-12
-1.23573e-12
3.93347e-13
1.06745e-13
1.20957e-06
7.47631e-07
2.00529e-07
-1.90041e-08
-1.35971e-07
-1.32212e-07
-8.11381e-08
-2.79466e-08
5.15219e-09
1.56178e-08
1.1952e-08
4.26178e-09
-1.12409e-09
-2.65444e-09
-1.73907e-09
-3.5759e-10
3.80634e-10
4.07945e-10
1.48289e-10
-4.15876e-11
-7.3618e-11
-2.87183e-11
6.90338e-12
1.13493e-11
2.99695e-12
-1.65324e-12
-1.16835e-12
4.62588e-14
1.90537e-13
-9.54643e-15
2.018e-07
-7.42553e-08
-1.04586e-07
-9.23702e-08
-6.04455e-08
-2.40472e-08
-2.46705e-10
9.60227e-09
9.44213e-09
5.07215e-09
8.96606e-10
-1.21104e-09
-1.40614e-09
-7.13513e-10
-4.04736e-11
2.39557e-10
1.97975e-10
5.81011e-11
-2.87559e-11
-3.83131e-11
-1.41691e-11
3.7883e-12
6.17318e-12
1.9008e-12
-7.97772e-13
-7.58452e-13
-6.31026e-14
1.30712e-13
2.8591e-14
-1.3306e-14
)
;

boundaryField
{
    fixedWall_Bottom
    {
        type            greyDiffusiveRadiation;
        refValue        uniform 18049.5;
        refGradient     uniform 0;
        valueFraction   uniform 1;
        source          uniform 0;
        value           uniform 18049.5;
    }
    fixedWall_Right
    {
        type            greyDiffusiveRadiation;
        refValue        uniform 0;
        refGradient     uniform 0;
        valueFraction   uniform 1;
        source          uniform 0;
        value           uniform 0;
    }
    fixedWall_Left
    {
        type            greyDiffusiveRadiation;
        refValue        uniform 0;
        refGradient     uniform 0;
        valueFraction   uniform 0;
        source          uniform 0;
        value           nonuniform List<scalar> 
30
(
18041.7
18366.6
18130.8
15285.8
9507.12
3347.94
-397.812
-1278.17
-723.056
-120.377
90.0089
66.7384
13.5794
-5.48414
-4.22919
-0.729433
0.338672
0.207322
0.0212264
-0.0193924
-0.00828609
-0.000102191
0.00093791
0.00028567
-2.05201e-05
-3.72397e-05
-9.12155e-06
1.00049e-06
1.20957e-06
2.018e-07
)
;
    }
    fixedWall_Top
    {
        type            greyDiffusiveRadiation;
        refValue        uniform 0;
        refGradient     uniform 0;
        valueFraction   uniform 0;
        source          uniform 0;
        value           nonuniform List<scalar> 
30
(
2.018e-07
-7.42553e-08
-1.04586e-07
-9.23702e-08
-6.04455e-08
-2.40472e-08
-2.46705e-10
9.60227e-09
9.44213e-09
5.07215e-09
8.96606e-10
-1.21104e-09
-1.40614e-09
-7.13513e-10
-4.04736e-11
2.39557e-10
1.97975e-10
5.81011e-11
-2.87559e-11
-3.83131e-11
-1.41691e-11
3.7883e-12
6.17318e-12
1.9008e-12
-7.97772e-13
-7.58452e-13
-6.31026e-14
1.30712e-13
2.8591e-14
-1.3306e-14
)
;
    }
    frontAndBack
    {
        type            empty;
    }
}


// ************************************************************************* //
