/*--------------------------------*- C++ -*----------------------------------*\
| =========                 |                                                 |
| \\      /  F ield         | OpenFOAM: The Open Source CFD Toolbox           |
|  \\    /   O peration     | Version:  2312                                  |
|   \\  /    A nd           | Website:  www.openfoam.com                      |
|    \\/     M anipulation  |                                                 |
\*---------------------------------------------------------------------------*/
FoamFile
{
    version     2.0;
    format      ascii;
    arch        "LSB;label=32;scalar=64";
    class       volScalarField;
    location    "0.06";
    object      ILambda_57_0;
}
// * * * * * * * * * * * * * * * * * * * * * * * * * * * * * * * * * * * * * //

dimensions      [1 0 -3 0 0 0 0];

internalField   nonuniform List<scalar> 
900
(
18049.5
18049.5
18049.5
18049.5
18049.5
18049.5
18049.5
18049.5
18049.5
18049.5
18049.5
18049.5
18049.5
18049.5
18049.5
18049.5
18049.5
18049.4
18049.2
18049.3
18050.2
18052.1
18050.9
18037.1
18013.8
18050.3
18311
18752.6
17887
10596.8
18049.5
18049.5
18049.5
18049.5
18049.5
18049.5
18049.5
18049.5
18049.5
18049.5
18049.5
18049.5
18049.5
18049.5
18049.5
18049.5
18049.3
18049.1
18049.8
18051.9
18053
18044.1
18017.7
18005
18125.8
18518
18887.3
17700.2
12310.8
2750.88
18049.5
18049.5
18049.5
18049.5
18049.5
18049.5
18049.5
18049.5
18049.5
18049.5
18049.5
18049.5
18049.5
18049.5
18049.4
18049.2
18049.2
18050.5
18053
18052.2
18037.5
18006.5
18006.4
18166.4
18585.1
18916.2
17854.4
13537.6
6013.68
-101.814
18049.5
18049.5
18049.5
18049.5
18049.5
18049.5
18049.5
18049.5
18049.5
18049.5
18049.5
18049.5
18049.5
18049.3
18049.1
18049.4
18051.2
18053.8
18051.1
18032.3
17999.2
18006.9
18182.8
18604.1
18940.2
18087.9
14549.2
8149
1752.58
-619.492
18049.5
18049.5
18049.5
18049.5
18049.5
18049.5
18049.5
18049.5
18049.5
18049.5
18049.5
18049.5
18049.2
18049
18049.6
18051.8
18054.3
18050.2
18028.6
17994.2
18004.9
18182.8
18596.8
18956.5
18324.6
15415.8
9869.46
3577.93
-199.944
-404.049
18049.5
18049.5
18049.5
18049.5
18049.5
18049.5
18049.5
18049.5
18049.5
18049.5
18049.4
18049.2
18049
18049.8
18052.2
18054.7
18049.5
18026.3
17990.9
18000.8
18172.1
18573
18960.1
18534.2
16157.5
11331.3
5307.2
751.375
-657.625
-136.892
18049.5
18049.5
18049.5
18049.5
18049.5
18049.5
18049.5
18049.5
18049.5
18049.4
18049.1
18049
18049.9
18052.6
18055
18049.3
18025.1
17988.7
17995.3
18154.8
18538.3
18949.7
18706.8
16788.3
12598
6925.25
1938.39
-458.459
-482.658
5.28239
18049.5
18049.5
18049.5
18049.5
18049.5
18049.5
18049.5
18049.5
18049.3
18049
18049
18050
18052.9
18055.3
18049.3
18024.8
17987.6
17989.2
18133.6
18496.4
18925.5
18840.5
17319.9
13703.1
8430.66
3241.44
60.3176
-656.971
-202.795
42.116
18049.5
18049.5
18049.5
18049.5
18049.5
18049.5
18049.4
18049.3
18049
18049
18050.2
18053.1
18055.6
18049.7
18025.3
17987.3
17983.1
18110.6
18449.8
18889
18936.9
17762.3
14667.1
9823.27
4595.4
816.852
-620.241
-439.015
-21.4158
31.1827
18049.5
18049.5
18049.5
18049.4
18049.4
18049.4
18049.3
18049
18049.1
18050.3
18053.4
18055.9
18050.3
18026.5
17987.9
17977.5
18087.1
18400.7
18842.1
18999.3
18124.8
15504.9
11103.3
5958.09
1748.18
-368.629
-613.988
-175.104
44.9348
11.9989
18049.5
18049.5
18049.5
18049.5
18049.5
18049.4
18049.2
18049.2
18050.5
18053.5
18056.2
18051
18028.1
17989.3
17972.8
18064.3
18350.7
18787
19031.6
18416
16228.1
12271.4
7299.99
2803.87
81.7668
-674.61
-362.727
-10.099
44.1944
-0.0201348
18049.5
18049.5
18049.5
18049.6
18049.5
18049.3
18049.3
18050.5
18053.4
18056.2
18051.7
18030
17991.3
17969.1
18042.9
18301.1
18725.7
19037.8
18643.8
16847
13329.4
8599.57
3942.79
706.63
-593.838
-533.427
-124.37
49.1771
22.5763
-3.8297
18049.4
18049.5
18049.6
18049.6
18049.3
18049.2
18050.2
18053.1
18056
18052.4
18032.1
17994
17966.7
18023.4
18253.1
18660.4
19022.2
18815.7
17370.7
14279.7
9840.94
5130.99
1478.7
-361.541
-646.485
-274.535
11.4127
46.4583
4.56284
-3.1527
18049.4
18049.7
18049.6
18049.2
18048.9
18049.7
18052.5
18055.6
18053
18034.5
17997.4
17965.7
18006.3
18207.5
18592.8
18988.5
18938.7
17807.9
15125.8
11012.5
6340.2
2370.23
21.2441
-672.079
-431.478
-70.7581
53.7534
24.0366
-3.63881
-1.36322
18049.7
18049.6
18049
18048.5
18049.1
18051.7
18055.3
18053.9
18037.5
18001.6
17966.3
17991.9
18165
18524.7
18940.5
19019.4
18166.9
15871.8
12106
7546.93
3354.3
546.07
-590.414
-566.066
-187.949
31.9672
44.8861
5.17583
-4.6427
-0.0902666
18049.8
18048.8
18048.1
18048.5
18051.2
18055.4
18055.3
18041.1
18006.8
17968.4
17980.2
18126
18457.3
18881.5
19064
18455.5
16522.7
13116
8731.8
4405.51
1199.64
-390.319
-652.293
-323.973
-23.8102
55.7181
21.7556
-3.75726
-2.73953
0.385322
18049.1
18047.6
18048
18051
18055.9
18057.3
18045.3
18012.7
17971.7
17970.8
18090.5
18391.7
18814.4
19078.1
18681.3
17084
14039.4
9878.97
5500.43
1965.64
-67.7419
-668.783
-459.341
-111.349
46.8963
40.5879
3.78044
-5.10478
-0.759522
0.358726
18047.7
18047.8
18051.4
18057.1
18059.9
18049.9
18018.9
17975.6
17963.2
18058.2
18328.4
18741.7
19066.9
18851.6
17561.6
14874.9
10975.7
6617.79
2826.09
375.661
-599.325
-573.85
-222.704
12.4799
54.157
17.5736
-4.33033
-3.1751
0.295958
0.173601
18047.5
18052.1
18058.7
18062.8
18054.4
18024.6
17979.3
17956.6
18028.8
18268
18665.6
19035.2
18973.3
17961.8
15623
12012.1
7738.55
3762.24
933.77
-432.846
-648.364
-345.915
-49.081
55.0012
34.4507
1.52558
-5.25643
-0.995124
0.523193
0.0240553
18050.9
18060.6
18065.3
18058
18029
17981.9
17950.2
18001.7
18210.9
18588.5
18987.8
19053.4
18291.2
16285.4
12980.7
8845.98
4755.31
1597.05
-163.11
-665.976
-466.626
-135.07
37.2371
49.4163
12.6506
-5.00265
-3.17877
0.250957
0.351076
-0.0403044
18058.4
18067.4
18060
18031.4
17982.8
17943.5
17976.8
18157.9
18512.6
18929.1
19098.6
18556.7
16865.1
13876.2
9925.62
5787.07
2353.49
211.739
-612.741
-569.503
-239.082
-2.50569
56.8022
27.3486
-0.84506
-5.16764
-0.964148
0.578385
0.120663
-0.0434861
18065.4
18060.5
18031.3
17981.6
17936.4
17954.4
18109.9
18440.2
18863.7
19115.4
18765.4
17366.1
14695.1
10965.2
6840.21
3189.44
689.78
-478.065
-639.443
-351.865
-64.6469
51.3529
42.3789
7.75563
-5.5069
-2.91503
0.284485
0.422428
-0.019761
-0.0235129
18062.1
18029
17978.9
17929.7
17935.5
18068.5
18374
18796.1
19110.5
18924.5
17793
15435.7
11954.3
7898.59
4090.34
1266.04
-254.734
-662.522
-462.312
-146.662
29.1125
53.59
20.0399
-2.89508
-4.8492
-0.774863
0.606087
0.166238
-0.0605229
-0.00502196
18038.3
17974.1
17924.8
17921.3
18035.2
18316.6
18730.6
19090
19041.2
18151
16097.3
12884.3
8947.17
5041.18
1933.18
61.3654
-626.556
-558.439
-243.484
-12.0185
56.6839
34.0338
3.35566
-5.69849
-2.47501
0.361092
0.440274
-0.00461594
-0.0459034
0.00393635
17994.6
17921
17915.8
18013.4
18271.7
18671.9
19060.4
19122.7
18445.8
16680.4
13747.8
9971.89
6026.6
2681.99
471.669
-521.247
-628.102
-348.114
-72.1466
47.8848
46.9265
13.0777
-4.4304
-4.31125
-0.494828
0.609328
0.173465
-0.0630098
-0.0184568
0.0051005
17944.6
17910.5
17999.9
18235.2
18617.4
19021.4
19171.2
18679.7
17184.4
14538
10959.4
7031.21
3501.82
975.366
-338.086
-659.377
-452.186
-149.567
24.3186
55.543
25.2876
-0.345816
-5.55582
-1.90603
0.458478
0.413749
-0.00467831
-0.0523775
0.000178251
0.00289513
17934.1
18009.5
18230.4
18593.5
19002.4
19216.5
18879.4
17626.7
15259.4
11901.8
8039.84
4379.18
1567.99
-71.0664
-640.785
-546.082
-240.846
-15.862
56.6537
38.3698
6.80637
-5.45424
-3.59722
-0.149369
0.593554
0.143072
-0.0648791
-0.0216512
0.00632618
0.000586622
17976.4
18196.6
18518.6
18904.1
19148.4
18932.1
17902.2
15822.3
12729.4
9005.56
5290.18
2246.11
290.541
-556.506
-617.41
-341.205
-74.1741
46.7391
50.2186
16.9488
-3.2868
-5.16329
-1.25942
0.579162
0.35586
-0.0269522
-0.0518354
0.00101787
0.00474558
-0.000548888
18142.3
18572.8
18992.1
19339.9
19301.6
18522.5
16723.3
13860.8
10226.3
6404.21
3076.34
753.502
-420.392
-678.361
-455.875
-151.971
25.1445
60.2598
30.0261
1.31678
-6.31462
-2.86233
0.277899
0.602917
0.0790962
-0.0815766
-0.0168744
0.00981351
0.000970788
-0.000672495
18479.2
18899
19009.2
18725.8
17734.3
15835.5
13030.1
9595.29
6043.3
2960.24
786.568
-346.699
-633.348
-453.152
-169.9
10.7421
57.5518
33.7323
4.39592
-5.92297
-3.58056
-0.082785
0.675083
0.173205
-0.0863102
-0.0358611
0.0119099
0.00450309
-0.00183771
-2.61566e-05
)
;

boundaryField
{
    fixedWall_Bottom
    {
        type            greyDiffusiveRadiation;
        refValue        uniform 18049.5;
        refGradient     uniform 0;
        valueFraction   uniform 1;
        source          uniform 0;
        value           uniform 18049.5;
    }
    fixedWall_Right
    {
        type            greyDiffusiveRadiation;
        refValue        uniform 0;
        refGradient     uniform 0;
        valueFraction   uniform 1;
        source          uniform 0;
        value           uniform 0;
    }
    fixedWall_Left
    {
        type            greyDiffusiveRadiation;
        refValue        uniform 0;
        refGradient     uniform 0;
        valueFraction   uniform 0;
        source          uniform 0;
        value           nonuniform List<scalar> 
30
(
18049.5
18049.5
18049.5
18049.5
18049.5
18049.5
18049.5
18049.5
18049.5
18049.5
18049.5
18049.5
18049.4
18049.4
18049.7
18049.8
18049.1
18047.7
18047.5
18050.9
18058.4
18065.4
18062.1
18038.3
17994.6
17944.6
17934.1
17976.4
18142.3
18479.2
)
;
    }
    fixedWall_Top
    {
        type            greyDiffusiveRadiation;
        refValue        uniform 0;
        refGradient     uniform 0;
        valueFraction   uniform 0;
        source          uniform 0;
        value           nonuniform List<scalar> 
30
(
18479.2
18899
19009.2
18725.8
17734.3
15835.5
13030.1
9595.29
6043.3
2960.24
786.568
-346.699
-633.348
-453.152
-169.9
10.7421
57.5518
33.7323
4.39592
-5.92297
-3.58056
-0.082785
0.675083
0.173205
-0.0863102
-0.0358611
0.0119099
0.00450309
-0.00183771
-2.61566e-05
)
;
    }
    frontAndBack
    {
        type            empty;
    }
}


// ************************************************************************* //
