/*--------------------------------*- C++ -*----------------------------------*\
| =========                 |                                                 |
| \\      /  F ield         | OpenFOAM: The Open Source CFD Toolbox           |
|  \\    /   O peration     | Version:  2312                                  |
|   \\  /    A nd           | Website:  www.openfoam.com                      |
|    \\/     M anipulation  |                                                 |
\*---------------------------------------------------------------------------*/
FoamFile
{
    version     2.0;
    format      ascii;
    arch        "LSB;label=32;scalar=64";
    class       volScalarField;
    location    "0.06";
    object      ILambda_4_0;
}
// * * * * * * * * * * * * * * * * * * * * * * * * * * * * * * * * * * * * * //

dimensions      [1 0 -3 0 0 0 0];

internalField   nonuniform List<scalar> 
900
(
12730.3
18624.1
18509.4
18096.3
18023.9
18042.2
18050.9
18050.4
18049.5
18049.4
18049.5
18049.5
18049.5
18049.5
18049.5
18049.5
18049.5
18049.5
18049.5
18049.5
18049.5
18049.5
18049.5
18049.5
18049.5
18049.5
18049.5
18049.5
18049.5
18049.5
5731.7
16122.3
18949.9
18576.6
18110.6
18012.6
18034.9
18050.1
18051.1
18049.7
18049.3
18049.4
18049.5
18049.5
18049.5
18049.5
18049.5
18049.5
18049.5
18049.5
18049.5
18049.5
18049.5
18049.5
18049.5
18049.5
18049.5
18049.5
18049.5
18049.5
1908.14
11705.5
17849.3
19013
18463.7
18070.9
18005.9
18034.4
18050.5
18051.4
18049.8
18049.3
18049.4
18049.5
18049.5
18049.5
18049.5
18049.5
18049.5
18049.5
18049.5
18049.5
18049.5
18049.5
18049.5
18049.5
18049.5
18049.5
18049.5
18049.5
155.064
7235.29
15152.5
18712
18913.6
18322.3
18029.5
18004.7
18037.4
18051.5
18051.5
18049.8
18049.3
18049.4
18049.5
18049.5
18049.5
18049.5
18049.5
18049.5
18049.5
18049.5
18049.5
18049.5
18049.5
18049.5
18049.5
18049.5
18049.5
18049.5
-444.928
3706.36
11525.6
17267.2
19048.7
18727.5
18192.2
18001
18009
18041.8
18052.4
18051.4
18049.7
18049.3
18049.4
18049.5
18049.5
18049.5
18049.5
18049.5
18049.5
18049.5
18049.5
18049.5
18049.5
18049.5
18049.5
18049.5
18049.5
18049.5
-498.841
1379.13
7791.41
14739
18455.7
19061.5
18516.5
18091
17988
18017.2
18046.4
18053.1
18051.1
18049.5
18049.3
18049.4
18049.5
18049.5
18049.5
18049.5
18049.5
18049.5
18049.5
18049.5
18049.5
18049.5
18049.5
18049.5
18049.5
18049.5
-355.792
101.615
4572.54
11538.1
16930.7
19000.1
18900.8
18323.1
18023.7
17988.1
18027
18050.2
18053.2
18050.7
18049.4
18049.3
18049.4
18049.5
18049.5
18049.5
18049.5
18049.5
18049.5
18049.5
18049.5
18049.5
18049.5
18049.5
18049.5
18049.5
-188.577
-432.029
2177.31
8199.69
14551.5
18262.3
19127.8
18672.3
18169.6
17987.5
17996.9
18036.5
18052.8
18052.9
18050.3
18049.2
18049.3
18049.4
18049.5
18049.5
18049.5
18049.5
18049.5
18049.5
18049.5
18049.5
18049.5
18049.5
18049.5
18049.5
-64.1026
-526.898
639.33
5188.94
11619.9
16726.2
18937.2
19016.3
18443.5
18062.9
17975.5
18010
18044.5
18054.1
18052.3
18049.8
18049.2
18049.3
18049.5
18049.5
18049.5
18049.5
18049.5
18049.5
18049.5
18049.5
18049.5
18049.5
18049.5
18049.5
6.01224
-417.745
-181.002
2796.28
8537.16
14468.5
18121.3
19156.8
18794.7
18251.3
17999.7
17979.9
18023.8
18050.2
18054.4
18051.5
18049.5
18049.2
18049.4
18049.5
18049.5
18049.5
18049.5
18049.5
18049.5
18049.5
18049.5
18049.5
18049.5
18049.5
33.3875
-253.823
-494.111
1120.28
5678.45
11729.6
16599.2
18878.7
19095.8
18549
18110.1
17971.3
17993.2
18036
18053.7
18053.9
18050.7
18049.2
18049.1
18049.4
18049.5
18049.5
18049.5
18049.5
18049.5
18049.5
18049.5
18049.5
18049.5
18049.5
35.0952
-111.765
-506.807
107.912
3308.73
8832.31
14442.9
18019.5
19168.2
18891.3
18329.7
18020.3
17967.4
18009.9
18045.5
18055.3
18053
18050
18049
18049.2
18049.4
18049.5
18049.5
18049.5
18049.5
18049.5
18049.5
18049.5
18049.5
18049.5
25.5068
-18.1959
-381.968
-382.275
1551.71
6092.87
11852.7
16521.9
18829.4
19152.7
18639.8
18160.3
17973.8
17978.3
18025.9
18051.8
18055.4
18051.9
18049.5
18049
18049.2
18049.4
18049.5
18049.5
18049.5
18049.5
18049.5
18049.5
18049.5
18049.5
13.855
28.4423
-226.339
-520.076
403.248
3752.68
9099.71
14452.3
17947.1
19171.5
18968.6
18402.3
18046.1
17959.4
17995.9
18039
18055.3
18054.7
18051
18049.2
18049
18049.3
18049.5
18049.5
18049.5
18049.5
18049.5
18049.5
18049.5
18049.5
4.65661
41.4708
-96.1785
-460.555
-229.789
1945.07
6458.12
11982.8
16478.5
18790
19194.8
18717.9
18210.4
17981.4
17965.5
18014.7
18048.4
18056.5
18053.6
18050.2
18049.1
18049.1
18049.4
18049.5
18049.5
18049.5
18049.5
18049.5
18049.5
18049.5
-0.827692
35.856
-11.0306
-321.337
-483.655
695.459
4149.12
9347.44
14484.8
17896.9
19171.5
19031.4
18468.5
18074.8
17955.2
17982.4
18031
18054
18056.2
18052.2
18049.7
18049.1
18049.2
18049.4
18049.5
18049.5
18049.5
18049.5
18049.5
18049.5
-3.09019
23.3362
31.3552
-177.042
-498.589
-54.6822
2308.72
6788.69
12116.8
16459.3
18759.7
19227.1
18785.1
18258.9
17992.8
17955.2
18002.8
18043.3
18056.5
18054.8
18051
18049.3
18049.1
18049.3
18049.4
18049.4
18049.4
18049.4
18049.4
18049.4
-3.25393
11.0895
42.852
-64.8719
-392.912
-413.417
981.204
4510.65
9580.38
14533.2
17864.1
19170.5
19083.2
18528.5
18105
17954.7
17970.3
18022
18051.3
18056.7
18053.1
18050
18049.1
18049.2
18049.3
18049.4
18049.3
18049.3
18049.3
18049.4
-2.41139
2.32051
36.8931
4.71592
-251.194
-504.584
133.415
2648.67
7093.45
12252.6
16457.9
18737.6
19252.7
18843.2
18305.2
18007.3
17948.1
17991.9
18037.5
18055.5
18055.5
18051.4
18049.3
18049.1
18049.3
18049.4
18049.4
18049.3
18049.3
18049.3
-1.34022
-2.43477
24.275
36.7961
-123.614
-442.054
-319.423
1259.5
4845.39
9801.68
14592.8
17844.9
19169.8
19126.4
18582.3
18135.5
17957.7
17960.8
18013.9
18048.5
18056.9
18053.7
18050.1
18049
18049.2
18049.5
18049.6
18049.5
18049.4
18049.4
-0.461359
-4.0125
11.8172
42.8752
-32.2085
-314.755
-485.247
329.054
2969.32
7378.19
12389.3
16470.2
18722.7
19273.6
18893.2
18347.9
18023.3
17943.9
17983
18032.9
18055.3
18056.6
18051.9
18049.2
18049
18049.5
18049.9
18049.8
18049.7
18049.6
0.083214
-3.66234
2.71462
34.8818
20.1179
-181.758
-470.998
-208.24
1530.36
5158.89
10013.5
14660.8
17836.8
19170.2
19162.5
18629.4
18164.1
17961.9
17953.2
18007.3
18047.2
18058.6
18055.2
18050.4
18048.7
18049.2
18049.9
18050.2
18050.1
18049.9
0.319304
-2.4931
-2.38244
22.083
40.841
-74.7278
-366.365
-445.654
529.043
3273.94
7646.8
12526
16493.1
18714.2
19291.3
18935.8
18385.5
18037.6
17939.7
17974.6
18029.1
18056.5
18059.2
18053.4
18049.2
18048.5
18049.4
18050.1
18050.4
18050.2
0.343826
-1.25087
-4.20831
10.188
41.0227
-4.43694
-236.099
-482.138
-84.2605
1794.16
5455.05
10217.2
14734.9
17838
19172.6
19193.5
18670.1
18188.3
17963.4
17943.4
17999.4
18045.8
18061.3
18058
18051.4
18048.2
18048.2
18049.3
18050
18050.2
0.260627
-0.310623
-3.97207
1.75843
31.0076
31.5587
-119.463
-405.856
-389.614
731.463
3565.01
7901.89
12661.9
16524.6
18712.7
19309.1
18974.6
18419
18048.3
17931.5
17962
18022.4
18056.8
18062.4
18055.7
18049.4
18047.2
18047.8
18048.9
18049.7
0.148604
0.229421
-2.79846
-2.82341
18.3807
42.0851
-34.3965
-284.831
-477.664
49.5803
2051.62
5736.6
10412.8
14811.7
17845
19176.4
19221.1
18706.1
18208.2
17960.2
17927.8
17985.7
18040.5
18062.5
18060.9
18052.6
18047.1
18045.9
18046.7
18048.1
0.0532673
0.429761
-1.47734
-4.3442
7.54006
37.3596
16.2842
-163.99
-433.775
-320.503
934.684
3845.04
8148.31
12802.8
16572.6
18729.9
19341.7
19022.9
18457.6
18059.3
17918.4
17941.3
18007.9
18052.2
18064
18058.3
18050.1
18045.8
18045.2
18046.6
-0.00744481
0.409035
-0.438815
-3.95109
0.307163
26.0051
37.9522
-67.7958
-326.176
-457.302
192.884
2299.02
5987.99
10565.9
14840.8
17805.2
19141.9
19226.7
18738.5
18236.5
17966.9
17916.8
17970.3
18030.8
18060.2
18062.6
18054.4
18047.2
18044.3
18044.8
-0.0367448
0.296368
0.204452
-2.81226
-3.5313
14.4324
41.7058
-3.73478
-212.326
-462.267
-244.044
1171.75
4216.01
8560.54
13164.2
16842
18914.1
19462
19091.2
18478.5
18042.7
17883.2
17907.7
17987.9
18046.8
18067.2
18063.3
18053
18045.8
18043.3
-0.0348857
0.101703
0.450549
-0.965817
-4.07698
2.11251
27.1122
34.0111
-69.738
-309.754
-437.498
125.254
2002.38
5379.22
9723.88
13995.1
17203.3
18902.4
19291.8
18944.4
18426.8
18065.4
17928.7
17940
17999.1
18045.9
18064.9
18065
18058.9
18052.7
)
;

boundaryField
{
    fixedWall_Bottom
    {
        type            greyDiffusiveRadiation;
        refValue        uniform 18049.5;
        refGradient     uniform 0;
        valueFraction   uniform 1;
        source          uniform 0;
        value           uniform 18049.5;
    }
    fixedWall_Right
    {
        type            greyDiffusiveRadiation;
        refValue        uniform 0;
        refGradient     uniform 0;
        valueFraction   uniform 0;
        source          uniform 0;
        value           nonuniform List<scalar> 
30
(
18049.5
18049.5
18049.5
18049.5
18049.5
18049.5
18049.5
18049.5
18049.5
18049.5
18049.5
18049.5
18049.5
18049.5
18049.5
18049.5
18049.4
18049.4
18049.3
18049.4
18049.6
18049.9
18050.2
18050.2
18049.7
18048.1
18046.6
18044.8
18043.3
18052.7
)
;
    }
    fixedWall_Left
    {
        type            greyDiffusiveRadiation;
        refValue        uniform 0;
        refGradient     uniform 0;
        valueFraction   uniform 1;
        source          uniform 0;
        value           uniform 0;
    }
    fixedWall_Top
    {
        type            greyDiffusiveRadiation;
        refValue        uniform 0;
        refGradient     uniform 0;
        valueFraction   uniform 0;
        source          uniform 0;
        value           nonuniform List<scalar> 
30
(
-0.0348857
0.101703
0.450549
-0.965817
-4.07698
2.11251
27.1122
34.0111
-69.738
-309.754
-437.498
125.254
2002.38
5379.22
9723.88
13995.1
17203.3
18902.4
19291.8
18944.4
18426.8
18065.4
17928.7
17940
17999.1
18045.9
18064.9
18065
18058.9
18052.7
)
;
    }
    frontAndBack
    {
        type            empty;
    }
}


// ************************************************************************* //
