/*--------------------------------*- C++ -*----------------------------------*\
| =========                 |                                                 |
| \\      /  F ield         | OpenFOAM: The Open Source CFD Toolbox           |
|  \\    /   O peration     | Version:  2312                                  |
|   \\  /    A nd           | Website:  www.openfoam.com                      |
|    \\/     M anipulation  |                                                 |
\*---------------------------------------------------------------------------*/
FoamFile
{
    version     2.0;
    format      ascii;
    arch        "LSB;label=32;scalar=64";
    class       volScalarField;
    location    "0.06";
    object      ILambda_61_0;
}
// * * * * * * * * * * * * * * * * * * * * * * * * * * * * * * * * * * * * * //

dimensions      [1 0 -3 0 0 0 0];

internalField   nonuniform List<scalar> 
900
(
18049.5
18049.5
18049.5
18049.5
18049.5
18049.5
18049.5
18049.5
18049.5
18049.5
18049.5
18049.5
18049.5
18049.5
18049.5
18049.5
18049.5
18049.5
18049.5
18049.5
18049.5
18049.5
18049.4
18049.7
18049.9
18044.3
18040.5
18212.7
18722.8
14965.8
18049.5
18049.5
18049.5
18049.5
18049.5
18049.5
18049.5
18049.5
18049.5
18049.5
18049.5
18049.5
18049.5
18049.5
18049.5
18049.5
18049.5
18049.5
18049.5
18049.5
18049.5
18049.5
18049.8
18050
18042.9
18027.2
18138
18728.6
18543.5
10034.2
18049.5
18049.5
18049.5
18049.5
18049.5
18049.5
18049.5
18049.5
18049.5
18049.5
18049.5
18049.5
18049.5
18049.5
18049.5
18049.5
18049.5
18049.5
18049.5
18049.5
18049.4
18049.7
18050.4
18046.4
18026
18044.3
18396.2
19085.7
17062.2
6381.52
18049.5
18049.5
18049.5
18049.5
18049.5
18049.5
18049.5
18049.5
18049.5
18049.5
18049.5
18049.5
18049.5
18049.5
18049.5
18049.5
18049.5
18049.5
18049.5
18049.4
18049.6
18050.4
18049.6
18035.1
18011.9
18142.9
18746.7
18993.8
14796.7
3794.11
18049.5
18049.5
18049.5
18049.5
18049.5
18049.5
18049.5
18049.5
18049.5
18049.5
18049.5
18049.5
18049.5
18049.5
18049.5
18049.5
18049.5
18049.5
18049.4
18049.5
18050.1
18051
18044.5
18017
18025.9
18341.7
19053
18331
12202.6
2032.85
18049.5
18049.5
18049.5
18049.5
18049.5
18049.5
18049.5
18049.5
18049.5
18049.5
18049.5
18049.5
18049.5
18049.5
18049.5
18049.5
18049.5
18049.4
18049.4
18049.7
18050.9
18049.9
18032.7
18001
18095.9
18617.5
19168.2
17116.6
9607.55
887.87
18049.5
18049.5
18049.5
18049.5
18049.5
18049.5
18049.5
18049.5
18049.5
18049.5
18049.5
18049.5
18049.5
18049.5
18049.5
18049.5
18049.5
18049.4
18049.5
18050.3
18051.6
18045.1
18014.8
18003.3
18238.7
18909.5
18976.6
15458.1
7220.74
187.956
18049.5
18049.5
18049.5
18049.5
18049.5
18049.5
18049.5
18049.5
18049.5
18049.5
18049.5
18049.5
18049.5
18049.5
18049.5
18049.5
18049.4
18049.4
18049.7
18051.3
18051
18034.5
17996.3
18043.1
18451.7
19134.3
18413.2
13504.3
5157.26
-201.47
18049.5
18049.5
18049.5
18049.5
18049.5
18049.5
18049.5
18049.5
18049.5
18049.5
18049.5
18049.5
18049.5
18049.5
18049.5
18049.5
18049.4
18049.4
18050.4
18052.2
18047.2
18017.9
17987.5
18136.4
18709.4
19205
17467.1
11410.4
3463.44
-383.177
18049.5
18049.5
18049.5
18049.5
18049.5
18049.5
18049.5
18049.5
18049.5
18049.5
18049.5
18049.5
18049.5
18049.5
18049.5
18049.4
18049.3
18049.7
18051.4
18052.2
18038.6
17998.3
18002.2
18290.2
18966.7
19047
16174.6
9316.18
2138.56
-433.421
18049.5
18049.5
18049.5
18049.5
18049.5
18049.5
18049.5
18049.5
18049.5
18049.5
18049.5
18049.5
18049.5
18049.5
18049.5
18049.4
18049.4
18050.3
18052.6
18049.9
18024.4
17982
18054.6
18498.1
19165
18609.6
14605.4
7333.94
1152.26
-407.001
18049.5
18049.5
18049.5
18049.5
18049.5
18049.5
18049.5
18049.5
18049.5
18049.5
18049.5
18049.5
18049.5
18049.5
18049.4
18049.3
18049.6
18051.3
18053.2
18043.7
18005.6
17978.7
18155.3
18738.8
19242.4
17871.5
12849.2
5544.1
457.932
-341.808
18049.5
18049.5
18049.5
18049.5
18049.5
18049.5
18049.5
18049.5
18049.5
18049.5
18049.5
18049.5
18049.5
18049.5
18049.4
18049.3
18050.1
18052.6
18052.3
18032.4
17985.8
17999.7
18307.8
18977.8
19141.9
16841
11001.6
3995.66
2.39687
-262.775
18049.5
18049.5
18049.5
18049.5
18049.5
18049.5
18049.5
18049.5
18049.5
18049.5
18049.5
18049.5
18049.5
18049.4
18049.3
18049.4
18051
18053.7
18048.4
18016
17971.3
18056.3
18505.9
19171
18819.6
15552.6
9153.75
2710.02
-267.382
-185.207
18049.5
18049.5
18049.5
18049.5
18049.5
18049.5
18049.5
18049.5
18049.5
18049.5
18049.5
18049.5
18049.5
18049.4
18049.2
18049.8
18052.3
18053.9
18040.3
17996.1
17970.8
18156.3
18732.9
19270.1
18249.6
14060.3
7384.35
1686.28
-400.053
-117.509
18049.5
18049.5
18049.5
18049.5
18049.5
18049.5
18049.5
18049.5
18049.5
18049.5
18049.5
18049.5
18049.4
18049.3
18049.3
18050.6
18053.7
18052.1
18027.4
17976.4
17993.8
18302.3
18961.6
19228.5
17426.4
12430.2
5755.26
907.144
-437.521
-63.352
18049.5
18049.5
18049.5
18049.5
18049.5
18049.5
18049.5
18049.5
18049.5
18049.5
18049.5
18049.5
18049.4
18049.2
18049.5
18051.8
18054.8
18047.1
18009.8
17962.8
18049.5
18489.4
19157.4
19006.8
16364.2
10733.1
4309.51
344.563
-413.98
-23.3449
18049.5
18049.5
18049.5
18049.5
18049.5
18049.5
18049.5
18049.5
18049.5
18049.5
18049.5
18049.5
18049.3
18049.2
18050.1
18053.3
18054.6
18037.9
17989.2
17962.7
18144.7
18704.4
19281.2
18577.1
15094.8
9037.79
3071.72
-35.2936
-355.917
3.71844
18049.5
18049.5
18049.5
18049.5
18049.5
18049.5
18049.5
18049.5
18049.5
18049.5
18049.5
18049.4
18049.2
18049.3
18051.1
18054.8
18052.2
18023.8
17969.3
17984.7
18281.6
18926
19293.3
17925.9
13663.4
7405.48
2049.98
-268.044
-282.741
19.9677
18049.5
18049.5
18049.5
18049.5
18049.5
18049.5
18049.5
18049.5
18049.5
18049.5
18049.5
18049.3
18049.1
18049.7
18052.5
18055.7
18046.3
18005.3
17955.4
18036.5
18456.9
19126.4
19158.1
17055.1
12123.4
5886.55
1238.79
-388.082
-207.762
27.8487
18049.4
18049.4
18049.4
18049.4
18049.4
18049.4
18049.4
18049.4
18049.4
18049.4
18049.4
18049.2
18049.1
18050.5
18054.2
18055.2
18036.1
17984.2
17954.3
18124.5
18660.6
19273
18847.2
15981.3
10531.8
4518.4
622.382
-426.536
-139.316
29.737
18049.4
18049.4
18049.4
18049.4
18049.4
18049.4
18049.4
18049.4
18049.4
18049.4
18049.3
18049
18049.3
18051.6
18055.7
18052.2
18021.3
17963.9
17973.4
18251.1
18875.9
19331.8
18342.5
14733.9
8944.1
3324.95
178.045
-410.066
-81.8977
27.7176
18049.4
18049.4
18049.4
18049.4
18049.4
18049.4
18049.4
18049.4
18049.4
18049.4
18049.2
18049
18049.9
18053.2
18056.4
18045.7
18002.4
17949.4
18020.1
18414.4
19080
19270.2
17637.5
13352.2
7410.96
2317.36
-120.738
-360.362
-37.2053
23.4829
18049.5
18049.5
18049.5
18049.5
18049.5
18049.5
18049.5
18049.5
18049.5
18049.4
18049.2
18049.2
18050.8
18054.9
18055.7
18035.3
17981.3
17946.6
18099.7
18606.6
19245.5
19060.3
16738.1
11881.4
5974.89
1495.58
-301.695
-294.15
-5.03766
18.3108
18049.6
18049.6
18049.6
18049.6
18049.6
18049.6
18049.6
18049.6
18049.6
18049.4
18049.2
18049.6
18052.1
18056.4
18052.5
18020.5
17960.9
17962.1
18215.3
18815.1
19343.7
18681.9
15662.4
10370
4668.73
850.421
-391.718
-223.575
15.9726
13.0931
18049.7
18049.7
18049.7
18049.7
18049.7
18049.7
18049.7
18049.7
18049.7
18049.5
18049.3
18050.2
18053.8
18057.2
18046.3
18002.2
17945.9
18002.6
18365.2
19019
19341.5
18119.5
14434.9
8863.54
3514.64
366.135
-415.272
-156.809
27.7791
8.39269
18049.7
18049.7
18049.7
18049.7
18049.7
18049.7
18049.7
18049.7
18049.6
18049.3
18049.3
18051.1
18055.6
18056.7
18036.1
17980.6
17939.1
18071
18545.5
19203.4
19226.6
17388.1
13104
7411.96
2526.12
21.7655
-394.089
-98.7511
32.581
4.50681
18049.8
18049.8
18049.8
18049.8
18049.8
18049.8
18049.8
18049.8
18049.7
18049.3
18049.7
18052.4
18056.9
18053.2
18021.4
17961.6
17954.9
18180.5
18744.8
19316.3
18920.3
16424.1
11647.7
6018.01
1697.17
-202.994
-343.512
-51.6211
32.2037
1.54539
18049.4
18049.4
18049.4
18049.4
18049.4
18049.4
18049.5
18049.4
18049.1
18048.6
18049.4
18053.6
18058.8
18050.1
18005.4
17939.2
17967.3
18287.2
18937.7
19418.8
18626.2
15548.5
10387.6
4878.76
1073.41
-338.197
-288.355
-17.3043
29.5643
-0.495876
18048.9
18048.9
18048.9
18048.9
18048.9
18048.9
18048.9
18048.7
18048.2
18048.5
18051.2
18056.4
18055.6
18029.3
17970.2
17938
18091.1
18572.7
19203.4
19217.4
17508.2
13526
8112.65
3202.29
359.366
-393.566
-186.044
14.9147
21.112
-2.07325
)
;

boundaryField
{
    fixedWall_Bottom
    {
        type            greyDiffusiveRadiation;
        refValue        uniform 18049.5;
        refGradient     uniform 0;
        valueFraction   uniform 1;
        source          uniform 0;
        value           uniform 18049.5;
    }
    fixedWall_Right
    {
        type            greyDiffusiveRadiation;
        refValue        uniform 0;
        refGradient     uniform 0;
        valueFraction   uniform 1;
        source          uniform 0;
        value           uniform 0;
    }
    fixedWall_Left
    {
        type            greyDiffusiveRadiation;
        refValue        uniform 0;
        refGradient     uniform 0;
        valueFraction   uniform 0;
        source          uniform 0;
        value           nonuniform List<scalar> 
30
(
18049.5
18049.5
18049.5
18049.5
18049.5
18049.5
18049.5
18049.5
18049.5
18049.5
18049.5
18049.5
18049.5
18049.5
18049.5
18049.5
18049.5
18049.5
18049.5
18049.5
18049.4
18049.4
18049.4
18049.5
18049.6
18049.7
18049.7
18049.8
18049.4
18048.9
)
;
    }
    fixedWall_Top
    {
        type            greyDiffusiveRadiation;
        refValue        uniform 0;
        refGradient     uniform 0;
        valueFraction   uniform 0;
        source          uniform 0;
        value           nonuniform List<scalar> 
30
(
18048.9
18048.9
18048.9
18048.9
18048.9
18048.9
18048.9
18048.7
18048.2
18048.5
18051.2
18056.4
18055.6
18029.3
17970.2
17938
18091.1
18572.7
19203.4
19217.4
17508.2
13526
8112.65
3202.29
359.366
-393.566
-186.044
14.9147
21.112
-2.07325
)
;
    }
    frontAndBack
    {
        type            empty;
    }
}


// ************************************************************************* //
