/*--------------------------------*- C++ -*----------------------------------*\
| =========                 |                                                 |
| \\      /  F ield         | OpenFOAM: The Open Source CFD Toolbox           |
|  \\    /   O peration     | Version:  2312                                  |
|   \\  /    A nd           | Website:  www.openfoam.com                      |
|    \\/     M anipulation  |                                                 |
\*---------------------------------------------------------------------------*/
FoamFile
{
    version     2.0;
    format      ascii;
    arch        "LSB;label=32;scalar=64";
    class       volScalarField;
    location    "0.06";
    object      ILambda_2_0;
}
// * * * * * * * * * * * * * * * * * * * * * * * * * * * * * * * * * * * * * //

dimensions      [1 0 -3 0 0 0 0];

internalField   nonuniform List<scalar> 
900
(
14965.8
18722.8
18212.7
18040.5
18044.3
18049.9
18049.7
18049.4
18049.5
18049.5
18049.5
18049.5
18049.5
18049.5
18049.5
18049.5
18049.5
18049.5
18049.5
18049.5
18049.5
18049.5
18049.5
18049.5
18049.5
18049.5
18049.5
18049.5
18049.5
18049.5
10034.2
18543.5
18728.6
18138
18027.2
18042.9
18050
18049.8
18049.5
18049.5
18049.5
18049.5
18049.5
18049.5
18049.5
18049.5
18049.5
18049.5
18049.5
18049.5
18049.5
18049.5
18049.5
18049.5
18049.5
18049.5
18049.5
18049.5
18049.5
18049.5
6381.52
17062.2
19085.7
18396.2
18044.3
18026
18046.4
18050.4
18049.7
18049.4
18049.5
18049.5
18049.5
18049.5
18049.5
18049.5
18049.5
18049.5
18049.5
18049.5
18049.5
18049.5
18049.5
18049.5
18049.5
18049.5
18049.5
18049.5
18049.5
18049.5
3794.11
14796.7
18993.8
18746.7
18142.9
18011.9
18035.1
18049.6
18050.4
18049.6
18049.4
18049.5
18049.5
18049.5
18049.5
18049.5
18049.5
18049.5
18049.5
18049.5
18049.5
18049.5
18049.5
18049.5
18049.5
18049.5
18049.5
18049.5
18049.5
18049.5
2032.85
12202.6
18331
19053
18341.7
18025.9
18017
18044.5
18051
18050.1
18049.5
18049.4
18049.5
18049.5
18049.5
18049.5
18049.5
18049.5
18049.5
18049.5
18049.5
18049.5
18049.5
18049.5
18049.5
18049.5
18049.5
18049.5
18049.5
18049.5
887.87
9607.55
17116.6
19168.2
18617.5
18095.9
18001
18032.7
18049.9
18050.9
18049.7
18049.4
18049.4
18049.5
18049.5
18049.5
18049.5
18049.5
18049.5
18049.5
18049.5
18049.5
18049.5
18049.5
18049.5
18049.5
18049.5
18049.5
18049.5
18049.5
187.956
7220.74
15458.1
18976.6
18909.5
18238.7
18003.3
18014.8
18045.1
18051.6
18050.3
18049.5
18049.4
18049.5
18049.5
18049.5
18049.5
18049.5
18049.5
18049.5
18049.5
18049.5
18049.5
18049.5
18049.5
18049.5
18049.5
18049.5
18049.5
18049.5
-201.47
5157.26
13504.3
18413.2
19134.3
18451.7
18043.1
17996.3
18034.5
18051
18051.3
18049.7
18049.4
18049.4
18049.5
18049.5
18049.5
18049.5
18049.5
18049.5
18049.5
18049.5
18049.5
18049.5
18049.5
18049.5
18049.5
18049.5
18049.5
18049.5
-383.177
3463.44
11410.4
17467.1
19205
18709.4
18136.4
17987.5
18017.9
18047.2
18052.2
18050.4
18049.4
18049.4
18049.5
18049.5
18049.5
18049.5
18049.5
18049.5
18049.5
18049.5
18049.5
18049.5
18049.5
18049.5
18049.5
18049.5
18049.5
18049.5
-433.421
2138.56
9316.18
16174.6
19047
18966.7
18290.2
18002.2
17998.3
18038.6
18052.2
18051.4
18049.7
18049.3
18049.4
18049.5
18049.5
18049.5
18049.5
18049.5
18049.5
18049.5
18049.5
18049.5
18049.5
18049.5
18049.5
18049.5
18049.5
18049.5
-407.001
1152.26
7333.94
14605.4
18609.6
19165
18498.1
18054.6
17982
18024.4
18049.9
18052.6
18050.3
18049.4
18049.4
18049.5
18049.5
18049.5
18049.5
18049.5
18049.5
18049.5
18049.5
18049.5
18049.5
18049.5
18049.5
18049.5
18049.5
18049.5
-341.808
457.932
5544.1
12849.2
17871.5
19242.4
18738.8
18155.3
17978.7
18005.6
18043.7
18053.2
18051.3
18049.6
18049.3
18049.4
18049.5
18049.5
18049.5
18049.5
18049.5
18049.5
18049.5
18049.5
18049.5
18049.5
18049.5
18049.5
18049.5
18049.5
-262.775
2.39686
3995.66
11001.6
16841
19141.9
18977.8
18307.8
17999.7
17985.8
18032.4
18052.3
18052.6
18050.1
18049.3
18049.4
18049.5
18049.5
18049.5
18049.5
18049.5
18049.5
18049.5
18049.5
18049.5
18049.5
18049.5
18049.5
18049.5
18049.5
-185.207
-267.382
2710.02
9153.75
15552.6
18819.6
19171
18505.9
18056.3
17971.3
18016
18048.4
18053.7
18051
18049.4
18049.3
18049.4
18049.5
18049.5
18049.5
18049.5
18049.5
18049.5
18049.5
18049.5
18049.5
18049.5
18049.5
18049.5
18049.5
-117.509
-400.053
1686.28
7384.35
14060.3
18249.6
19270.1
18732.9
18156.3
17970.8
17996.1
18040.3
18053.9
18052.3
18049.8
18049.2
18049.4
18049.5
18049.5
18049.5
18049.5
18049.5
18049.5
18049.5
18049.5
18049.5
18049.5
18049.5
18049.5
18049.5
-63.352
-437.521
907.144
5755.26
12430.2
17426.4
19228.5
18961.6
18302.3
17993.8
17976.4
18027.4
18052.1
18053.7
18050.6
18049.3
18049.3
18049.4
18049.5
18049.5
18049.5
18049.5
18049.5
18049.5
18049.5
18049.5
18049.5
18049.5
18049.5
18049.5
-23.3449
-413.98
344.563
4309.51
10733.1
16364.2
19006.8
19157.4
18489.4
18049.5
17962.8
18009.8
18047.1
18054.8
18051.8
18049.5
18049.2
18049.4
18049.5
18049.5
18049.5
18049.5
18049.5
18049.5
18049.5
18049.5
18049.5
18049.5
18049.5
18049.5
3.71844
-355.917
-35.2936
3071.72
9037.79
15094.8
18577.1
19281.2
18704.4
18144.7
17962.7
17989.2
18037.9
18054.6
18053.3
18050.1
18049.2
18049.3
18049.5
18049.5
18049.5
18049.5
18049.5
18049.5
18049.5
18049.5
18049.5
18049.5
18049.5
18049.5
19.9677
-282.741
-268.044
2049.98
7405.48
13663.4
17925.9
19293.3
18926
18281.6
17984.7
17969.3
18023.8
18052.2
18054.8
18051.1
18049.3
18049.2
18049.4
18049.5
18049.5
18049.5
18049.5
18049.5
18049.5
18049.5
18049.5
18049.5
18049.5
18049.5
27.8487
-207.762
-388.082
1238.79
5886.55
12123.4
17055.1
19158.1
19126.4
18456.9
18036.5
17955.4
18005.3
18046.3
18055.7
18052.5
18049.7
18049.1
18049.3
18049.5
18049.5
18049.5
18049.5
18049.5
18049.5
18049.5
18049.5
18049.5
18049.5
18049.5
29.737
-139.316
-426.536
622.382
4518.4
10531.8
15981.3
18847.2
19273
18660.6
18124.5
17954.3
17984.2
18036.1
18055.2
18054.2
18050.5
18049.1
18049.1
18049.4
18049.4
18049.4
18049.4
18049.4
18049.4
18049.4
18049.4
18049.4
18049.4
18049.4
27.7176
-81.8977
-410.066
178.045
3324.95
8944.1
14733.9
18342.5
19331.8
18875.9
18251.1
17973.4
17963.9
18021.3
18052.2
18055.7
18051.6
18049.3
18049
18049.3
18049.4
18049.4
18049.4
18049.4
18049.4
18049.4
18049.4
18049.4
18049.4
18049.4
23.4829
-37.2054
-360.361
-120.738
2317.36
7410.96
13352.2
17637.5
19270.2
19080
18414.4
18020.1
17949.4
18002.4
18045.8
18056.4
18053.2
18049.9
18049
18049.2
18049.4
18049.4
18049.4
18049.4
18049.4
18049.4
18049.4
18049.4
18049.4
18049.4
18.3108
-5.03769
-294.15
-301.695
1495.58
5974.89
11881.4
16738.1
19060.3
19245.5
18606.6
18099.7
17946.6
17981.3
18035.3
18055.7
18054.9
18050.8
18049.2
18049.2
18049.4
18049.5
18049.5
18049.5
18049.5
18049.5
18049.5
18049.5
18049.5
18049.5
13.093
15.9726
-223.575
-391.718
850.421
4668.73
10370
15662.4
18681.9
19343.7
18815.1
18215.3
17962.1
17960.9
18020.5
18052.5
18056.4
18052.2
18049.6
18049.2
18049.4
18049.6
18049.6
18049.6
18049.6
18049.6
18049.6
18049.6
18049.6
18049.6
8.39269
27.7791
-156.809
-415.272
366.135
3514.64
8863.54
14434.9
18119.5
19341.5
19019
18365.2
18002.6
17945.9
18002.2
18046.3
18057.2
18053.8
18050.2
18049.3
18049.5
18049.7
18049.7
18049.7
18049.7
18049.7
18049.7
18049.7
18049.7
18049.7
4.50679
32.581
-98.751
-394.09
21.7652
2526.12
7411.96
13104
17388.1
19226.6
19203.5
18545.5
18071
17939.1
17980.5
18036.1
18056.7
18055.6
18051.1
18049.3
18049.3
18049.6
18049.7
18049.7
18049.7
18049.7
18049.7
18049.7
18049.7
18049.7
1.54537
32.2038
-51.621
-343.513
-202.994
1697.17
6018.01
11647.7
16424.1
18920.3
19316.3
18744.8
18180.5
17954.9
17961.6
18021.4
18053.2
18056.9
18052.4
18049.7
18049.3
18049.6
18049.8
18049.8
18049.8
18049.8
18049.8
18049.8
18049.8
18049.8
-0.495919
29.5645
-17.3041
-288.356
-338.198
1073.41
4878.77
10387.6
15548.5
18626.1
19418.8
18937.7
18287.3
17967.4
17939.2
18005.4
18050
18058.8
18053.6
18049.4
18048.6
18049.1
18049.4
18049.5
18049.4
18049.4
18049.4
18049.4
18049.4
18049.4
-2.07327
21.1121
14.9147
-186.044
-393.566
359.367
3202.29
8112.65
13526
17508.2
19217.4
19203.4
18572.7
18091.1
17938.1
17970.2
18029.3
18055.6
18056.4
18051.2
18048.5
18048.3
18048.7
18048.9
18048.9
18048.9
18048.9
18048.9
18048.9
18048.9
)
;

boundaryField
{
    fixedWall_Bottom
    {
        type            greyDiffusiveRadiation;
        refValue        uniform 18049.5;
        refGradient     uniform 0;
        valueFraction   uniform 1;
        source          uniform 0;
        value           uniform 18049.5;
    }
    fixedWall_Right
    {
        type            greyDiffusiveRadiation;
        refValue        uniform 0;
        refGradient     uniform 0;
        valueFraction   uniform 0;
        source          uniform 0;
        value           nonuniform List<scalar> 
30
(
18049.5
18049.5
18049.5
18049.5
18049.5
18049.5
18049.5
18049.5
18049.5
18049.5
18049.5
18049.5
18049.5
18049.5
18049.5
18049.5
18049.5
18049.5
18049.5
18049.5
18049.4
18049.4
18049.4
18049.5
18049.6
18049.7
18049.7
18049.8
18049.4
18048.9
)
;
    }
    fixedWall_Left
    {
        type            greyDiffusiveRadiation;
        refValue        uniform 0;
        refGradient     uniform 0;
        valueFraction   uniform 1;
        source          uniform 0;
        value           uniform 0;
    }
    fixedWall_Top
    {
        type            greyDiffusiveRadiation;
        refValue        uniform 0;
        refGradient     uniform 0;
        valueFraction   uniform 0;
        source          uniform 0;
        value           nonuniform List<scalar> 
30
(
-2.07327
21.1121
14.9147
-186.044
-393.566
359.367
3202.29
8112.65
13526
17508.2
19217.4
19203.4
18572.7
18091.1
17938.1
17970.2
18029.3
18055.6
18056.4
18051.2
18048.5
18048.3
18048.7
18048.9
18048.9
18048.9
18048.9
18048.9
18048.9
18048.9
)
;
    }
    frontAndBack
    {
        type            empty;
    }
}


// ************************************************************************* //
