/*--------------------------------*- C++ -*----------------------------------*\
| =========                 |                                                 |
| \\      /  F ield         | OpenFOAM: The Open Source CFD Toolbox           |
|  \\    /   O peration     | Version:  2312                                  |
|   \\  /    A nd           | Website:  www.openfoam.com                      |
|    \\/     M anipulation  |                                                 |
\*---------------------------------------------------------------------------*/
FoamFile
{
    version     2.0;
    format      ascii;
    arch        "LSB;label=32;scalar=64";
    class       volScalarField;
    location    "0.06";
    object      ILambda_51_0;
}
// * * * * * * * * * * * * * * * * * * * * * * * * * * * * * * * * * * * * * //

dimensions      [1 0 -3 0 0 0 0];

internalField   nonuniform List<scalar> 
900
(
18049.2
18049.3
18049.5
18049.9
18050.5
18051.2
18052
18052.4
18052.2
18051
18048.2
18043.4
18036.7
18028.6
18020.9
18016.7
18020.9
18039.9
18081.1
18150.8
18250.3
18370
18479.7
18514.9
18358.8
17819.4
16604
14296
10355.5
4219.08
18051
18052.3
18052.9
18052.9
18051.8
18049.2
18044.5
18037.7
18029.1
18020.3
18013.8
18013.8
18026
18056.7
18112
18194.7
18301.3
18416.5
18506.9
18515.4
18355.2
17909
17034.5
15582.9
13433.9
10555.5
7090.44
3465.31
488.649
-697.968
18052.4
18049.2
18044.5
18037.7
18029.2
18020.3
18013.6
18012.6
18022.5
18048.8
18097.1
18170.3
18266.4
18374.8
18472.3
18518.7
18454.6
18200.7
17662.3
16739.6
15344.9
13428.6
11009.5
8205.06
5252.24
2501.15
362.706
-811.114
-917.852
-302.806
18035.5
18022.5
18015.7
18012.2
18017.3
18035.7
18072.7
18131.9
18213.7
18312.5
18413.8
18490.9
18502.9
18393.3
18092.6
17523.1
16609.2
15291.4
13543.8
11392.9
8931.94
6326.58
3804.73
1625.01
22.8062
-859.705
-1040.63
-728.852
-273.849
-3.84977
18014.4
18024.1
18050.1
18094.2
18159.8
18244.9
18341.6
18433.3
18492.5
18479.5
18342.3
18019.7
17446.3
16561.1
15319.2
13704.3
11741.2
9504.81
7121.62
4761.66
2617.59
872.554
-339.187
-969.561
-1079.16
-831.01
-446.905
-130.992
12.1624
14.6434
18090.9
18185.3
18266.3
18359.5
18441.5
18486.2
18455.5
18302
17971.4
17407
16557.7
15386.8
13881.9
12064.5
9995.22
7775.45
5540.43
3444.89
1641.08
252.466
-651.871
-1075.05
-1095.66
-851.808
-506.444
-202.042
-20.0315
36.1727
21.7932
1.00773
18328.6
18452.5
18474.3
18433.7
18271
17940.5
17391.8
16580.5
15474.9
14064.5
12366.7
10431.5
8342.18
6210.41
4165.64
2338.96
843.899
-242.898
-896.534
-1150.08
-1089.01
-833.321
-510.431
-225.709
-39.7271
39.1893
43.3886
19.7947
2.36026
-0.946554
18432.4
18248.8
17921.1
17393
16619.1
15573.9
14246.4
12650.7
10828.1
8848.37
6805.9
4811.64
2980.87
1418.31
202.81
-625.428
-1072.01
-1187.62
-1058.54
-789.606
-483.203
-219.302
-42.2075
41.9695
56.3909
36.6735
13.2821
0.868857
-1.26167
-0.134357
17633
16628.6
15684.3
14423.8
12918.6
11193.5
9309.14
7346.27
5401.62
3577.94
1972.12
662.668
-301.416
-907.984
-1183.54
-1188.48
-1006.24
-728.162
-437.258
-194.652
-31.9687
48.4248
65.8047
48.9427
23.8892
6.05587
-1.06273
-1.46689
-0.309801
0.0662317
15151.6
13061.4
11554.9
9730.04
7844.41
5947.36
4138.12
2505.35
1126.1
54.3587
-685.793
-1103.41
-1238.83
-1156.82
-935.694
-654.411
-380.208
-159.49
-13.8614
58.029
73.7325
57.6467
32.0715
11.3624
0.525076
-2.28121
-1.43664
-0.294838
0.0684898
0.0163979
10958.5
8125.89
6496.25
4659.22
3020.69
1587.16
429.52
-422.941
-965.904
-1224.11
-1246.4
-1098.15
-851.144
-572.855
-317.289
-119.04
8.28257
69.2624
80.6073
63.6726
37.7025
15.5039
2.31647
-2.53361
-2.5426
-1.14241
-0.175738
0.0795275
0.0318172
-0.0042042
6051.13
3307.05
2092.38
805.116
-128.992
-785.254
-1156.23
-1281.9
-1214.74
-1018.31
-756.906
-487.375
-252.406
-76.9764
31.6516
80.67
86.263
67.4877
41.0573
18.1517
3.65004
-2.60342
-3.45006
-2.10412
-0.710406
-0.0265418
0.0958581
0.0344671
-0.00281445
-0.00175136
1882.27
6.32589
-526.081
-1056.86
-1268.37
-1288.52
-1151.9
-922.893
-656.936
-401.204
-188.528
-35.9743
54.1967
91.1086
90.4358
69.353
42.4419
19.3338
4.27556
-2.76697
-4.21675
-3.01466
-1.36196
-0.291861
0.0929088
0.101872
0.0301773
-0.00275428
-0.00301514
0.000218872
-570.361
-1321.73
-1294.01
-1260.85
-1064.03
-817.611
-554.598
-316.875
-127.764
2.08702
74.4291
99.6951
92.891
69.4771
42.1754
19.2186
4.15006
-3.16293
-4.9197
-3.82317
-2.01186
-0.639031
0.0142646
0.154529
0.0913886
0.0208709
-0.00413264
-0.00328983
-2.34938e-05
0.000170463
-1288.71
-1213.03
-953.665
-709.812
-452.244
-236.548
-71.3515
36.1091
91.4317
105.787
93.3902
67.9947
40.5739
18.0726
3.36714
-3.83637
-5.62337
-4.52588
-2.5904
-0.993595
-0.110836
0.178111
0.15982
0.0680368
0.00955137
-0.0059463
-0.00323285
-7.83013e-05
0.000271113
-8.96951e-06
-962.775
-576.1
-358.001
-161.311
-20.0163
65.6563
104.966
109.127
91.7726
64.9194
37.8335
16.1653
2.12958
-4.71931
-6.35447
-5.15349
-3.07774
-1.30016
-0.238405
0.180668
0.220902
0.127345
0.0400032
-0.000507657
-0.00714567
-0.00292059
5.86004e-07
0.000313732
2.15992e-05
-1.84888e-05
-380.428
-64.1257
18.3305
92.3677
115
110.037
88.172
60.2826
33.9951
13.616
0.615459
-5.65734
-7.04352
-5.71142
-3.49537
-1.55138
-0.335999
0.188352
0.276857
0.18701
0.0795528
0.014946
-0.00708333
-0.00711614
-0.00236645
0.000120564
0.000345629
4.63358e-05
-3.17781e-05
-7.88909e-07
4.83829
130.483
117.358
110.534
82.807
54.4633
29.1078
10.3944
-1.16857
-6.56147
-7.56893
-6.11861
-3.8289
-1.76841
-0.416018
0.211535
0.34384
0.251038
0.121084
0.0341306
-0.00270746
-0.00958715
-0.00583057
-0.00162805
0.000202689
0.000345323
7.36377e-05
-3.23411e-05
-1.13111e-05
2.91824e-06
120.567
112.439
75.2463
48.7085
23.3003
6.58097
-3.35916
-7.52109
-7.91233
-6.27702
-3.9859
-1.9195
-0.498722
0.221603
0.414316
0.32899
0.172677
0.0555084
0.000785029
-0.0120734
-0.00880232
-0.00371947
-0.00081073
0.000209429
0.000283778
9.51924e-05
-1.73707e-05
-1.97785e-05
-2.59224e-08
1.67819e-06
86.3346
39.4715
17.9018
2.46459
-6.04067
-8.70266
-8.24207
-6.21453
-3.88804
-1.90574
-0.538041
0.203125
0.450905
0.40051
0.238156
0.0902978
0.0072493
-0.0180472
-0.0147215
-0.0061847
-0.00140043
-3.29577e-05
0.000151843
0.000154501
9.33498e-05
1.116e-05
-1.9232e-05
-7.28492e-06
2.20921e-06
6.23916e-07
26.0543
-5.29371
-7.94554
-10.4018
-8.75495
-6.1253
-3.59817
-1.66431
-0.43531
0.212698
0.446353
0.426794
0.28938
0.136704
0.0287376
-0.0194345
-0.0246431
-0.0132262
-0.00317195
0.000579893
0.000607923
7.27647e-05
-1.70648e-05
5.57829e-05
4.19246e-05
-5.50719e-06
-1.36137e-05
-1.4004e-06
2.20304e-06
2.46872e-08
-6.22537
-13.9674
-8.94493
-6.42709
-3.27528
-1.27918
-0.14324
0.344099
0.463016
0.410028
0.291451
0.163263
0.0582882
-0.00563707
-0.0280352
-0.0232524
-0.0100268
-0.000756884
0.00189843
0.00105586
1.86043e-05
-0.000185555
-1.45401e-05
6.03718e-05
1.8472e-05
-1.35052e-05
-7.55189e-06
1.70584e-06
1.38055e-06
-2.46873e-07
-11.051
-7.06984
-3.00638
-1.02213
0.285231
0.623417
0.586697
0.413882
0.254957
0.141894
0.0646367
0.0123012
-0.0172562
-0.0251007
-0.0180752
-0.00682906
0.000630359
0.00248482
0.00130032
1.72581e-05
-0.000307298
-0.000100203
5.70236e-05
4.39867e-05
-4.72041e-06
-1.26815e-05
-1.42529e-06
2.34525e-06
3.92339e-07
-2.44171e-07
-5.37271
-0.466543
0.581132
0.969883
0.84867
0.507552
0.242208
0.0890846
0.0272949
0.00575839
-0.00591607
-0.0146032
-0.0169972
-0.0122034
-0.004488
0.00101932
0.00246114
0.00136776
7.09306e-05
-0.000357506
-0.000178239
3.18462e-05
6.14287e-05
1.03913e-05
-1.35305e-05
-5.94723e-06
1.83723e-06
1.42768e-06
-1.83459e-07
-1.21598e-07
-0.454631
1.65355
1.06145
0.727918
0.31225
0.0597226
-0.0332526
-0.0389828
-0.0185887
-0.00634201
-0.00581087
-0.00831283
-0.0073641
-0.00318403
0.000701741
0.00204497
0.00130602
0.000161916
-0.000335699
-0.000230218
-7.05841e-06
6.50046e-05
2.65271e-05
-9.07015e-06
-9.67625e-06
-2.7265e-07
2.06943e-06
3.64287e-07
-2.88512e-07
-1.81035e-08
1.13087
1.13483
0.41276
0.121421
-0.0726229
-0.100665
-0.0632129
-0.0204534
0.00131599
0.00339466
-0.00153184
-0.00414895
-0.00270337
4.16481e-05
0.00146061
0.00116776
0.00026408
-0.000260368
-0.000248116
-4.82522e-05
5.45888e-05
3.83897e-05
-7.82469e-07
-1.08708e-05
-3.13745e-06
1.78262e-06
1.05809e-06
-1.69947e-07
-1.72459e-07
2.3596e-08
0.828585
0.242783
-0.0641824
-0.131041
-0.122748
-0.0603143
-0.0113829
0.0100873
0.0100484
0.0025665
-0.00243183
-0.00269311
-0.000653357
0.000882377
0.000998099
0.000353336
-0.000158528
-0.000234531
-8.18671e-05
3.45627e-05
4.29669e-05
8.47509e-06
-9.08286e-06
-5.55624e-06
5.97929e-07
1.47496e-06
1.92377e-07
-2.41791e-07
-4.84475e-08
2.36344e-08
0.227903
-0.162232
-0.156188
-0.107655
-0.0462635
0.000257533
0.0163373
0.0133041
0.00427722
-0.00176071
-0.00282703
-0.00118928
0.000412061
0.000827291
0.000413514
-5.56184e-05
-0.000198767
-0.000102328
1.11045e-05
4.01294e-05
1.59755e-05
-5.10817e-06
-6.65601e-06
-9.96769e-07
1.37734e-06
6.0448e-07
-1.56911e-07
-1.35335e-07
1.1364e-08
1.14082e-08
-0.0716193
-0.175162
-0.0800549
-0.0274601
0.00904111
0.019688
0.0138694
0.00439139
-0.00170134
-0.00295992
-0.00152192
8.57036e-05
0.000684075
0.000447543
3.23185e-05
-0.000154337
-0.000110698
-1.07948e-05
3.22658e-05
2.0489e-05
-2.89624e-07
-6.29597e-06
-2.44657e-06
8.12551e-07
8.71619e-07
4.94441e-08
-1.69769e-07
-3.66643e-08
2.12304e-08
2.36603e-09
-0.0932264
-0.0476131
0.00372957
0.0166759
0.0176212
0.00935735
0.00139483
-0.00250668
-0.0026556
-0.00113692
0.000174694
0.000586166
0.000358971
2.21473e-05
-0.000125196
-9.12106e-05
-1.12276e-05
2.57942e-05
1.82793e-05
1.07069e-06
-5.22063e-06
-2.63576e-06
4.1738e-07
8.55133e-07
1.69553e-07
-1.49034e-07
-6.83677e-08
1.51064e-08
1.11433e-08
-1.69473e-09
)
;

boundaryField
{
    fixedWall_Bottom
    {
        type            greyDiffusiveRadiation;
        refValue        uniform 18049.5;
        refGradient     uniform 0;
        valueFraction   uniform 1;
        source          uniform 0;
        value           uniform 18049.5;
    }
    fixedWall_Right
    {
        type            greyDiffusiveRadiation;
        refValue        uniform 0;
        refGradient     uniform 0;
        valueFraction   uniform 1;
        source          uniform 0;
        value           uniform 0;
    }
    fixedWall_Left
    {
        type            greyDiffusiveRadiation;
        refValue        uniform 0;
        refGradient     uniform 0;
        valueFraction   uniform 0;
        source          uniform 0;
        value           nonuniform List<scalar> 
30
(
18049.2
18051
18052.4
18035.5
18014.4
18090.9
18328.6
18432.4
17633
15151.6
10958.5
6051.13
1882.27
-570.361
-1288.71
-962.775
-380.428
4.83829
120.567
86.3346
26.0543
-6.22537
-11.051
-5.37271
-0.454631
1.13087
0.828585
0.227903
-0.0716193
-0.0932264
)
;
    }
    fixedWall_Top
    {
        type            greyDiffusiveRadiation;
        refValue        uniform 0;
        refGradient     uniform 0;
        valueFraction   uniform 0;
        source          uniform 0;
        value           nonuniform List<scalar> 
30
(
-0.0932264
-0.0476131
0.00372957
0.0166759
0.0176212
0.00935735
0.00139483
-0.00250668
-0.0026556
-0.00113692
0.000174694
0.000586166
0.000358971
2.21473e-05
-0.000125196
-9.12106e-05
-1.12276e-05
2.57942e-05
1.82793e-05
1.07069e-06
-5.22063e-06
-2.63576e-06
4.1738e-07
8.55133e-07
1.69553e-07
-1.49034e-07
-6.83677e-08
1.51064e-08
1.11433e-08
-1.69473e-09
)
;
    }
    frontAndBack
    {
        type            empty;
    }
}


// ************************************************************************* //
