/*--------------------------------*- C++ -*----------------------------------*\
| =========                 |                                                 |
| \\      /  F ield         | OpenFOAM: The Open Source CFD Toolbox           |
|  \\    /   O peration     | Version:  2312                                  |
|   \\  /    A nd           | Website:  www.openfoam.com                      |
|    \\/     M anipulation  |                                                 |
\*---------------------------------------------------------------------------*/
FoamFile
{
    version     2.0;
    format      ascii;
    arch        "LSB;label=32;scalar=64";
    class       volScalarField;
    location    "0.06";
    object      ILambda_58_0;
}
// * * * * * * * * * * * * * * * * * * * * * * * * * * * * * * * * * * * * * //

dimensions      [1 0 -3 0 0 0 0];

internalField   nonuniform List<scalar> 
900
(
18049.5
18049.5
18049.5
18049.5
18049.5
18049.5
18049.5
18049.5
18049.5
18049.5
18049.5
18049.5
18049.5
18049.5
18049.5
18049.5
18049.5
18049.5
18049.4
18049.3
18049.3
18050.3
18051.8
18048
18029.1
18022.6
18181.3
18655.8
18342.1
11655.3
18049.5
18049.5
18049.5
18049.5
18049.5
18049.5
18049.5
18049.5
18049.5
18049.5
18049.5
18049.5
18049.5
18049.5
18049.5
18049.5
18049.5
18049.4
18049.2
18049.7
18051.4
18051.9
18040.9
18013.3
18029.5
18275.7
18811.2
18557.6
14338.7
4096.87
18049.5
18049.5
18049.5
18049.5
18049.5
18049.5
18049.5
18049.5
18049.5
18049.5
18049.5
18049.5
18049.5
18049.5
18049.5
18049.5
18049.3
18049.2
18050
18052.1
18051.8
18037.5
18006.4
18023.8
18266.3
18793.1
18797
16035.1
8764.83
670.166
18049.5
18049.5
18049.5
18049.5
18049.5
18049.5
18049.5
18049.5
18049.5
18049.5
18049.5
18049.5
18049.5
18049.5
18049.4
18049.3
18049.2
18050.2
18052.5
18052
18036.7
18003.3
18011.4
18223
18725.6
18957.3
17222.1
11792.6
4095.69
-443.318
18049.5
18049.5
18049.5
18049.5
18049.5
18049.5
18049.5
18049.5
18049.5
18049.5
18049.5
18049.5
18049.5
18049.4
18049.2
18049.2
18050.2
18052.7
18052.5
18037.8
18003.2
17998.1
18168.1
18629.4
19021.8
18050.8
14063.5
7253.08
1171.27
-542.374
18049.5
18049.5
18049.5
18049.5
18049.5
18049.5
18049.5
18049.5
18049.5
18049.5
18049.5
18049.5
18049.4
18049.2
18049.2
18050.2
18052.8
18053.3
18040.1
18005.5
17987.4
18113.1
18518.6
19002.6
18593.5
15781.3
10050.5
3532.61
-204.11
-336.235
18049.5
18049.5
18049.5
18049.5
18049.5
18049.5
18049.5
18049.5
18049.5
18049.5
18049.5
18049.4
18049.2
18049.1
18050.1
18052.8
18054
18043.1
18009.9
17981
18064.4
18405
18922.1
18911
17050.3
12434.4
6122.03
1088.67
-586.557
-129.849
18049.5
18049.5
18049.5
18049.5
18049.5
18049.5
18049.5
18049.5
18049.5
18049.5
18049.4
18049.2
18049.1
18049.9
18052.6
18054.6
18046.2
18015.7
17979.2
18025
18297.5
18803.1
19057
17949.6
14396.5
8668.87
2975.88
-163.008
-496.934
-8.54297
18049.5
18049.5
18049.5
18049.5
18049.5
18049.5
18049.5
18049.5
18049.5
18049.4
18049.2
18049
18049.7
18052.3
18055
18049.2
18022.4
17981.7
17996.3
18202.1
18665
19078.2
18547.9
15954.2
11018.9
5183.3
894.442
-574.958
-277.34
36.0718
18049.5
18049.5
18049.5
18049.5
18049.5
18049.5
18049.5
18049.5
18049.4
18049.2
18049
18049.5
18051.9
18055.1
18051.8
18029.3
17987.5
17977.8
18122.3
18523.3
19013.9
18906.8
17141
13085.1
7497.28
2460.51
-197.889
-533.864
-93.0583
37.0471
18049.5
18049.5
18049.5
18049.5
18049.5
18049.5
18049.5
18049.4
18049.2
18048.9
18049.3
18051.5
18055
18053.9
18035.9
17995.6
17968.6
18059.5
18389.1
18896.5
19081.5
18000.8
14826.2
9756.99
4374.55
675.037
-573.098
-332.712
9.95611
22.5116
18049.5
18049.5
18049.5
18049.5
18049.5
18049.5
18049.4
18049.2
18049
18049.2
18051.1
18054.7
18055.5
18042
18005.1
17966.9
18013.3
18269.6
18751.4
19120.6
18582.4
16233.1
11848.5
6475.05
1996.24
-259.76
-541.756
-138.123
44.6553
8.19719
18049.5
18049.5
18049.5
18049.5
18049.5
18049.4
18049.3
18049.1
18049.2
18050.8
18054.2
18056.3
18047.1
18015
17971.1
17982.4
18169.2
18597.9
19065.5
18936.3
17319.4
13698.4
8618.01
3668.14
462.507
-576.256
-353.194
-13.3322
40.8438
-0.412281
18049.5
18049.5
18049.5
18049.5
18049.5
18049.4
18049.3
18049.3
18050.4
18053.5
18056.6
18051
18024.5
17979.3
17964.8
18089.3
18449.9
18950.4
19111.1
18114
15266.8
10685.7
5571.32
1584.11
-326.402
-536.596
-160.051
40.4139
23.8545
-3.5341
18049.4
18049.4
18049.4
18049.5
18049.5
18049.4
18049.2
18049.9
18052.6
18056.1
18053.7
18033.1
17990
17958
18029.8
18316.5
18802.8
19151.6
18654.8
16541
12589.7
7584.1
3047.9
268.972
-579.253
-355.098
-27.8308
47.0897
8.17406
-3.36291
18049.3
18049.3
18049.4
18049.5
18049.4
18049.1
18049.4
18051.5
18055.2
18055.3
18040.4
18001.9
17959.7
17988.9
18203.1
18643.7
19097.3
18983.9
17528.7
14270.4
9595.39
4767.55
1221.9
-388.093
-523.906
-167.359
35.5372
32.6524
-1.10968
-1.99058
18049.2
18049.4
18049.6
18049.5
18049
18048.9
18050.3
18053.9
18056.1
18046.6
18014.1
17967.5
17964.5
18111.9
18488.2
18981.7
19144.1
18252.3
15694.5
11512.4
6643.64
2502.73
98.7207
-579.28
-346.333
-34.9381
49.2151
14.9321
-4.38941
-0.678116
18049.5
18049.7
18049.6
18049
18048.5
18049.3
18052.7
18056.4
18051.7
18025.9
17979.5
17953.7
18043.1
18346.6
18831.9
19176.2
18743.5
16850.7
13264.2
8576.39
4051.17
906.232
-440.593
-506.117
-165.521
32.0654
37.6977
2.27977
-4.05001
0.10748
18050
18049.9
18049.1
18048.3
18048.6
18051.6
18056.5
18055.9
18037
17993.9
17953.3
17994.8
18224.7
18669
19116.8
19039.1
17745.4
14802.5
10474.9
5788.24
2024.16
-47.3609
-575.002
-331.075
-36.7108
49.6332
19.7
-3.72777
-2.38475
0.382953
18050.3
18049.3
18048.3
18048.2
18050.9
18056.5
18059.2
18046.8
18008.9
17960.3
17964.3
18125.1
18508.3
18997.4
19177.4
18398.3
16100.7
12263.3
7627.28
3412.82
633.399
-482.306
-484.55
-157.898
30.2455
40.3978
5.25871
-4.83186
-0.806531
0.348411
18049.8
18048.2
18047.9
18050.4
18056.4
18061.6
18054.8
18023.3
17971.7
17948
18047.7
18360.1
18844.2
19195.6
18837.6
17150.3
13883.6
9483.15
5011.34
1605.32
-169.967
-565.981
-311.756
-34.8024
49.4087
22.8
-2.64205
-3.51388
0.145571
0.201381
18048.4
18047.3
18049.7
18055.8
18062.9
18060.8
18035.6
17984.9
17942.3
17990.9
18230.7
18677.7
19127.8
19096.8
17958.6
15296.7
11279.2
6746.47
2845.06
399.716
-512.995
-460.109
-146.644
29.832
41.6578
7.53621
-5.01682
-1.67338
0.484574
0.0642042
18046.6
18048.6
18054.8
18062.9
18064.4
18045.3
17997.9
17943.8
17951.8
18123.2
18513.2
19004.1
19211.2
18544.1
16482
12951.9
8540.92
4307.47
1240.41
-270.548
-552.315
-289.926
-30.4544
48.9859
24.6474
-1.55876
-4.22337
-0.287923
0.443598
-0.0169826
18046.2
18053.1
18061.7
18065.7
18051.8
18009.2
17949.5
17927.3
18038.2
18361.6
18849.7
19215.8
18933.8
17434.6
14453.6
10320.4
5932.28
2341.75
201.601
-533.187
-433.523
-133.187
30.467
42.0084
9.1208
-4.90244
-2.37189
0.399862
0.260032
-0.0443105
18049.2
18060.3
18065.6
18056.2
18019.2
17958.5
17915.8
17976.2
18231.4
18686.3
19144
19160.1
18163.6
15752.9
12019.1
7651.07
3672.16
924.377
-351.036
-534.498
-266.637
-24.5382
48.5296
25.5594
-0.656529
-4.62326
-0.73172
0.541869
0.0854774
-0.0388948
18054.9
18064.8
18058.1
18026.6
17967.8
17911.8
17931.5
18121.5
18523.8
19019.3
19251.8
18684.8
16832.6
13582.3
9393.83
5183.75
1898.07
35.6104
-544.029
-405.546
-118.465
31.8739
41.7632
10.0777
-4.67441
-2.87859
0.230816
0.400847
-0.0199914
-0.0218156
18063.4
18061.6
18034.5
17980.5
17919.6
17912.1
18048.6
18393.9
18890.2
19267.4
19047.1
17708.5
14980.8
11099.2
6818.16
3102.08
652.233
-414.227
-513.594
-242.656
-17.5217
48.1703
25.7481
-0.0373783
-4.8194
-1.10604
0.556459
0.191111
-0.0566623
-0.00627503
18064.8
18043.3
17996.9
17935.8
17906.1
17987.7
18256.5
18703.3
19141.4
19172.2
18285.5
16102.3
12650.2
8480.67
4491
1510.03
-98.5651
-544.876
-376.43
-103.342
33.6814
41.1074
10.4955
-4.45317
-3.2133
0.0499297
0.489177
0.0304579
-0.0501471
0.00263485
18063.9
18007.2
17939.2
17887
17929.1
18155
18598.6
19142.2
19453.5
19033
17409.1
14420.5
10413.8
6189.41
2663.92
433.727
-474.402
-504.328
-224.613
-9.59257
49.6566
26.1001
0.13514
-5.09487
-1.39714
0.562543
0.281969
-0.0537101
-0.0280723
0.00562119
18029.9
17969.9
17955.4
18025
18243.2
18617.8
19032.2
19198
18694.3
17122
14330.1
10590.2
6574.66
3100.48
759.92
-331.601
-507.735
-282.583
-51.2681
41.4106
33.8613
6.08975
-4.68983
-2.6458
0.178348
0.461131
0.0271123
-0.0564851
-0.00133194
0.00325567
)
;

boundaryField
{
    fixedWall_Bottom
    {
        type            greyDiffusiveRadiation;
        refValue        uniform 18049.5;
        refGradient     uniform 0;
        valueFraction   uniform 1;
        source          uniform 0;
        value           uniform 18049.5;
    }
    fixedWall_Right
    {
        type            greyDiffusiveRadiation;
        refValue        uniform 0;
        refGradient     uniform 0;
        valueFraction   uniform 1;
        source          uniform 0;
        value           uniform 0;
    }
    fixedWall_Left
    {
        type            greyDiffusiveRadiation;
        refValue        uniform 0;
        refGradient     uniform 0;
        valueFraction   uniform 0;
        source          uniform 0;
        value           nonuniform List<scalar> 
30
(
18049.5
18049.5
18049.5
18049.5
18049.5
18049.5
18049.5
18049.5
18049.5
18049.5
18049.5
18049.5
18049.5
18049.5
18049.4
18049.3
18049.2
18049.5
18050
18050.3
18049.8
18048.4
18046.6
18046.2
18049.2
18054.9
18063.4
18064.8
18063.9
18029.9
)
;
    }
    fixedWall_Top
    {
        type            greyDiffusiveRadiation;
        refValue        uniform 0;
        refGradient     uniform 0;
        valueFraction   uniform 0;
        source          uniform 0;
        value           nonuniform List<scalar> 
30
(
18029.9
17969.9
17955.4
18025
18243.2
18617.8
19032.2
19198
18694.3
17122
14330.1
10590.2
6574.66
3100.48
759.92
-331.601
-507.735
-282.583
-51.2681
41.4106
33.8613
6.08975
-4.68983
-2.6458
0.178348
0.461131
0.0271123
-0.0564851
-0.00133194
0.00325567
)
;
    }
    frontAndBack
    {
        type            empty;
    }
}


// ************************************************************************* //
