/*--------------------------------*- C++ -*----------------------------------*\
| =========                 |                                                 |
| \\      /  F ield         | OpenFOAM: The Open Source CFD Toolbox           |
|  \\    /   O peration     | Version:  2312                                  |
|   \\  /    A nd           | Website:  www.openfoam.com                      |
|    \\/     M anipulation  |                                                 |
\*---------------------------------------------------------------------------*/
FoamFile
{
    version     2.0;
    format      ascii;
    arch        "LSB;label=32;scalar=64";
    class       volScalarField;
    location    "0.06";
    object      ILambda_59_0;
}
// * * * * * * * * * * * * * * * * * * * * * * * * * * * * * * * * * * * * * //

dimensions      [1 0 -3 0 0 0 0];

internalField   nonuniform List<scalar> 
900
(
18049.5
18049.5
18049.5
18049.5
18049.5
18049.5
18049.5
18049.5
18049.5
18049.5
18049.5
18049.5
18049.5
18049.5
18049.5
18049.5
18049.5
18049.5
18049.5
18049.5
18049.4
18049.5
18050.4
18050.9
18042.2
18023.9
18096.3
18509.4
18624.1
12730.3
18049.5
18049.5
18049.5
18049.5
18049.5
18049.5
18049.5
18049.5
18049.5
18049.5
18049.5
18049.5
18049.5
18049.5
18049.5
18049.5
18049.5
18049.5
18049.4
18049.3
18049.7
18051.1
18050.1
18034.9
18012.6
18110.6
18576.6
18949.9
16122.3
5731.7
18049.5
18049.5
18049.5
18049.5
18049.5
18049.5
18049.5
18049.5
18049.5
18049.5
18049.5
18049.5
18049.5
18049.5
18049.5
18049.5
18049.5
18049.4
18049.3
18049.8
18051.4
18050.5
18034.4
18005.9
18070.9
18463.7
19013
17849.3
11705.5
1908.14
18049.5
18049.5
18049.5
18049.5
18049.5
18049.5
18049.5
18049.5
18049.5
18049.5
18049.5
18049.5
18049.5
18049.5
18049.5
18049.5
18049.4
18049.3
18049.8
18051.5
18051.5
18037.4
18004.7
18029.5
18322.3
18913.6
18712
15152.5
7235.29
155.064
18049.5
18049.5
18049.5
18049.5
18049.5
18049.5
18049.5
18049.5
18049.5
18049.5
18049.5
18049.5
18049.5
18049.5
18049.5
18049.4
18049.3
18049.7
18051.4
18052.4
18041.8
18009
18001
18192.2
18727.5
19048.7
17267.2
11525.6
3706.36
-444.928
18049.5
18049.5
18049.5
18049.5
18049.5
18049.5
18049.5
18049.5
18049.5
18049.5
18049.5
18049.5
18049.5
18049.5
18049.4
18049.3
18049.5
18051.1
18053.1
18046.4
18017.2
17988
18091
18516.5
19061.5
18455.7
14739
7791.41
1379.13
-498.841
18049.5
18049.5
18049.5
18049.5
18049.5
18049.5
18049.5
18049.5
18049.5
18049.5
18049.5
18049.5
18049.5
18049.4
18049.3
18049.4
18050.7
18053.2
18050.2
18027
17988.1
18023.7
18323.1
18900.8
19000.1
16930.7
11538.1
4572.54
101.615
-355.792
18049.5
18049.5
18049.5
18049.5
18049.5
18049.5
18049.5
18049.5
18049.5
18049.5
18049.5
18049.5
18049.4
18049.3
18049.2
18050.3
18052.9
18052.8
18036.5
17996.9
17987.5
18169.6
18672.3
19127.8
18262.3
14551.5
8199.69
2177.31
-432.029
-188.577
18049.5
18049.5
18049.5
18049.5
18049.5
18049.5
18049.5
18049.5
18049.5
18049.5
18049.5
18049.5
18049.3
18049.2
18049.8
18052.3
18054.1
18044.5
18010
17975.5
18062.9
18443.5
19016.3
18937.2
16726.2
11619.9
5188.94
639.33
-526.898
-64.1026
18049.5
18049.5
18049.5
18049.5
18049.5
18049.5
18049.5
18049.5
18049.5
18049.5
18049.5
18049.4
18049.2
18049.5
18051.5
18054.4
18050.2
18023.8
17979.9
17999.7
18251.3
18794.7
19156.8
18121.3
14468.5
8537.16
2796.28
-181.002
-417.745
6.01224
18049.5
18049.5
18049.5
18049.5
18049.5
18049.5
18049.5
18049.5
18049.5
18049.5
18049.4
18049.1
18049.2
18050.7
18053.9
18053.7
18036
17993.2
17971.3
18110.1
18549
19095.8
18878.7
16599.2
11729.6
5678.45
1120.28
-494.111
-253.823
33.3875
18049.5
18049.5
18049.5
18049.5
18049.5
18049.5
18049.5
18049.5
18049.5
18049.4
18049.2
18049
18050
18053
18055.3
18045.5
18009.9
17967.4
18020.3
18329.7
18891.3
19168.2
18019.5
14442.9
8832.31
3308.73
107.912
-506.807
-111.765
35.0952
18049.5
18049.5
18049.5
18049.5
18049.5
18049.5
18049.5
18049.5
18049.4
18049.2
18049
18049.5
18051.9
18055.4
18051.8
18025.9
17978.3
17973.8
18160.3
18639.8
19152.7
18829.4
16521.9
11852.7
6092.87
1551.71
-382.275
-381.968
-18.1959
25.5068
18049.5
18049.5
18049.5
18049.5
18049.5
18049.5
18049.5
18049.5
18049.3
18049
18049.2
18051
18054.7
18055.3
18039
17995.9
17959.4
18046.1
18402.3
18968.6
19171.5
17947.1
14452.3
9099.71
3752.68
403.248
-520.076
-226.339
28.4423
13.855
18049.5
18049.5
18049.5
18049.5
18049.5
18049.5
18049.5
18049.4
18049.1
18049.1
18050.2
18053.6
18056.5
18048.4
18014.6
17965.5
17981.4
18210.4
18717.9
19194.8
18790
16478.5
11982.8
6458.12
1945.07
-229.789
-460.555
-96.1785
41.4708
4.65661
18049.5
18049.5
18049.5
18049.5
18049.5
18049.5
18049.4
18049.2
18049.1
18049.7
18052.2
18056.2
18054
18031
17982.4
17955.2
18074.8
18468.5
19031.4
19171.5
17896.9
14484.8
9347.44
4149.12
695.459
-483.655
-321.337
-11.0306
35.856
-0.827692
18049.4
18049.4
18049.4
18049.4
18049.4
18049.4
18049.3
18049.1
18049.3
18051
18054.8
18056.5
18043.3
18002.8
17955.2
17992.8
18258.9
18785.1
19227.1
18759.7
16459.3
12116.8
6788.69
2308.72
-54.6822
-498.589
-177.042
31.3552
23.3362
-3.09019
18049.4
18049.3
18049.3
18049.3
18049.4
18049.3
18049.2
18049.1
18050
18053.1
18056.7
18051.3
18022
17970.3
17954.7
18105
18528.5
19083.2
19170.5
17864.1
14533.2
9580.38
4510.65
981.204
-413.417
-392.912
-64.8719
42.852
11.0895
-3.25393
18049.3
18049.3
18049.3
18049.4
18049.4
18049.3
18049.1
18049.3
18051.4
18055.5
18055.5
18037.5
17991.9
17948.1
18007.3
18305.2
18843.2
19252.7
18737.6
16457.9
12252.6
7093.45
2648.67
133.415
-504.584
-251.194
4.71592
36.8931
2.32051
-2.41139
18049.4
18049.4
18049.5
18049.6
18049.6
18049.2
18049
18050.1
18053.7
18056.9
18048.5
18013.9
17960.8
17957.7
18135.5
18582.3
19126.4
19169.8
17844.9
14592.8
9801.68
4845.39
1259.5
-319.423
-442.054
-123.614
36.7961
24.275
-2.43477
-1.34022
18049.6
18049.7
18049.8
18049.9
18049.5
18049
18049.2
18051.9
18056.6
18055.3
18032.9
17983
17943.9
18023.3
18347.9
18893.2
19273.5
18722.7
16470.2
12389.3
7378.19
2969.32
329.054
-485.247
-314.755
-32.2085
42.8752
11.8172
-4.01251
-0.461359
18049.9
18050.1
18050.2
18049.9
18049.2
18048.7
18050.4
18055.2
18058.6
18047.2
18007.4
17953.2
17961.9
18164.1
18629.4
19162.5
19170.2
17836.8
14660.8
10013.5
5158.89
1530.36
-208.24
-470.998
-181.758
20.1179
34.8818
2.71461
-3.66234
0.0832148
18050.2
18050.4
18050.1
18049.4
18048.5
18049.2
18053.4
18059.2
18056.5
18029.2
17974.6
17939.7
18037.6
18385.5
18935.8
19291.3
18714.2
16493.1
12526
7646.8
3273.94
529.044
-445.654
-366.365
-74.7279
40.8411
22.0831
-2.38244
-2.4931
0.319305
18050.2
18050
18049.3
18048.2
18048.2
18051.3
18058
18061.3
18045.8
17999.4
17943.4
17963.3
18188.2
18670.1
19193.5
19172.6
17838
14734.9
10217.1
5455.05
1794.16
-84.2597
-482.138
-236.099
-4.43703
41.0228
10.188
-4.20832
-1.25088
0.343827
18049.7
18048.9
18047.8
18047.2
18049.4
18055.7
18062.4
18056.9
18022.4
17962
17931.5
18048.3
18419
18974.6
19309.2
18712.7
16524.6
12661.9
7901.89
3565.01
731.465
-389.613
-405.856
-119.464
31.5586
31.0077
1.75846
-3.97208
-0.310627
0.260627
18048.1
18046.7
18045.9
18047.1
18052.6
18060.9
18062.6
18040.6
17985.7
17927.8
17960.1
18208.2
18706.2
19221.1
19176.4
17845
14811.7
10412.8
5736.59
2051.62
49.5818
-477.664
-284.831
-34.3967
42.0851
18.3808
-2.82339
-2.79846
0.229418
0.148604
18046.6
18045.2
18045.9
18050.2
18058.4
18064.1
18052.2
18007.9
17941.2
17918.4
18059.2
18457.7
19023
19341.7
18730
16572.6
12802.8
8148.3
3845.04
934.686
-320.503
-433.775
-163.99
16.2843
37.3595
7.54
-4.34418
-1.47733
0.429756
0.0532664
18044.8
18044.3
18047.3
18054.5
18062.6
18060.2
18030.7
17970.2
17916.7
17966.8
18236.5
18738.6
19226.8
19142
17805.2
14840.8
10565.9
5987.99
2299.03
192.886
-457.304
-326.177
-67.7952
37.9527
26.005
0.307003
-3.95104
-0.438778
0.409023
-0.00744628
18043.3
18045.8
18053
18063.3
18067.2
18046.7
17987.8
17907.5
17883.1
18042.7
18478.7
19091.4
19462.1
18914.2
16841.9
13164.1
8560.53
4216.02
1171.76
-244.043
-462.272
-212.328
-3.73344
41.7066
14.4321
-3.53157
-2.81218
0.20451
0.29635
-0.0367467
18052.7
18058.9
18065
18064.9
18045.8
17999
17939.9
17928.7
18065.6
18427
18944.6
19291.9
18902.3
17203.2
13995
9723.86
5379.26
2002.41
125.26
-437.509
-309.762
-69.737
34.0146
27.1129
2.11148
-4.07729
-0.965578
0.450613
0.101659
-0.034884
)
;

boundaryField
{
    fixedWall_Bottom
    {
        type            greyDiffusiveRadiation;
        refValue        uniform 18049.5;
        refGradient     uniform 0;
        valueFraction   uniform 1;
        source          uniform 0;
        value           uniform 18049.5;
    }
    fixedWall_Right
    {
        type            greyDiffusiveRadiation;
        refValue        uniform 0;
        refGradient     uniform 0;
        valueFraction   uniform 1;
        source          uniform 0;
        value           uniform 0;
    }
    fixedWall_Left
    {
        type            greyDiffusiveRadiation;
        refValue        uniform 0;
        refGradient     uniform 0;
        valueFraction   uniform 0;
        source          uniform 0;
        value           nonuniform List<scalar> 
30
(
18049.5
18049.5
18049.5
18049.5
18049.5
18049.5
18049.5
18049.5
18049.5
18049.5
18049.5
18049.5
18049.5
18049.5
18049.5
18049.5
18049.4
18049.4
18049.3
18049.4
18049.6
18049.9
18050.2
18050.2
18049.7
18048.1
18046.6
18044.8
18043.3
18052.7
)
;
    }
    fixedWall_Top
    {
        type            greyDiffusiveRadiation;
        refValue        uniform 0;
        refGradient     uniform 0;
        valueFraction   uniform 0;
        source          uniform 0;
        value           nonuniform List<scalar> 
30
(
18052.7
18058.9
18065
18064.9
18045.8
17999
17939.9
17928.7
18065.6
18427
18944.6
19291.9
18902.3
17203.2
13995
9723.86
5379.26
2002.41
125.26
-437.509
-309.762
-69.737
34.0146
27.1129
2.11148
-4.07729
-0.965578
0.450613
0.101659
-0.034884
)
;
    }
    frontAndBack
    {
        type            empty;
    }
}


// ************************************************************************* //
