/*--------------------------------*- C++ -*----------------------------------*\
| =========                 |                                                 |
| \\      /  F ield         | OpenFOAM: The Open Source CFD Toolbox           |
|  \\    /   O peration     | Version:  2312                                  |
|   \\  /    A nd           | Website:  www.openfoam.com                      |
|    \\/     M anipulation  |                                                 |
\*---------------------------------------------------------------------------*/
FoamFile
{
    version     2.0;
    format      ascii;
    arch        "LSB;label=32;scalar=64";
    class       volScalarField;
    location    "0.06";
    object      ILambda_8_0;
}
// * * * * * * * * * * * * * * * * * * * * * * * * * * * * * * * * * * * * * //

dimensions      [1 0 -3 0 0 0 0];

internalField   nonuniform List<scalar> 
900
(
8501.71
16386.4
18574.6
18617.3
18270.4
18060.7
18007
18020.7
18041.8
18051.9
18053.1
18051.2
18049.7
18049.1
18049.2
18049.4
18049.5
18049.5
18049.5
18049.5
18049.5
18049.5
18049.5
18049.5
18049.5
18049.5
18049.5
18049.5
18049.5
18049.5
807.692
7913.06
14419.1
17818.6
18754.3
18595.7
18251.9
18050.8
17998.5
18014.4
18039.2
18052
18054.1
18052
18049.9
18049
18049
18049.3
18049.5
18049.5
18049.5
18049.5
18049.5
18049.5
18049.5
18049.5
18049.5
18049.5
18049.5
18049.5
-698.233
1726.12
7466.81
13291.9
17057.3
18589.3
18751.8
18438.6
18147.7
18014.3
17996.3
18020.8
18043.9
18053.7
18054.2
18051.6
18049.6
18048.9
18049
18049.3
18049.5
18049.5
18049.5
18049.5
18049.5
18049.5
18049.5
18049.5
18049.5
18049.5
-421.123
-573.537
2032.9
7071.64
12447.3
16364
18316.1
18799.7
18592.9
18265.2
18059.1
17993.2
18003.4
18031.2
18049.4
18054.9
18053.6
18050.9
18049.3
18048.9
18049.1
18049.4
18049.5
18049.5
18049.5
18049.5
18049.5
18049.5
18049.5
18049.5
-79.5006
-694.234
-414.334
2132.91
6704.26
11750.7
15730.9
17991.1
18769.2
18706.7
18385.4
18124.6
18006.6
17991.7
18016.8
18041.6
18053.5
18055
18052.5
18050.1
18049
18048.9
18049.2
18049.4
18049.5
18049.5
18049.5
18049.5
18049.5
18049.5
35.6671
-282.338
-783.318
-309.097
2133.91
6358.74
11144.6
15144.3
17638.4
18680.4
18780.2
18498.1
18202.9
18035.2
17988
18003.2
18031.3
18049.5
18055.3
18054.1
18051.2
18049.4
18048.9
18049
18049.3
18049.5
18049.5
18049.5
18049.4
18049.4
31.3675
-15.7118
-417.713
-820.881
-247.6
2083.1
6031.53
10599.7
14594.1
17270
18547.2
18816.4
18597.7
18287.7
18076.7
17993.6
17992.5
18019.7
18043.3
18054.1
18055.2
18052.6
18050.2
18049
18048.9
18049.2
18049.4
18049.5
18049.5
18049.4
8.025
50.2142
-82.0744
-512.499
-838.356
-216.362
2003.09
5720.14
10099.5
14073.2
16892.9
18379.5
18818.6
18681
18374.2
18128.3
18008.6
17986.3
18008.2
18035.2
18051.1
18055.6
18054
18051.2
18049.5
18049
18049.2
18049.5
18049.6
18049.5
-2.57834
30.6087
46.2572
-144.636
-579.893
-847.552
-206.218
1905.94
5422.71
9634.05
13576.6
16511.1
18184.3
18790.2
18746.4
18458.6
18187.5
18032.4
17985.4
17997.9
18026
18046.6
18054.9
18055
18052.3
18050
18049.1
18049.1
18049.5
18049.8
-3.05517
5.53644
46.7427
32.2655
-198.877
-628.822
-853.558
-210.985
1798.65
5137.88
9196.6
13100.8
16127.1
17966.8
18734.5
18793.3
18538.1
18251.6
18064.2
17990.4
17989.8
18016.2
18040.6
18053
18055.4
18053.2
18050.5
18049
18048.8
18049.5
-1.00542
-3.90323
16.7286
56.9032
14.0253
-244.513
-665.014
-858.608
-226.381
1685.57
4864.56
8782.55
12642.9
15742.7
17731.1
18654.3
18821.5
18610.6
18318.5
18102.9
18001.4
17984.7
18006.8
18033.6
18050.1
18055.3
18053.9
18050.8
18048.7
18048.3
0.171899
-3.41021
-1.30789
28.023
62.2459
-5.3624
-282.385
-692.158
-863.643
-249.36
1569.53
4601.89
8388.57
12200.9
15358.8
17480.3
18551.9
18831.3
18674.5
18386.1
18147.3
18018.4
17983.2
17998.4
18026.2
18046.6
18054.9
18054.9
18051.6
18048.1
0.32665
-0.95321
-4.76818
3.29527
38.1857
64.1259
-24.247
-313.563
-712.684
-869.004
-277.708
1452.44
4349.18
8012.18
11773.3
14976.5
17216.8
18429.6
18823.3
18728.7
18452.8
18196.1
18040.9
17985.5
17991.5
18018.9
18042.9
18054.9
18057.1
18051.9
0.134688
0.290162
-2.43579
-4.96494
8.94132
46.8406
63.6779
-41.7922
-339.064
-728.23
-874.749
-309.786
1335.62
4105.85
7651.49
11358.7
14596.2
16942.8
18289.3
18798.1
18772.5
18517.2
18248.1
18068.1
17991.2
17985.8
18011.3
18038.6
18055.5
18058.7
-0.00585678
0.392313
-0.233366
-3.84053
-4.1191
14.9744
53.9883
61.7577
-57.6137
-359.769
-739.928
-880.807
-344.359
1220.01
3871.41
7305.02
10956.1
14218.5
16659.8
18132.7
18756.4
18805.3
18578
18302
18099.1
17999.6
17980.5
18002.2
18032
18057.6
-0.0361579
0.14721
0.469689
-1.06174
-4.93779
-2.46341
20.9821
59.7847
58.9836
-71.577
-376.416
-748.575
-887.055
-380.486
1106.29
3645.46
6971.6
10564.6
13843.6
16369.1
17961.3
18699
18827.3
18634.8
18357.2
18133.4
18010.1
17974.9
17988.2
18033.2
-0.0184345
-0.015182
0.328735
0.338772
-2.03708
-5.64307
-0.236509
26.7265
64.4353
55.7887
-83.6854
-389.612
-754.743
-893.355
-417.443
994.962
3427.69
6650.31
10183.6
13471.6
16071.7
17776.3
18627
18838.8
18687.8
18414.2
18171.6
18024.2
17965.4
17987.5
-0.00114065
-0.0455226
0.0705321
0.473329
0.0152997
-3.03816
-5.95335
2.35967
32.0839
68.1407
52.4669
-94.0076
-399.841
-758.85
-899.593
-454.694
886.404
3217.85
6340.44
9812.48
13102.7
15768.4
17578.7
18541.1
18840.6
18738.1
18474.6
18217.2
18041.8
17961.3
0.00404918
-0.0218458
-0.0433228
0.194435
0.541666
-0.461039
-3.98341
-5.90281
5.16903
36.994
71.0696
49.2208
-102.621
-407.483
-761.232
-905.722
-491.855
780.939
3015.86
6041.52
9450.7
12736.5
15459.2
17368.9
18441.7
18833.4
18786.9
18540.7
18277.9
18029
0.00258858
-0.000698007
-0.0434799
-0.00722279
0.330213
0.515751
-1.04625
-4.81928
-5.53597
8.06794
41.4185
73.3607
46.2191
-109.576
-412.857
-762.233
-911.804
-528.646
678.937
2821.87
5753.38
9097.93
12372.8
15143.8
17146.1
18328
18816.8
18832
18631.9
18247.7
0.000436559
0.00536046
-0.014322
-0.055572
0.0610399
0.453512
0.389655
-1.69531
-5.50493
-4.90383
10.938
45.3237
75.1585
43.6532
-114.895
-416.304
-762.293
-918.011
-564.792
580.969
2636.39
5476.19
8753.89
12010.7
14820.8
16908.4
18198.5
18782.5
18903
18582.4
-0.000429091
0.00345415
0.00281489
-0.0322701
-0.0493595
0.153073
0.540665
0.168733
-2.3551
-6.00987
-4.08274
13.6473
48.7028
76.6699
41.7576
-118.644
-418.297
-762.003
-924.561
-599.862
487.946
2460.36
5210.49
8418.41
11649.4
14487.9
16653.5
18040.8
18759.2
18856.7
-0.000394428
0.000812964
0.00550644
-0.00591482
-0.0471852
-0.0202999
0.251937
0.57186
-0.121335
-2.9633
-6.33432
-3.19714
16.0671
51.6364
78.2043
40.7635
-121.043
-419.533
-762.074
-931.572
-633.107
401.24
2295.2
4957.11
8091.42
11287
14143.2
16371.9
17858.7
18777.3
-0.000169961
-0.000269017
0.00290398
0.0039692
-0.0180116
-0.0507085
0.0267361
0.333722
0.544112
-0.427576
-3.46906
-6.54212
-2.4143
18.1341
54.3528
80.1496
40.7826
-122.589
-420.937
-763.209
-938.877
-663.317
322.69
2142.65
4717.11
7772.71
10921.7
13787.7
16009.1
18036.6
-5.17393e-05
-0.000316223
0.000837599
0.00360999
-0.00144377
-0.0265316
-0.0398059
0.074211
0.379941
0.486666
-0.682775
-3.87376
-6.7754
-1.88969
19.9332
57.2395
82.8674
41.6607
-124.109
-423.565
-765.908
-945.846
-688.776
254.501
2004.56
4491.85
7458.94
10572.7
13276.1
16446.6
-2.62617e-05
-0.000174662
0.000265008
0.00153444
0.00134219
-0.00635508
-0.0251495
-0.0239997
0.0991235
0.39774
0.461056
-0.84448
-4.26634
-7.22216
-1.67579
21.7488
60.772
86.5383
42.8752
-126.707
-428.424
-770.278
-951.326
-707.324
198.895
1883.94
4275.23
7192.77
9984.48
14034.1
-1.80855e-05
-0.000151738
0.000269686
0.000870845
-0.000139163
-0.00177056
-0.00372494
-0.0165936
-0.0246788
0.092211
0.431889
0.532446
-0.942586
-4.81726
-8.02917
-1.63776
24.0248
65.3358
90.9897
43.5582
-131.473
-436.019
-775.708
-953.667
-717.476
158.955
1769.04
4132.55
6609.9
11053.9
2.04035e-06
-0.000185876
0.000170979
0.00108419
-0.00041047
-0.00378949
0.000736432
0.00868152
-0.0179846
-0.0613436
0.0799727
0.555958
0.718698
-1.11903
-5.74048
-9.18835
-1.33929
27.3963
71.1111
95.3465
41.8314
-140.344
-446.844
-779.744
-947.563
-707.936
127.581
1751.76
3618.03
7874.24
2.40438e-05
-0.000188019
-6.68827e-05
0.00121917
0.00071325
-0.00496552
-0.00494635
0.0159299
0.02357
-0.05493
-0.142135
0.114037
0.855631
1.03351
-1.52716
-7.34017
-11.0035
-0.794367
32.6006
80.0931
102.818
40.5423
-154.567
-471.07
-805.822
-962.843
-731.849
189.857
1373.16
5084.82
3.55255e-05
-7.67744e-05
-0.00034484
0.000497752
0.00206961
-0.00115205
-0.00937003
-0.00219721
0.0326261
0.0335279
-0.0901051
-0.218244
0.0826903
0.983369
1.37368
-1.02774
-6.962
-11.6302
-4.17794
24.8349
69.5952
98.6261
60.2144
-91.0349
-357.088
-660.699
-873.824
-705.89
-415.159
1867.12
)
;

boundaryField
{
    fixedWall_Bottom
    {
        type            greyDiffusiveRadiation;
        refValue        uniform 18049.5;
        refGradient     uniform 0;
        valueFraction   uniform 1;
        source          uniform 0;
        value           uniform 18049.5;
    }
    fixedWall_Right
    {
        type            greyDiffusiveRadiation;
        refValue        uniform 0;
        refGradient     uniform 0;
        valueFraction   uniform 0;
        source          uniform 0;
        value           nonuniform List<scalar> 
30
(
18049.5
18049.5
18049.5
18049.5
18049.5
18049.4
18049.4
18049.5
18049.8
18049.5
18048.3
18048.1
18051.9
18058.7
18057.6
18033.2
17987.5
17961.3
18029
18247.7
18582.4
18856.7
18777.3
18036.6
16446.6
14034.1
11053.9
7874.24
5084.82
1867.12
)
;
    }
    fixedWall_Left
    {
        type            greyDiffusiveRadiation;
        refValue        uniform 0;
        refGradient     uniform 0;
        valueFraction   uniform 1;
        source          uniform 0;
        value           uniform 0;
    }
    fixedWall_Top
    {
        type            greyDiffusiveRadiation;
        refValue        uniform 0;
        refGradient     uniform 0;
        valueFraction   uniform 0;
        source          uniform 0;
        value           nonuniform List<scalar> 
30
(
3.55255e-05
-7.67744e-05
-0.00034484
0.000497752
0.00206961
-0.00115205
-0.00937003
-0.00219721
0.0326261
0.0335279
-0.0901051
-0.218244
0.0826903
0.983369
1.37368
-1.02774
-6.962
-11.6302
-4.17794
24.8349
69.5952
98.6261
60.2144
-91.0349
-357.088
-660.699
-873.824
-705.89
-415.159
1867.12
)
;
    }
    frontAndBack
    {
        type            empty;
    }
}


// ************************************************************************* //
