/*--------------------------------*- C++ -*----------------------------------*\
| =========                 |                                                 |
| \\      /  F ield         | OpenFOAM: The Open Source CFD Toolbox           |
|  \\    /   O peration     | Version:  2312                                  |
|   \\  /    A nd           | Website:  www.openfoam.com                      |
|    \\/     M anipulation  |                                                 |
\*---------------------------------------------------------------------------*/
FoamFile
{
    version     2.0;
    format      ascii;
    arch        "LSB;label=32;scalar=64";
    class       volScalarField;
    location    "0.06";
    object      qin;
}
// * * * * * * * * * * * * * * * * * * * * * * * * * * * * * * * * * * * * * //

dimensions      [1 0 -3 0 0 0 0];

internalField   uniform 0;

boundaryField
{
    fixedWall_Bottom
    {
        type            calculated;
        value           nonuniform List<scalar> 
30
(
6589.53
8161.57
9127.27
9921.45
10569.5
11114.5
11574
11961.9
12287.3
12556.9
12775.5
12946.6
13072.9
13156.1
13197.4
13197.4
13156.1
13072.9
12946.6
12775.5
12556.9
12287.3
11961.8
11574
11114.4
10569.5
9921.42
9127.24
8161.55
6589.51
)
;
    }
    fixedWall_Right
    {
        type            calculated;
        value           nonuniform List<scalar> 
30
(
35171.5
32092.1
29946
28116.8
26482.9
24921.3
23466.4
22123.9
20864.8
19671.2
18542.4
17476.7
16467.5
15509.6
14600.2
13736.8
12916
12134.8
11390.6
10681
10003.4
9355.07
8733.23
8135.07
7557.66
6996.83
6452.74
5905.26
5407.72
4641.04
)
;
    }
    fixedWall_Left
    {
        type            calculated;
        value           nonuniform List<scalar> 
30
(
35171.6
32092.1
29946
28116.9
26482.9
24921.4
23466.5
22123.9
20864.8
19671.3
18542.5
17476.7
16467.5
15509.7
14600.3
13736.8
12916
12134.8
11390.6
10681
10003.5
9355.09
8733.25
8135.09
7557.69
6996.86
6452.78
5905.32
5407.8
4641.09
)
;
    }
    fixedWall_Top
    {
        type            calculated;
        value           nonuniform List<scalar> 
30
(
8447.9
9143.66
9764.68
10208.7
10608.3
11026
11410
11736.3
12022
12275.6
12489.9
12660.1
12787.7
12873.9
12917.7
12917.7
12873.9
12787.7
12660.1
12489.9
12275.6
12022
11736.3
11409.9
11025.9
10608.3
10208.6
9764.63
9143.59
8447.83
)
;
    }
    frontAndBack
    {
        type            empty;
    }
}


// ************************************************************************* //
