/*--------------------------------*- C++ -*----------------------------------*\
| =========                 |                                                 |
| \\      /  F ield         | OpenFOAM: The Open Source CFD Toolbox           |
|  \\    /   O peration     | Version:  2312                                  |
|   \\  /    A nd           | Website:  www.openfoam.com                      |
|    \\/     M anipulation  |                                                 |
\*---------------------------------------------------------------------------*/
FoamFile
{
    version     2.0;
    format      ascii;
    arch        "LSB;label=32;scalar=64";
    class       volScalarField;
    location    "0.06";
    object      qr;
}
// * * * * * * * * * * * * * * * * * * * * * * * * * * * * * * * * * * * * * //

dimensions      [1 0 -3 0 0 0 0];

internalField   uniform 0;

boundaryField
{
    fixedWall_Bottom
    {
        type            calculated;
        value           nonuniform List<scalar> 
30
(
-50114.6
-48542.5
-47576.8
-46782.6
-46134.6
-45589.6
-45130.1
-44742.2
-44416.8
-44147.1
-43928.6
-43757.5
-43631.2
-43548
-43506.7
-43506.7
-43548
-43631.2
-43757.5
-43928.6
-44147.2
-44416.8
-44742.2
-45130.1
-45589.6
-46134.6
-46782.7
-47576.8
-48542.5
-50114.6
)
;
    }
    fixedWall_Right
    {
        type            calculated;
        value           nonuniform List<scalar> 
30
(
35171.5
32092.1
29946
28116.8
26482.9
24921.3
23466.4
22123.9
20864.8
19671.2
18542.4
17476.7
16467.5
15509.6
14600.2
13736.8
12916
12134.8
11390.6
10681
10003.4
9355.07
8733.23
8135.07
7557.66
6996.83
6452.74
5905.26
5407.72
4641.04
)
;
    }
    fixedWall_Left
    {
        type            calculated;
        value           nonuniform List<scalar> 
30
(
35171.6
32092.1
29946
28116.9
26482.9
24921.4
23466.5
22123.9
20864.8
19671.3
18542.5
17476.7
16467.5
15509.7
14600.3
13736.8
12916
12134.8
11390.6
10681
10003.5
9355.09
8733.25
8135.09
7557.69
6996.86
6452.78
5905.32
5407.8
4641.09
)
;
    }
    fixedWall_Top
    {
        type            calculated;
        value           nonuniform List<scalar> 
30
(
8447.9
9143.66
9764.68
10208.7
10608.3
11026
11410
11736.3
12022
12275.6
12489.9
12660.1
12787.7
12873.9
12917.7
12917.7
12873.9
12787.7
12660.1
12489.9
12275.6
12022
11736.3
11409.9
11025.9
10608.3
10208.6
9764.63
9143.59
8447.83
)
;
    }
    frontAndBack
    {
        type            empty;
    }
}


// ************************************************************************* //
