/*--------------------------------*- C++ -*----------------------------------*\
| =========                 |                                                 |
| \\      /  F ield         | OpenFOAM: The Open Source CFD Toolbox           |
|  \\    /   O peration     | Version:  2312                                  |
|   \\  /    A nd           | Website:  www.openfoam.com                      |
|    \\/     M anipulation  |                                                 |
\*---------------------------------------------------------------------------*/
FoamFile
{
    version     2.0;
    format      ascii;
    arch        "LSB;label=32;scalar=64";
    class       volScalarField;
    location    "0.045";
    object      G;
}
// * * * * * * * * * * * * * * * * * * * * * * * * * * * * * * * * * * * * * //

dimensions      [1 0 -3 0 0 0 0];

internalField   nonuniform List<scalar> 
900
(
97108.2
116433
122853
126061
128182
129797
131082
132125
132975
133664
134215
134641
134953
135158
135259
135259
135158
134953
134641
134215
133664
132975
132125
131082
129797
128182
126061
122853
116433
97108.2
75460.5
94386.4
104742
110791
114645
117362
119399
120981
122229
123215
123987
124575
125001
125278
125415
125415
125278
125001
124575
123987
123215
122229
120981
119399
117362
114645
110791
104742
94386.4
75460.4
67059.1
81715.8
91931.5
99064.7
104021
107605
110294
112367
113990
115265
116257
117011
117554
117907
118081
118081
117907
117554
117011
116257
115265
113990
112367
110293
107605
104021
99064.6
91931.4
81715.8
67059.1
61766.9
73373.2
82352.9
89413.2
94744.3
98793.4
101907
104335
106244
107744
108911
109797
110435
110850
111053
111053
110850
110435
109797
108911
107744
106244
104335
101907
98793.4
94744.4
89413.3
82353
73373.2
61766.9
57707.9
67292.2
75036.2
81560.8
86805.9
90982.3
94299.3
96938.8
99038.8
100701
101999
102985
103696
104158
104385
104385
104158
103696
102985
101998
100701
99038.7
96938.7
94299.2
90982.2
86805.7
81560.6
75036.1
67292.2
57707.9
54166.5
62379.8
69091.4
74987
79939.4
84036
87388.8
90117.9
92325.6
94093.8
95485.4
96548.2
97317.3
97817.2
98063.3
98063.3
97817.2
97317.3
96548.2
95485.4
94093.7
92325.6
90117.9
87388.8
84035.9
79939.2
74986.7
69091.2
62379.9
54166.5
51033.8
58229.9
64111.5
69411.1
73998.7
77904.5
81181.1
83901.3
86136.8
87949.9
89391
90499.8
91306.3
91832.1
92091.5
92091.5
91832.1
91306.2
90499.8
89391
87949.8
86136.8
83901.3
81181.1
77904.5
73998.7
69410.9
64111.3
58229.9
51033.8
48185.3
54601.6
59812.3
64577.5
68787
72448.2
75581.4
78226.6
80429.7
82236.3
83685.5
84809.1
85631.3
86169.8
86436.1
86436.1
86169.7
85631.3
84809.1
83685.5
82236.2
80429.7
78226.5
75581.4
72448.2
68787
64577.5
59812.1
54601.6
48185.2
45551.1
51331.8
55992.1
60290.1
64139.2
67538.5
70494.1
73025.6
75159.2
76925.1
78352.3
79465.7
80284.7
80823.1
81090.1
81090.1
80823.1
80284.7
79465.7
78352.3
76925
75159.1
73025.6
70494
67538.4
64139.2
60290.1
55992
51331.8
45551.1
43085.3
48332
52532.6
56425.4
59945.3
63086.3
65849.8
68245.3
70285.5
71988.1
73372.9
74458.1
75259
75787
76049.2
76049.2
75787
75259
74458.1
73372.9
71988.1
70285.4
68245.3
65849.7
63086.2
59945.3
56425.4
52532.5
48331.9
43085.3
40763.3
45556.5
49365.7
52904.1
56126.7
59022.6
61591.6
63839.1
65770.2
67394.2
68722.6
69767.8
70541.1
71051.7
71305.4
71305.4
71051.6
70541.1
69767.8
68722.6
67394.1
65770.2
63839
61591.5
59022.5
56126.6
52904.1
49365.6
45556.4
40763.3
38569.6
42970.3
46440.6
49665.3
52619.8
55287.8
57667.9
59764.1
61577.9
63113.3
64376.3
65374.2
66114.5
66604
66847.4
66847.4
66604
66114.5
65374.2
64376.3
63113.3
61577.8
59764
57667.8
55287.6
52619.7
49665.3
46440.6
42970.2
38569.6
36487.2
40542.9
43717.4
46662.7
49375
51833.4
54035
55983.2
57677.5
59119.4
60311.7
61257.7
61961.7
62428.2
62660.4
62660.4
62428.1
61961.7
61257.6
60311.6
59119.4
57677.5
55983.2
54034.9
51833.3
49375
46662.7
43717.4
40542.9
36487.2
34502.4
38252.4
41167
43862.3
46355.7
48622.2
50657.2
52464.2
54041.5
55389
56507.9
57399.2
58064.9
58507
58727.4
58727.4
58506.9
58064.9
57399.2
56507.9
55389
54041.5
52464.2
50657.1
48622.1
46355.6
43862.2
41167
38252.3
34502.4
32606.5
36082.8
38767.8
41238.2
43533.1
45624
47504.4
49178.8
50644.2
51899.5
52945
53780.5
54406.4
54823.1
55031.1
55031.1
54823.1
54406.4
53780.6
52945
51899.6
50644.2
49178.7
47504.3
45623.9
43533
41238.1
38767.7
36082.7
32606.4
30792.4
34021.5
36501.9
38769.3
40883.6
42814.1
44551.8
46102.3
47462.3
48629.5
49603.4
50383.5
50969.1
51359.8
51555.1
51555.1
51359.8
50969.2
50383.6
49603.5
48629.6
47462.4
46102.3
44551.7
42814
40883.5
38769.2
36501.8
34021.3
30792.3
29053.5
32057.2
34354.6
36437.9
38387.8
40171.9
41778
43213.4
44474.9
45558.9
46464.4
47190.6
47736.5
48101.1
48283.7
48283.7
48101.2
47736.5
47190.7
46464.5
45559
44475
43213.4
41777.9
40171.9
38387.7
36437.9
34354.5
32057
29053.3
27383.9
30180.8
32313.6
34229.8
36029.3
37679.9
39164.9
40493.5
41663.1
42669.2
43510.1
44185
44692.7
45031.9
45201.9
45201.8
45031.9
44692.6
44185
43510.2
42669.3
41663.2
40493.5
39164.9
37679.9
36029.3
34229.8
32313.5
30180.7
27383.7
25778.7
28385
30369
32132.8
33794.3
35322.8
36696.5
37926.1
39010.2
39943.6
40724.3
41350.9
41822.4
42137.4
42295.2
42295.2
42137.3
41822.3
41350.9
40724.3
39943.6
39010.2
37926
36696.4
35322.7
33794.3
32132.7
30368.9
28384.9
25778.6
24234
26663.3
28512
30136.4
31670.7
33087.2
34358.5
35496.4
36501.2
37367.1
38091.6
38673.4
39111
39403.4
39549.7
39549.6
39403.2
39110.8
38673.2
38091.5
37367
36501.1
35496.2
34358.4
33087
31670.5
30136.2
28511.9
26663.2
24233.9
22746.1
25010.1
26735
28231.3
29647.7
30961.2
32138.5
33191.5
34122.6
34925.9
35598.2
36138.3
36544.6
36815.9
36951.7
36951.6
36815.7
36544.4
36138.1
35598
34925.7
34122.4
33191.2
32138.2
30961
29647.4
28231
26734.7
25009.8
22746
21311.5
23420.1
25031.1
26409.3
27715.9
28934.4
30024.9
30999.2
31862.1
32607.2
33231.1
33732.5
34109.9
34361.8
34487.8
34487.7
34361.6
34109.6
33732.3
33230.9
32607
31861.8
30998.9
30024.6
28934
27715.6
26408.9
25030.7
23419.7
21311.3
19927.3
21888.7
23394.1
24663
25866.9
26997.1
28007.5
28908.7
29708
30399.2
30978
31443.4
31794
32028.1
32145.2
32145.1
32027.9
31793.8
31443.2
30977.8
30399
29707.8
28908.4
28007.2
26996.8
25866.6
24662.7
23393.7
21888.3
19927
18590.1
20411.6
21818.2
22985.5
24092.6
25140.4
26076.5
26909.3
27649.2
28290.2
28827.1
29258.8
29584.4
29802
29910.8
29910.8
29801.9
29584.3
29258.7
28826.9
28290.1
27649.1
26909.2
26076.4
25140.2
24092.4
22985.3
21818
20411.3
18589.8
17297.5
18984.7
20298.3
21370.4
22385.7
23355.9
24222.8
24991.5
25675.4
26269.5
26767
27167.2
27469.3
27671.5
27772.6
27772.6
27671.4
27469.2
27167.1
26767
26269.4
25675.5
24991.5
24222.8
23355.9
22385.7
21370.4
20298.2
18984.6
17297.4
16044.5
17601.5
18826.1
19808.3
20735.6
21631.7
22433.6
23141.7
23772.4
24322
24782.7
25152.9
25432.6
25620.1
25714.1
25714
25620.1
25432.5
25152.8
24782.6
24322.1
23772.6
23141.9
22433.8
21632
20735.8
19808.5
18826.3
17601.6
16044.5
14835.4
16265.4
17404
18300.7
19143.2
19968.4
20709
21359.6
21939.5
22446.9
22872.7
23214.4
23472.8
23646.3
23733.4
23733.4
23646.3
23472.7
23214.4
22872.6
22447
21939.8
21360
20709.3
19968.8
19143.6
18301
17404.3
16265.7
14835.7
13626.8
14926.2
15977.3
16789.5
17547.1
18300.8
18981.1
19575.3
20104.3
20569.5
20960.7
21274.2
21511
21670.5
21750.8
21750.8
21670.5
21511
21274.1
20960.6
20569.6
20104.5
19575.7
18981.5
18301.3
17547.6
16790
15977.8
14926.7
13627.3
12575
13750.4
14719.2
15454.7
16136.5
16826.8
17454.1
17998.7
18482.9
18911
19272.2
19561.1
19779
19926.1
20000.5
20000.5
19926.1
19779
19561
19272.1
18911.1
18483.1
17999.1
17454.7
16827.4
16137.1
15455.3
14719.8
13751
12575.6
10879.3
11859.2
12704.2
13330.4
13897.7
14488.6
15036
15506.9
15921.4
16290.4
16604.3
16855.2
17043.6
17170.8
17235.3
17235.3
17170.8
17043.6
16855.2
16604.2
16290.4
15921.5
15507.2
15036.4
14489
13898.2
13330.9
12704.6
11859.6
10879.7
)
;

boundaryField
{
    fixedWall_Bottom
    {
        type            calculated;
        value           nonuniform List<scalar> 
30
(
127229
129797
131422
132807
133958
134941
135781
136497
137103
137608
138021
138345
138585
138743
138822
138822
138743
138585
138345
138021
137608
137103
136497
135781
134941
133958
132807
131422
129797
127229
)
;
    }
    fixedWall_Right
    {
        type            calculated;
        value           nonuniform List<scalar> 
30
(
67766.6
62670.2
59108.8
55933.4
53057.4
50301.3
47709.3
45284.2
42987.1
40792.5
38697
36696.9
34783
32946.9
31183.5
29488.7
27857.9
26287
24772.5
23311.3
21900.7
20538.1
19220.9
17946.9
16713.9
15517.8
14363.3
13209.5
12211.6
10604.7
)
;
    }
    fixedWall_Left
    {
        type            calculated;
        value           nonuniform List<scalar> 
30
(
67766.6
62670.2
59108.9
55933.4
53057.4
50301.4
47709.3
45284.2
42987.1
40792.6
38697.1
36696.9
34783
32946.9
31183.6
29488.8
27858.1
26287.2
24772.6
23311.4
21900.8
20538.3
19221.2
17947.2
16714.1
15517.7
14363.1
13209.1
12211
10604.3
)
;
    }
    fixedWall_Top
    {
        type            calculated;
        value           nonuniform List<scalar> 
30
(
10672.3
11597.3
12410.8
13013.3
13560.7
14133.6
14664.9
15121.7
15524
15882.4
16187.4
16431.2
16614.2
16737.8
16800.5
16800.6
16737.8
16614.2
16431.1
16187.3
15882.3
15524.1
15122
14665.3
14134
13561.2
13013.8
12411.2
11597.7
10672.8
)
;
    }
    frontAndBack
    {
        type            empty;
    }
}


// ************************************************************************* //
