/*--------------------------------*- C++ -*----------------------------------*\
| =========                 |                                                 |
| \\      /  F ield         | OpenFOAM: The Open Source CFD Toolbox           |
|  \\    /   O peration     | Version:  2312                                  |
|   \\  /    A nd           | Website:  www.openfoam.com                      |
|    \\/     M anipulation  |                                                 |
\*---------------------------------------------------------------------------*/
FoamFile
{
    version     2.0;
    format      ascii;
    arch        "LSB;label=32;scalar=64";
    class       volScalarField;
    location    "0.045";
    object      ILambda_9_0;
}
// * * * * * * * * * * * * * * * * * * * * * * * * * * * * * * * * * * * * * //

dimensions      [1 0 -3 0 0 0 0];

internalField   nonuniform List<scalar> 
900
(
7452.63
15298.6
18151.3
18669
18453.5
18186.4
18044.2
18007.4
18018.3
18037.5
18049.5
18053.3
18052.6
18050.8
18049.6
18049.1
18049.1
18049.3
18049.4
18049.5
18049.5
18049.5
18049.4
18049.4
18049.4
18049.4
18049.4
18049.4
18049.5
18049.5
162.424
5738.65
12035.8
16296.9
18249.4
18707.1
18532.1
18252.3
18070.9
18004.5
18005.3
18026.9
18044.9
18053.1
18054.1
18052.2
18050.2
18049.2
18049
18049.2
18049.4
18049.6
18049.6
18049.6
18049.5
18049.5
18049.5
18049.4
18049.4
18049.5
-703.151
349.251
4511.82
9900.47
14471.5
17298.1
18507.9
18706.4
18488.5
18224.6
18059.6
18000.3
18003
18025.4
18044.3
18053.2
18054.6
18052.6
18050.4
18049.2
18048.9
18049.2
18049.6
18049.8
18049.9
18049.9
18049.8
18049.7
18049.7
18049.6
-261.515
-837.847
195.11
3500.28
8180.01
12742.3
16111.1
17989.2
18669.7
18663.5
18412.2
18173.8
18038.1
17995.7
18004.6
18027.7
18045.7
18053.7
18054.5
18052.3
18049.9
18048.6
18048.4
18048.7
18049.2
18049.6
18049.8
18049.8
18049.8
18049.7
-0.866445
-468.487
-866.71
-38.461
2633.71
6718.15
11124.2
14808
17232.6
18418.1
18724.1
18582.9
18324
18120.2
18017.4
17993.7
18008.9
18032
18048.1
18054.5
18054.3
18051.5
18048.9
18047.4
18047.1
18047.4
18048
18048.5
18048.8
18049
35.6962
-76.3646
-535.648
-890.73
-275.131
1891.97
5451.44
9618.82
13454.1
16301.3
17967.7
18643.3
18696
18481
18237.4
18073.2
18002.5
17995.5
18015.7
18038.1
18052
18056.5
18055.3
18051.9
18048.9
18047.2
18046.6
18046.8
18047.3
18048
12.4062
44.4287
-116.961
-554.621
-907.001
-484.736
1261.15
4346.41
8226.2
12091.4
15245.6
17342.8
18411
18721.7
18615.8
18373.6
18160.7
18036.6
17994.2
18000.7
18024.4
18045.7
18057.7
18061
18059
18055.3
18051.9
18049.9
18049
18048.9
-1.4148
31.7345
43.0753
-133.344
-547.293
-910.67
-657.318
729.584
3382.35
6946.22
10749.5
14106.7
16570.7
18028.2
18640.2
18702.4
18509.3
18271.8
18096.7
18009.2
17989.8
18006.2
18031.9
18052.4
18063.2
18065.8
18063.8
18060.1
18056.8
18053.8
-2.67041
5.41245
43.0125
42.5814
-133.294
-523.519
-900.208
-791.03
287.118
2544.58
5778.15
9450.09
12918.5
15678.9
17503
18439.9
18719.3
18624.6
18395.1
18180.6
18043.5
17986.3
17983.6
18006.1
18032.5
18052.1
18062.4
18065.2
18063.9
18059.4
-0.762916
-3.48677
11.9823
50.317
44.5699
-122.62
-488.853
-876.01
-887.489
-75.4571
1821.35
4720.36
8208.96
11709.2
14694.1
16848.2
18116.7
18650.9
18702.3
18519.8
18286.8
18103
17999.1
17964.1
17971.7
17996.7
18022.3
18040.8
18050.8
18054.6
0.197809
-2.44045
-2.75653
17.1693
55.2385
48.6844
-105.329
-446.904
-839.447
-949.895
-366.754
1202.41
3770.34
7037.93
10502.5
13641.6
16079.8
17671.8
18486.6
18727.8
18636
18415.2
18197.8
18045.2
17967.1
17946.4
17958.5
17982.9
18005.5
18027.7
0.223181
-0.34645
-3.5679
-1.677
20.8689
58.5749
54.1156
-84.1954
-400.207
-792.372
-982.269
-595.036
678.388
2924.94
5945.91
9318.33
12544.7
15214.7
17109.1
18217.8
18686.4
18731.1
18561.9
18335.8
18143.4
18018.5
17959
17946.3
17957.2
17987.3
0.0515108
0.331518
-1.05271
-4.31947
-0.68271
23.2401
60.6397
60.0699
-61.0696
-350.622
-736.952
-989.156
-768.279
240.631
2180.77
4939.74
8173.8
11424.7
14269
16432.7
17834.4
18557.7
18782.1
18709.5
18510.6
18299.8
18135.5
18034.2
17986.9
17979.2
-0.0231085
0.211298
0.240904
-1.7413
-4.79329
0.0539723
24.3977
61.5175
66.022
-37.0864
-299.668
-675.705
-975.423
-894.037
-118.683
1534.49
4024.84
7083.42
10300.4
13257.5
15645.3
17323.1
18313.7
18752.3
18820.6
18690.9
18494
18309.1
18176.3
18072.6
-0.0205603
0.0277183
0.320941
0.0397876
-2.31194
-5.05176
0.409082
24.3711
61.317
71.8241
-12.9433
-248.854
-611.485
-945.972
-979.172
-406.404
983.045
3205.61
6059.94
9189.18
12195
14750.5
16670.2
17922.3
18594.6
18839.5
18820.5
18673.6
18506
18298.9
-0.00521708
-0.0271615
0.102281
0.357842
-0.190152
-2.68236
-5.18609
0.215252
23.2179
60.3601
77.6257
10.7564
-199.887
-547.305
-905.352
-1029.62
-628.434
523.533
2485.57
5114.83
8108.32
11098.3
13756.6
15868
17355.4
18261.2
18703.6
18825.8
18778.8
18576.8
0.000597685
-0.0162565
-0.00711565
0.154272
0.3329
-0.339923
-2.8228
-5.38198
-0.687666
21.1839
59.2068
83.6313
33.2229
-154.663
-486.003
-857.411
-1050.34
-790.061
152.733
1866.87
4258.03
7074.94
9987.36
12678.9
14919.3
16597.7
17716.1
18355.9
18646.4
18681.3
0.000390878
-0.00333691
-0.0125796
0.0108034
0.156121
0.314092
-0.31206
-2.82144
-5.89212
-2.31328
18.7739
58.4975
89.8283
53.3867
-115.038
-429.875
-805.113
-1045.54
-896.509
-133.672
1349.52
3497.11
6105.29
8884.69
11540.6
13840.8
15651.8
16945.6
17752.5
18303.8
-0.000200161
-0.00156116
0.00161778
-0.00452249
-0.0080473
0.129932
0.402892
-0.0952019
-2.8897
-6.91392
-4.42152
16.661
58.7062
95.8339
70.0235
-82.5049
-380.397
-750.527
-1018.96
-953.471
-341.748
930.515
2836.16
5213.21
7813.62
10371.1
12660.4
14547.1
15912.8
17182.4
0.000128542
-0.00324503
0.00281564
0.0157961
-0.0206643
-0.0715969
0.150264
0.667735
0.193791
-3.27637
-8.45691
-6.53587
15.4806
59.9452
100.93
82.0203
-57.8954
-338.11
-694.959
-974.154
-967.411
-479.574
603.519
2275.04
4408.53
6796.01
9199.84
11431
13225
15232.8
0.000606585
-0.00306077
-0.00323982
0.0192287
0.0205473
-0.0837178
-0.139549
0.301767
1.08177
0.345935
-4.13866
-10.2928
-8.08525
15.619
61.9164
104.255
88.6528
-41.2313
-302.695
-639.157
-914.675
-945.543
-557.014
359.152
1809.26
3696.89
5845.53
8081.38
10045
12603.8
0.000684644
-0.00124398
-0.00671261
0.00738873
0.0393509
-0.00985459
-0.183559
-0.138956
0.618782
1.51488
0.157537
-5.45112
-12.0201
-8.59461
17.0983
64.0134
105.043
89.7651
-31.757
-273.18
-583.539
-844.108
-895.553
-585.076
185.654
1431.56
3073.29
5006.68
6849.99
9629.93
0.000436705
0.000403126
-0.00560888
-0.00414146
0.0285122
0.0426134
-0.085366
-0.273193
-0.00845067
1.05145
1.78784
-0.471017
-7.00243
-13.2035
-7.83302
19.592
65.5134
102.837
85.801
-28.1259
-248.237
-528.398
-766.017
-825.142
-575.265
71.1888
1125.23
2571.26
4069.53
6712.08
0.00013961
0.00104815
-0.00258721
-0.00824555
0.00896896
0.0483035
0.0109031
-0.186456
-0.292798
0.261065
1.48104
1.75335
-1.48905
-8.4726
-13.5178
-5.86518
22.5452
65.7785
97.5828
77.6991
-28.671
-226.469
-474.052
-683.797
-741.774
-537.435
-3.63715
917.503
1964.98
4189.95
-4.27376e-05
0.000905221
-0.000164506
-0.00658233
-0.00399363
0.0287929
0.049919
-0.0562443
-0.271254
-0.204016
0.616146
1.77171
1.35763
-2.71751
-9.54442
-12.8357
-3.00538
25.34
64.4011
89.6227
66.7036
-31.684
-206.644
-420.892
-600.751
-650.923
-487.774
-13.6791
595.911
2260.05
-9.76e-05
0.000491465
0.000880975
-0.00319917
-0.00771299
0.00824659
0.0443392
0.0233514
-0.13835
-0.297728
-0.0113305
0.963956
1.82635
0.655692
-3.91735
-9.99775
-11.2413
0.290359
27.4437
61.2654
79.601
54.1497
-35.6479
-187.819
-369.599
-518.653
-563.823
-402.146
-137.613
960.08
-8.04299e-05
0.000148957
0.000925662
-0.000639532
-0.00601653
-0.00311779
0.0235913
0.044442
-0.0271419
-0.20431
-0.245195
0.240346
1.21159
1.61925
-0.216709
-4.86723
-9.75724
-8.98159
3.54409
28.5049
56.5333
68.3341
41.2864
-39.3424
-169.558
-319.956
-444.637
-458.69
-416.992
206.108
-4.42678e-05
-2.6269e-05
0.000582815
0.000519822
-0.00302132
-0.00599159
0.00642838
0.0339349
0.0249322
-0.0848586
-0.227834
-0.122437
0.486193
1.29784
1.19341
-1.09487
-5.41498
-8.87425
-6.3679
6.36403
28.365
50.5042
56.5502
29.0379
-42.1261
-150.861
-276.052
-360.262
-430.016
-146.479
-1.64437e-05
-7.34274e-05
0.00025177
0.000711371
-0.000857638
-0.00468073
-0.00199675
0.0170697
0.0334348
-0.00950366
-0.132027
-0.201994
0.040746
0.681048
1.23133
0.64678
-1.87365
-5.6141
-7.6442
-3.77943
8.66657
27.6031
44.4673
45.8365
18.3456
-43.9311
-137.155
-229.205
-332.999
-253.89
1.42583e-06
-5.82048e-05
9.00064e-06
0.000453045
0.000389403
-0.00191881
-0.00432045
0.00205149
0.0201144
0.0246824
-0.028115
-0.130533
-0.151603
0.100449
0.627923
0.990341
0.400498
-1.64306
-4.48323
-5.9182
-2.96601
6.2171
20.141
32.891
35.1153
17.7109
-25.6597
-86.0854
-169.739
-209.668
)
;

boundaryField
{
    fixedWall_Bottom
    {
        type            greyDiffusiveRadiation;
        refValue        uniform 18049.5;
        refGradient     uniform 0;
        valueFraction   uniform 1;
        source          uniform 0;
        value           uniform 18049.5;
    }
    fixedWall_Right
    {
        type            greyDiffusiveRadiation;
        refValue        uniform 0;
        refGradient     uniform 0;
        valueFraction   uniform 0;
        source          uniform 0;
        value           nonuniform List<scalar> 
30
(
18049.5
18049.5
18049.6
18049.7
18049
18048
18048.9
18053.8
18059.4
18054.6
18027.7
17987.3
17979.2
18072.6
18298.9
18576.8
18681.3
18303.8
17182.4
15232.8
12603.8
9629.93
6712.08
4189.95
2260.05
960.08
206.108
-146.479
-253.89
-209.668
)
;
    }
    fixedWall_Left
    {
        type            greyDiffusiveRadiation;
        refValue        uniform 0;
        refGradient     uniform 0;
        valueFraction   uniform 1;
        source          uniform 0;
        value           uniform 0;
    }
    fixedWall_Top
    {
        type            greyDiffusiveRadiation;
        refValue        uniform 0;
        refGradient     uniform 0;
        valueFraction   uniform 0;
        source          uniform 0;
        value           nonuniform List<scalar> 
30
(
1.42583e-06
-5.82048e-05
9.00064e-06
0.000453045
0.000389403
-0.00191881
-0.00432045
0.00205149
0.0201144
0.0246824
-0.028115
-0.130533
-0.151603
0.100449
0.627923
0.990341
0.400498
-1.64306
-4.48323
-5.9182
-2.96601
6.2171
20.141
32.891
35.1153
17.7109
-25.6597
-86.0854
-169.739
-209.668
)
;
    }
    frontAndBack
    {
        type            empty;
    }
}


// ************************************************************************* //
