/*--------------------------------*- C++ -*----------------------------------*\
| =========                 |                                                 |
| \\      /  F ield         | OpenFOAM: The Open Source CFD Toolbox           |
|  \\    /   O peration     | Version:  2312                                  |
|   \\  /    A nd           | Website:  www.openfoam.com                      |
|    \\/     M anipulation  |                                                 |
\*---------------------------------------------------------------------------*/
FoamFile
{
    version     2.0;
    format      ascii;
    arch        "LSB;label=32;scalar=64";
    class       volScalarField;
    location    "0.045";
    object      ILambda_58_0;
}
// * * * * * * * * * * * * * * * * * * * * * * * * * * * * * * * * * * * * * //

dimensions      [1 0 -3 0 0 0 0];

internalField   nonuniform List<scalar> 
900
(
18049.5
18049.5
18049.5
18049.5
18049.5
18049.5
18049.5
18049.5
18049.5
18049.5
18049.5
18049.5
18049.5
18049.5
18049.5
18049.5
18049.5
18049.5
18049.4
18049.3
18049.4
18050.3
18051.8
18048
18029.1
18022.6
18181.3
18655.8
18342.1
11655.3
18049.5
18049.5
18049.5
18049.5
18049.5
18049.5
18049.5
18049.5
18049.5
18049.5
18049.5
18049.5
18049.5
18049.5
18049.5
18049.5
18049.5
18049.4
18049.2
18049.7
18051.4
18051.9
18040.9
18013.3
18029.5
18275.7
18811.2
18557.6
14338.7
4096.87
18049.5
18049.5
18049.5
18049.5
18049.5
18049.5
18049.5
18049.5
18049.5
18049.5
18049.5
18049.5
18049.5
18049.5
18049.5
18049.4
18049.3
18049.2
18049.9
18052
18051.8
18037.5
18006.4
18023.8
18266.3
18793.1
18797
16035.1
8764.83
670.166
18049.4
18049.4
18049.4
18049.4
18049.4
18049.4
18049.4
18049.4
18049.4
18049.4
18049.4
18049.4
18049.4
18049.4
18049.4
18049.2
18049.2
18050.1
18052.5
18052
18036.7
18003.3
18011.4
18223
18725.6
18957.3
17222.1
11792.6
4095.69
-443.318
18049.4
18049.4
18049.4
18049.4
18049.4
18049.4
18049.4
18049.4
18049.5
18049.4
18049.4
18049.4
18049.4
18049.3
18049.2
18049.2
18050.3
18052.8
18052.6
18037.9
18003.2
17998.1
18168.1
18629.4
19021.8
18050.8
14063.5
7253.08
1171.27
-542.374
18049.6
18049.6
18049.6
18049.6
18049.6
18049.6
18049.6
18049.6
18049.6
18049.5
18049.5
18049.5
18049.5
18049.4
18049.5
18050.5
18053.1
18053.4
18040.2
18005.5
17987.4
18113.1
18518.6
19002.6
18593.5
15781.3
10050.5
3532.61
-204.109
-336.235
18049.7
18049.7
18049.7
18049.7
18049.7
18049.7
18049.7
18049.6
18049.6
18049.6
18049.7
18049.7
18049.6
18049.6
18050.5
18053
18054
18042.9
18009.7
17980.9
18064.3
18405
18922.1
18911
17050.3
12434.4
6122.03
1088.66
-586.557
-129.849
18049.5
18049.5
18049.5
18049.5
18049.5
18049.4
18049.4
18049.4
18049.4
18049.6
18049.6
18049.6
18049.4
18050
18052.3
18054
18045.5
18015.2
17979
18025
18297.5
18803.1
19057
17949.6
14396.5
8668.88
2975.88
-163.01
-496.934
-8.54264
18049
18049
18049
18049
18049
18049
18049
18049.1
18049.2
18049.3
18049.1
18048.8
18049
18051
18053.4
18047.8
18021.6
17981.5
17996.4
18202.3
18665
19078.1
18547.8
15954.2
11018.9
5183.31
894.444
-574.959
-277.341
36.0719
18048.8
18048.8
18048.8
18048.8
18048.8
18048.8
18048.9
18049.1
18049.1
18048.8
18048.2
18048.1
18049.9
18053.1
18050.5
18029.1
17988.3
17978.9
18123
18523.5
19013.8
18906.7
17141
13085.1
7497.27
2460.51
-197.884
-533.862
-93.0594
37.047
18049.4
18049.4
18049.4
18049.4
18049.5
18049.6
18049.8
18049.7
18049.3
18048.4
18048
18049.8
18053.7
18054.2
18037.9
17998.6
17971.3
18061
18389.4
18896.3
19081.4
18000.8
14826.3
9756.98
4374.52
675.029
-573.09
-332.708
9.9548
22.5113
18050.7
18050.7
18050.8
18050.8
18051
18051.1
18051
18050.4
18049.3
18048.8
18050.6
18055.4
18058.5
18047.2
18011
17971.4
18015.1
18269.3
18750.4
19120.2
18582.6
16233.3
11848.6
6475.01
1996.2
-259.762
-541.748
-138.121
44.6547
8.19689
18051.8
18051.8
18051.9
18052
18052.1
18051.9
18051.2
18050.1
18049.6
18051.6
18057
18062.2
18055.2
18022.8
17975.7
17982.4
18166.1
18594.6
19063.9
18936.5
17320
13698.6
8617.96
3668.07
462.505
-576.251
-353.198
-13.3313
40.8454
-0.412787
18051.2
18051.3
18051.4
18051.4
18051.1
18050.4
18049.4
18049
18051.2
18057.1
18063.7
18060.1
18031.7
17980.8
17959.5
18080.3
18442.1
18946.9
19111.3
18115.2
15267.3
10685.5
5571.15
1584.16
-326.34
-536.61
-160.071
40.4178
23.8588
-3.53519
18048.2
18048.3
18048.2
18047.9
18047.3
18046.4
18046.3
18048.6
18054.7
18062
18060.8
18036.2
17984.5
17943.6
18011.7
18302.4
18797.2
19152.9
18657.8
16542.2
12589.1
7583.39
3047.87
269.22
-579.182
-355.16
-27.8585
47.1016
8.1789
-3.36458
18043.6
18043.5
18043.2
18042.6
18041.9
18042
18044.5
18050.4
18057.8
18058
18036.8
17986.7
17933.6
17960.2
18182.7
18637.9
19102.8
18991.7
17532.2
14269.3
9593.36
4766.94
1222.35
-387.74
-523.931
-167.454
35.527
32.6685
-1.10764
-1.99196
18039.6
18039.3
18038.8
18038.3
18038.6
18041.1
18046.6
18053.5
18054.4
18036.2
17989.3
17930.4
17926.5
18088.3
18487.2
18997.7
19162.7
18261.6
15693.5
11508
6641.46
2503.15
99.5434
-579.135
-346.489
-34.9902
49.2342
14.9371
-4.39065
-0.677896
18039.8
18039.4
18039.1
18039.5
18041.8
18046.7
18052.9
18053.9
18038.3
17995.8
17936
17911.8
18022.8
18358.6
18868.1
19214.3
18764.2
16851.3
13255.9
8571.03
4051.24
907.92
-440.109
-506.455
-165.66
32.1481
37.7179
2.2559
-4.04878
0.10985
18047.4
18047.2
18047.8
18049.9
18054.1
18059.3
18060.1
18046.7
18009.2
17952.2
17916.3
17987.2
18260.3
18737.1
19185.9
19079.2
17749.4
14787.7
10463
5787.16
2027.97
-45.6209
-575.816
-331.797
-36.5351
49.8671
19.654
-3.78395
-2.37054
0.386181
18064
18064.6
18066.4
18069.9
18074.1
18074.6
18063.2
18030.8
17979
17938.1
17979.3
18194.8
18620.1
19109.6
19245.6
18407.4
16073.6
12237.2
7621.6
3420.71
639.645
-482.839
-487.096
-158.405
30.9923
40.6661
5.07794
-4.89828
-0.770278
0.349426
18087.7
18089.5
18092.2
18095.4
18095.6
18085.9
18058.6
18013.3
17972.2
17992.7
18158.3
18523.3
19008.4
19299.1
18852.1
17101.6
13828.6
9462.37
5022.94
1622.32
-165.571
-570.83
-315.362
-34.2535
50.7274
22.8844
-2.97712
-3.54848
0.204487
0.196731
18112.1
18114.7
18117
18116.8
18108.7
18086.2
18047.9
18009.7
18016.7
18141.1
18444.6
18895.2
19268.8
19113.6
17874
15188.8
11220.4
6752.48
2878.85
419.822
-515.718
-469.541
-149.632
32.0388
43.211
7.2263
-5.44968
-1.63413
0.555658
0.0519417
18126.1
18128.2
18127.7
18121
18102.8
18071.3
18037.8
18036.8
18128.5
18374.1
18773.1
19174.8
19221.1
18404.3
16287.5
12816.1
8514.68
4355.3
1290.77
-257.349
-565.489
-301.859
-30.8945
52.8092
25.879
-2.3473
-4.6375
-0.154958
0.508767
-0.0361083
18114.2
18113.7
18108.2
18093.7
18068.5
18040.3
18035.3
18101.9
18296.2
18636.2
19027.7
19199.3
18712.8
17111.6
14185.1
10211.3
5970.62
2431
253.578
-536.293
-456.501
-143.925
33.8018
46.7009
9.50473
-6.073
-2.63988
0.613245
0.301145
-0.0670077
18059
18054
18042.7
18023
18000.1
17993.6
18041.4
18192.2
18473
18830.5
19067.3
18823.6
17663.9
15283.2
11751.1
7625.13
3787.75
1037.78
-315.686
-558.282
-294.774
-30.3469
55.5633
29.9634
-1.38474
-5.93408
-0.768522
0.794386
0.0915756
-0.0606421
17939.5
17929.2
17914.2
17896.2
17889.6
17923.6
18038.6
18264.4
18575.5
18834.2
18757.3
17956.6
16086.1
13058.9
9213.06
5276.29
2077.58
145.334
-539.341
-447.359
-144.961
33.2239
51.1454
13.094
-6.41803
-4.04089
0.437359
0.640044
-0.0491913
-0.0385427
17752
17738.2
17724.9
17719.2
17743.8
17830.8
18009
18270.2
18522.3
18550.1
18025.3
16601.8
14091.2
10642
6794.28
3315.52
862.119
-336.007
-544.481
-294.257
-36.0973
56.6968
35.4604
0.947161
-7.19177
-1.89223
0.949839
0.372874
-0.11209
-0.0156456
17430.4
17417.5
17412.9
17429.4
17492.4
17627.1
17835.3
18058.9
18141.1
17817.9
16771.9
14762.3
11790.7
8206.47
4649.47
1806.15
95.1155
-517.324
-436.377
-153.07
26.9062
54.6086
18.4458
-5.53004
-5.66465
-0.249504
0.966885
0.129307
-0.117088
0.000939262
17182.5
17176.2
17188.5
17237.4
17346.1
17523.9
17736.4
17871.4
17718.2
16993.4
15431.4
12926.7
9662.87
6132.69
2990.34
778.247
-318.958
-527.65
-303.748
-51.352
54.075
42.1067
5.57285
-7.71851
-3.58971
0.684438
0.76185
-0.0302364
-0.0948309
0.00971444
16221
16237.4
16278.2
16358.4
16478.1
16604.8
16648.7
16447.4
15781.4
14436.2
12305.3
9495.22
6363.47
3435.29
1207.27
-67.294
-477.871
-368.865
-123.329
27.9876
51.3
18.93
-4.54981
-6.18563
-0.892214
1.03833
0.34284
-0.126637
-0.0461599
0.0124513
)
;

boundaryField
{
    fixedWall_Bottom
    {
        type            greyDiffusiveRadiation;
        refValue        uniform 18049.5;
        refGradient     uniform 0;
        valueFraction   uniform 1;
        source          uniform 0;
        value           uniform 18049.5;
    }
    fixedWall_Right
    {
        type            greyDiffusiveRadiation;
        refValue        uniform 0;
        refGradient     uniform 0;
        valueFraction   uniform 1;
        source          uniform 0;
        value           uniform 0;
    }
    fixedWall_Left
    {
        type            greyDiffusiveRadiation;
        refValue        uniform 0;
        refGradient     uniform 0;
        valueFraction   uniform 0;
        source          uniform 0;
        value           nonuniform List<scalar> 
30
(
18049.5
18049.5
18049.5
18049.4
18049.4
18049.6
18049.7
18049.5
18049
18048.8
18049.4
18050.7
18051.8
18051.2
18048.2
18043.6
18039.6
18039.8
18047.4
18064
18087.7
18112.1
18126.1
18114.2
18059
17939.5
17752
17430.4
17182.5
16221
)
;
    }
    fixedWall_Top
    {
        type            greyDiffusiveRadiation;
        refValue        uniform 0;
        refGradient     uniform 0;
        valueFraction   uniform 0;
        source          uniform 0;
        value           nonuniform List<scalar> 
30
(
16221
16237.4
16278.2
16358.4
16478.1
16604.8
16648.7
16447.4
15781.4
14436.2
12305.3
9495.22
6363.47
3435.29
1207.27
-67.294
-477.871
-368.865
-123.329
27.9876
51.3
18.93
-4.54981
-6.18563
-0.892214
1.03833
0.34284
-0.126637
-0.0461599
0.0124513
)
;
    }
    frontAndBack
    {
        type            empty;
    }
}


// ************************************************************************* //
