/*--------------------------------*- C++ -*----------------------------------*\
| =========                 |                                                 |
| \\      /  F ield         | OpenFOAM: The Open Source CFD Toolbox           |
|  \\    /   O peration     | Version:  2312                                  |
|   \\  /    A nd           | Website:  www.openfoam.com                      |
|    \\/     M anipulation  |                                                 |
\*---------------------------------------------------------------------------*/
FoamFile
{
    version     2.0;
    format      ascii;
    arch        "LSB;label=32;scalar=64";
    class       volScalarField;
    location    "0.045";
    object      ILambda_54_0;
}
// * * * * * * * * * * * * * * * * * * * * * * * * * * * * * * * * * * * * * //

dimensions      [1 0 -3 0 0 0 0];

internalField   nonuniform List<scalar> 
900
(
18049.5
18049.5
18049.4
18049.4
18049.4
18049.4
18049.4
18049.4
18049.5
18049.5
18049.5
18049.4
18049.3
18049.1
18049.1
18049.6
18050.8
18052.6
18053.3
18049.5
18037.5
18018.3
18007.4
18044.2
18186.4
18453.5
18669
18151.3
15298.6
7452.63
18049.5
18049.4
18049.4
18049.5
18049.5
18049.5
18049.6
18049.6
18049.6
18049.4
18049.2
18049
18049.2
18050.2
18052.2
18054.1
18053.1
18044.9
18026.9
18005.3
18004.5
18070.9
18252.3
18532.1
18707.1
18249.4
16296.9
12035.8
5738.65
162.424
18049.6
18049.7
18049.7
18049.8
18049.9
18049.9
18049.8
18049.6
18049.2
18048.9
18049.2
18050.4
18052.6
18054.6
18053.2
18044.3
18025.4
18003
18000.3
18059.6
18224.6
18488.5
18706.4
18507.9
17298.1
14471.5
9900.47
4511.82
349.251
-703.151
18049.7
18049.8
18049.8
18049.8
18049.6
18049.2
18048.7
18048.4
18048.6
18049.9
18052.3
18054.5
18053.7
18045.7
18027.7
18004.6
17995.7
18038.1
18173.8
18412.2
18663.5
18669.7
17989.2
16111.1
12742.3
8180.01
3500.28
195.11
-837.847
-261.515
18049
18048.8
18048.5
18048
18047.4
18047.1
18047.4
18048.9
18051.5
18054.3
18054.5
18048.1
18032
18008.9
17993.7
18017.4
18120.2
18324
18582.9
18724.1
18418.1
17232.6
14808
11124.2
6718.15
2633.71
-38.461
-866.71
-468.487
-0.866445
18048
18047.3
18046.8
18046.6
18047.2
18048.9
18051.9
18055.3
18056.5
18052
18038.1
18015.7
17995.5
18002.5
18073.2
18237.4
18481
18696
18643.3
17967.7
16301.3
13454.1
9618.82
5451.44
1891.97
-275.131
-890.73
-535.648
-76.3646
35.6962
18048.9
18049
18049.9
18051.9
18055.3
18059
18061
18057.7
18045.7
18024.4
18000.7
17994.2
18036.6
18160.7
18373.6
18615.8
18721.7
18411
17342.8
15245.6
12091.4
8226.2
4346.41
1261.15
-484.736
-907.001
-554.621
-116.961
44.4287
12.4062
18053.8
18056.8
18060.1
18063.8
18065.8
18063.2
18052.4
18031.9
18006.2
17989.8
18009.2
18096.7
18271.8
18509.3
18702.4
18640.2
18028.2
16570.7
14106.7
10749.5
6946.22
3382.35
729.584
-657.318
-910.67
-547.293
-133.344
43.0753
31.7345
-1.4148
18059.4
18063.9
18065.2
18062.4
18052.1
18032.5
18006.1
17983.6
17986.3
18043.5
18180.6
18395.1
18624.6
18719.3
18439.9
17503
15678.9
12918.5
9450.09
5778.15
2544.58
287.118
-791.03
-900.208
-523.519
-133.294
42.5814
43.0125
5.41245
-2.67041
18054.6
18050.8
18040.8
18022.3
17996.7
17971.7
17964.1
17999.1
18103
18286.8
18519.8
18702.3
18650.9
18116.7
16848.2
14694.1
11709.2
8208.96
4720.36
1821.35
-75.457
-887.489
-876.01
-488.853
-122.62
44.5699
50.317
11.9823
-3.48677
-0.762915
18027.7
18005.5
17982.9
17958.5
17946.4
17967.1
18045.1
18197.8
18415.1
18636
18727.8
18486.6
17671.8
16079.8
13641.6
10502.5
7037.93
3770.34
1202.41
-366.754
-949.894
-839.447
-446.904
-105.329
48.6844
55.2385
17.1693
-2.75653
-2.44045
0.19781
17987.2
17957.1
17946.2
17958.9
18018.5
18143.3
18335.8
18561.8
18731.1
18686.4
18217.8
17109.1
15214.7
12544.7
9318.33
5945.91
2924.94
678.388
-595.036
-982.269
-792.372
-400.207
-84.1954
54.1156
58.5749
20.8689
-1.677
-3.5679
-0.346449
0.223181
17979.2
17986.9
18034.1
18135.5
18299.8
18510.6
18709.5
18782.1
18557.7
17834.4
16432.7
14269
11424.7
8173.8
4939.74
2180.77
240.631
-768.278
-989.155
-736.952
-350.622
-61.0698
60.0699
60.6397
23.2401
-0.682734
-4.31947
-1.05271
0.331518
0.0515104
18072.6
18176.4
18309.1
18494
18690.9
18820.7
18752.4
18313.7
17323.1
15645.3
13257.5
10300.4
7083.41
4024.84
1534.49
-118.685
-894.036
-975.421
-675.704
-299.669
-37.0869
66.0219
61.5176
24.3978
0.0539399
-4.79333
-1.7413
0.240913
0.211296
-0.0231089
18299.1
18506.2
18673.7
18820.6
18839.6
18594.7
17922.3
16670.3
14750.6
12195
9189.19
6059.94
3205.61
983.038
-406.408
-979.172
-945.97
-611.482
-248.854
-12.9441
71.8235
61.3171
24.3714
0.409151
-5.05184
-2.31198
0.0398045
0.320949
0.0277141
-0.0205601
18576.9
18778.9
18825.9
18703.6
18261.2
17355.4
15868
13756.6
11098.3
8108.33
5114.83
2485.56
523.525
-628.441
-1029.62
-905.35
-547.301
-199.885
10.7561
77.6246
60.3596
23.2181
0.215544
-5.18609
-2.68246
-0.190171
0.357869
0.102285
-0.0271672
-0.00521618
18681.3
18646.4
18355.9
17716.1
16597.6
14919.3
12678.9
9987.36
7074.94
4258.03
1866.87
152.728
-790.068
-1050.35
-857.412
-486
-154.659
33.2239
83.6303
59.2056
21.1838
-0.687257
-5.38175
-2.82288
-0.340025
0.332908
0.154302
-0.00711829
-0.016262
0.000599162
18303.7
17752.4
16945.5
15651.7
13840.7
11540.5
8884.66
6105.28
3497.11
1349.53
-133.671
-896.512
-1045.55
-805.117
-429.875
-115.035
53.3891
89.8284
58.4963
18.773
-2.31316
-5.89168
-2.82132
-0.312193
0.314016
0.156152
0.0108282
-0.012588
-0.00334063
0.00039249
17182.2
15912.7
14546.9
12660.2
10371.1
7813.57
5213.19
2836.16
930.522
-341.74
-953.468
-1018.96
-750.532
-380.399
-82.5039
70.0263
95.8355
58.7057
16.6598
-4.42204
-6.91359
-2.88932
-0.0951968
0.402747
0.129896
-0.00800551
-0.00450815
0.00160651
-0.00156231
-0.00019886
15232.7
13224.9
11430.9
9199.76
6795.95
4408.5
2275.04
603.528
-479.56
-967.401
-974.151
-694.962
-338.114
-57.8971
82.0217
100.933
59.9461
15.4798
-6.53686
-8.45709
-3.27598
0.194043
0.667657
0.150142
-0.0715964
-0.0206238
0.0157995
0.00280489
-0.00324398
0.000129296
12603.8
10044.9
8081.33
5845.49
3696.87
1809.26
359.165
-556.997
-945.529
-914.667
-639.157
-302.698
-41.2349
88.6519
104.256
61.9182
15.6193
-8.08607
-10.2935
-4.1386
0.346301
1.08189
0.301654
-0.139629
-0.0836941
0.0205779
0.0192241
-0.00324782
-0.00305853
0.00060681
9629.92
6849.93
5006.66
3073.3
1431.58
185.676
-585.057
-895.54
-844.101
-583.537
-273.182
-31.7605
89.7626
105.043
64.0148
17.0995
-8.59466
-12.0208
-5.45152
0.157719
1.51516
0.618806
-0.139067
-0.183598
-0.00982242
0.0393689
0.00738048
-0.00671715
-0.00124159
0.000684516
6712.01
4069.49
2571.29
1125.27
71.2294
-575.239
-825.13
-766.014
-528.399
-248.239
-28.128
85.7987
102.836
65.5137
19.5931
-7.83232
-13.2037
-7.00298
-0.471189
1.78805
1.05162
-0.00848368
-0.273279
-0.0853747
0.0426431
0.0285195
-0.00414986
-0.00561049
0.00040501
0.000436431
4189.83
1965
917.578
-3.56259
-537.388
-741.758
-683.801
-474.06
-226.474
-28.6727
77.6987
97.5822
65.7781
22.5456
-5.86441
-13.5174
-8.47289
-1.48943
1.75332
1.48122
0.261155
-0.292852
-0.186511
0.0109116
0.0483254
0.00896914
-0.0082521
-0.00258695
0.00104931
0.000139339
2259.97
596.035
-13.5564
-487.684
-650.889
-600.755
-420.91
-206.659
-31.689
66.7046
89.6244
64.4014
25.3396
-3.00528
-12.8353
-9.54427
-2.71775
1.35741
1.77174
0.616282
-0.203984
-0.271307
-0.0562727
0.0499336
0.0288061
-0.00399682
-0.00658647
-0.000163432
0.000905757
-4.29348e-05
960.122
-137.388
-402
-563.746
-518.647
-369.625
-187.847
-35.6617
54.1491
79.6053
61.2682
27.4439
0.289717
-11.2414
-9.99749
-3.91726
0.655526
1.82623
0.964011
-0.0112442
-0.297728
-0.13839
0.0233409
0.0443533
0.00825293
-0.00771695
-0.00320126
0.000882147
0.000491598
-9.77137e-05
206.304
-416.717
-458.561
-444.597
-319.983
-169.599
-39.3703
41.2792
68.3389
56.5396
28.5074
3.54357
-8.9826
-9.75746
-4.86699
-0.216618
1.61914
1.21152
0.240396
-0.245146
-0.204323
-0.0271682
0.0444413
0.0236019
-0.00311586
-0.00601985
-0.000640248
0.000926579
0.000148894
-8.04804e-05
-146.171
-429.765
-360.186
-276.061
-150.914
-42.1705
29.0182
56.5515
50.5129
28.3711
6.36518
-6.36926
-8.87534
-5.41507
-1.09459
1.1935
1.29776
0.486155
-0.1224
-0.227809
-0.0848729
0.0249174
0.0339384
0.00643506
-0.0059919
-0.00302359
0.000519832
0.000583393
-2.63876e-05
-4.42815e-05
-253.55
-332.825
-229.196
-137.205
-43.9945
18.3093
45.8289
44.4759
27.613
8.67094
-3.77998
-7.64606
-5.61499
-1.87352
0.647099
1.2314
0.680974
0.0407189
-0.201968
-0.132015
-0.0095154
0.0334276
0.017074
-0.00199314
-0.00468184
-0.000858945
0.000711653
0.000252071
-7.35328e-05
-1.64411e-05
-209.412
-169.707
-86.1453
-25.7321
17.6601
35.0995
32.897
20.1528
6.22435
-2.9649
-5.92
-4.48478
-1.64337
0.400814
0.990569
0.627915
0.100385
-0.15161
-0.130513
-0.0281123
0.0246741
0.0201126
0.00205487
-0.00431929
-0.00191992
0.000388928
0.000453355
9.08356e-06
-5.82694e-05
1.43374e-06
)
;

boundaryField
{
    fixedWall_Bottom
    {
        type            greyDiffusiveRadiation;
        refValue        uniform 18049.5;
        refGradient     uniform 0;
        valueFraction   uniform 1;
        source          uniform 0;
        value           uniform 18049.5;
    }
    fixedWall_Right
    {
        type            greyDiffusiveRadiation;
        refValue        uniform 0;
        refGradient     uniform 0;
        valueFraction   uniform 1;
        source          uniform 0;
        value           uniform 0;
    }
    fixedWall_Left
    {
        type            greyDiffusiveRadiation;
        refValue        uniform 0;
        refGradient     uniform 0;
        valueFraction   uniform 0;
        source          uniform 0;
        value           nonuniform List<scalar> 
30
(
18049.5
18049.5
18049.6
18049.7
18049
18048
18048.9
18053.8
18059.4
18054.6
18027.7
17987.2
17979.2
18072.6
18299.1
18576.9
18681.3
18303.7
17182.2
15232.7
12603.8
9629.92
6712.01
4189.83
2259.97
960.122
206.304
-146.171
-253.55
-209.412
)
;
    }
    fixedWall_Top
    {
        type            greyDiffusiveRadiation;
        refValue        uniform 0;
        refGradient     uniform 0;
        valueFraction   uniform 0;
        source          uniform 0;
        value           nonuniform List<scalar> 
30
(
-209.412
-169.707
-86.1453
-25.7321
17.6601
35.0995
32.897
20.1528
6.22435
-2.9649
-5.92
-4.48478
-1.64337
0.400814
0.990569
0.627915
0.100385
-0.15161
-0.130513
-0.0281123
0.0246741
0.0201126
0.00205487
-0.00431929
-0.00191992
0.000388928
0.000453355
9.08356e-06
-5.82694e-05
1.43374e-06
)
;
    }
    frontAndBack
    {
        type            empty;
    }
}


// ************************************************************************* //
