/*--------------------------------*- C++ -*----------------------------------*\
| =========                 |                                                 |
| \\      /  F ield         | OpenFOAM: The Open Source CFD Toolbox           |
|  \\    /   O peration     | Version:  2312                                  |
|   \\  /    A nd           | Website:  www.openfoam.com                      |
|    \\/     M anipulation  |                                                 |
\*---------------------------------------------------------------------------*/
FoamFile
{
    version     2.0;
    format      ascii;
    arch        "LSB;label=32;scalar=64";
    class       volScalarField;
    location    "0.045";
    object      ILambda_61_0;
}
// * * * * * * * * * * * * * * * * * * * * * * * * * * * * * * * * * * * * * //

dimensions      [1 0 -3 0 0 0 0];

internalField   nonuniform List<scalar> 
900
(
18049.5
18049.5
18049.5
18049.5
18049.5
18049.5
18049.5
18049.5
18049.5
18049.5
18049.5
18049.5
18049.5
18049.5
18049.5
18049.5
18049.5
18049.5
18049.5
18049.5
18049.5
18049.5
18049.4
18049.7
18049.9
18044.3
18040.5
18212.7
18722.8
14965.8
18049.5
18049.5
18049.5
18049.5
18049.5
18049.5
18049.5
18049.5
18049.5
18049.5
18049.5
18049.5
18049.5
18049.5
18049.5
18049.5
18049.5
18049.5
18049.5
18049.5
18049.5
18049.5
18049.8
18050
18042.9
18027.2
18138
18728.6
18543.5
10034.2
18049.5
18049.5
18049.5
18049.5
18049.5
18049.5
18049.5
18049.5
18049.5
18049.5
18049.5
18049.5
18049.5
18049.5
18049.5
18049.5
18049.5
18049.5
18049.5
18049.5
18049.4
18049.7
18050.4
18046.4
18026
18044.3
18396.2
19085.7
17062.2
6381.52
18049.5
18049.5
18049.5
18049.5
18049.5
18049.5
18049.5
18049.5
18049.5
18049.5
18049.5
18049.5
18049.5
18049.5
18049.5
18049.5
18049.5
18049.5
18049.5
18049.4
18049.6
18050.4
18049.6
18035.1
18011.9
18142.9
18746.7
18993.8
14796.7
3794.11
18049.5
18049.5
18049.5
18049.5
18049.5
18049.5
18049.5
18049.5
18049.5
18049.5
18049.5
18049.5
18049.5
18049.5
18049.5
18049.5
18049.5
18049.5
18049.4
18049.5
18050.1
18051
18044.5
18017
18025.9
18341.7
19053
18331
12202.6
2032.85
18049.4
18049.4
18049.4
18049.4
18049.4
18049.4
18049.4
18049.4
18049.4
18049.4
18049.4
18049.4
18049.4
18049.4
18049.4
18049.4
18049.4
18049.4
18049.4
18049.7
18050.9
18049.9
18032.6
18001
18095.9
18617.5
19168.2
17116.6
9607.55
887.871
18049.4
18049.4
18049.4
18049.4
18049.4
18049.4
18049.4
18049.4
18049.4
18049.4
18049.4
18049.4
18049.4
18049.4
18049.4
18049.4
18049.4
18049.4
18049.4
18050.3
18051.6
18045
18014.8
18003.3
18238.7
18909.5
18976.6
15458.1
7220.74
187.957
18049.5
18049.5
18049.5
18049.5
18049.5
18049.5
18049.5
18049.5
18049.5
18049.5
18049.5
18049.5
18049.5
18049.5
18049.5
18049.5
18049.4
18049.4
18049.7
18051.3
18051
18034.5
17996.4
18043.1
18451.7
19134.3
18413.2
13504.3
5157.26
-201.47
18049.6
18049.6
18049.6
18049.6
18049.6
18049.6
18049.6
18049.6
18049.6
18049.6
18049.6
18049.6
18049.6
18049.6
18049.6
18049.5
18049.5
18049.5
18050.5
18052.3
18047.4
18018.1
17987.7
18136.5
18709.5
19205
17467.2
11410.4
3463.44
-383.178
18049.6
18049.6
18049.6
18049.6
18049.6
18049.6
18049.6
18049.6
18049.6
18049.6
18049.6
18049.6
18049.6
18049.6
18049.6
18049.5
18049.4
18049.8
18051.6
18052.4
18038.9
17998.4
18002.2
18290.1
18966.6
19047
16174.6
9316.19
2138.56
-433.422
18049.5
18049.5
18049.5
18049.5
18049.5
18049.5
18049.5
18049.5
18049.5
18049.5
18049.5
18049.5
18049.5
18049.5
18049.4
18049.3
18049.3
18050.3
18052.7
18050
18024.4
17981.8
18054.3
18497.9
19164.9
18609.6
14605.5
7333.95
1152.26
-407.002
18049.3
18049.3
18049.3
18049.3
18049.3
18049.3
18049.3
18049.3
18049.3
18049.3
18049.3
18049.3
18049.3
18049.2
18049.2
18049.1
18049.4
18051.2
18053.1
18043.4
18005.1
17978.1
18154.9
18738.7
19242.4
17871.5
12849.2
5544.09
457.938
-341.808
18049.2
18049.2
18049.2
18049.2
18049.2
18049.2
18049.2
18049.2
18049.2
18049.2
18049.2
18049.2
18049.1
18049.1
18049
18049
18049.9
18052.4
18051.8
18031.8
17985.1
17999.3
18307.7
18978
19142
16841
11001.6
3995.65
2.40412
-262.774
18049.3
18049.3
18049.3
18049.3
18049.3
18049.3
18049.3
18049.3
18049.3
18049.3
18049.3
18049.3
18049.3
18049.3
18049.2
18049.4
18050.9
18053.4
18047.9
18015.5
17971.1
18056.6
18506.5
19171.5
18819.8
15552.6
9153.7
2710.02
-267.377
-185.206
18049.7
18049.7
18049.7
18049.7
18049.7
18049.7
18049.7
18049.7
18049.7
18049.7
18049.7
18049.7
18049.7
18049.7
18049.6
18050.1
18052.4
18053.8
18040.2
17996.4
17971.7
18157.7
18733.9
19270.6
18249.7
14060.2
7384.34
1686.28
-400.058
-117.508
18050.3
18050.3
18050.3
18050.3
18050.3
18050.3
18050.3
18050.3
18050.3
18050.3
18050.3
18050.3
18050.3
18050.1
18050.1
18051.2
18054.1
18052.5
18028.2
17978
17995.9
18304.1
18962.4
19228.5
17426.2
12430.2
5755.33
907.14
-437.537
-63.3494
18050.5
18050.5
18050.5
18050.5
18050.5
18050.5
18050.5
18050.5
18050.5
18050.5
18050.5
18050.5
18050.5
18050.3
18050.5
18052.5
18055.4
18048.2
18011.7
17965.4
18051.7
18490.1
19156.9
19006
16363.9
10733.3
4309.63
344.545
-414.003
-23.3414
18050.2
18050.2
18050.2
18050.2
18050.2
18050.2
18050.2
18050.2
18050.2
18050.2
18050.2
18050.2
18050
18049.8
18050.5
18053.5
18055.2
18039.4
17991.6
17964.7
18144.9
18702.7
19279
18575.9
15094.8
9038.09
3071.82
-35.3244
-355.935
3.72088
18049.1
18049.1
18049.1
18049.1
18049.1
18049.1
18049
18049
18049.1
18049.1
18049.1
18049
18048.7
18048.6
18050.3
18054.2
18052.5
18025.1
17970.5
17983.8
18278.2
18921.6
19290.4
17925.1
13663.7
7405.74
2049.99
-268.061
-282.742
19.9657
18047.3
18047.3
18047.3
18047.3
18047.3
18047.3
18047.3
18047.3
18047.4
18047.4
18047.4
18047.2
18046.8
18047.2
18050.2
18054.2
18046
18005
17953.2
18031
18449.6
19120.7
19156
17055.4
12123.9
5886.52
1238.7
-388.041
-207.743
27.839
18045.6
18045.6
18045.6
18045.6
18045.6
18045.6
18045.6
18045.6
18045.6
18045.7
18045.6
18045.2
18044.9
18046.3
18050.8
18053
18034.4
17980.8
17947
18114.4
18651.9
19269.3
18848
15982.8
10531.9
4517.86
622.232
-426.401
-139.287
29.719
18044.8
18044.8
18044.8
18044.8
18044.8
18044.8
18044.8
18044.8
18044.8
18044.8
18044.5
18044.1
18044.3
18047.2
18052.4
18049.8
18017.7
17956.3
17961.7
18239.7
18870.6
19333.8
18347.2
14736.2
8943.43
3323.92
177.961
-409.84
-81.8751
27.6946
18045.9
18045.9
18045.9
18045.9
18045.9
18045.9
18045.9
18045.9
18045.9
18045.8
18045.4
18045.1
18046.3
18050.7
18055.1
18043.9
17996.9
17938.6
18007.8
18408.2
19084.2
19280.7
17645.6
13353.8
7409.12
2316.11
-120.65
-360.101
-37.2021
23.4619
18049.7
18049.7
18049.7
18049.7
18049.7
18049.7
18049.7
18049.7
18049.7
18049.4
18049
18049.2
18051.6
18057.1
18058.1
18034.8
17975
17936.5
18094.2
18613.8
19263.9
19078.9
16747.1
11881.2
5972.16
1494.61
-301.421
-293.96
-5.05076
18.3
18057.1
18057.1
18057.1
18057.1
18057.1
18057.1
18057.1
18057.1
18057
18056.7
18056.4
18057.4
18061.3
18066.5
18060.8
18023
17957.6
17960.5
18226.6
18842.9
19377.1
18704.5
15668.3
10367
4666.14
850.292
-391.408
-223.585
15.9701
13.0992
18065.5
18065.5
18065.5
18065.5
18065.5
18065.5
18065.5
18065.5
18065.3
18064.9
18065
18067
18072
18074.8
18059.1
18007.5
17948.9
18016.5
18400.3
19068.5
19383.9
18138.2
14433.9
8858.48
3513.8
367.18
-415.254
-157.114
27.8394
8.41677
18080.4
18080.4
18080.4
18080.4
18080.4
18080.4
18080.4
18080.3
18080.1
18079.9
18080.6
18083.8
18088.7
18086.5
18058.3
17997.1
17962.5
18117.1
18615.2
19273.4
19266.9
17391.9
13092.2
7406.53
2529.02
24.1358
-394.797
-99.4155
32.7682
4.54551
18076.5
18076.5
18076.5
18076.5
18076.5
18076.5
18076.5
18076.4
18076.1
18076.2
18077.7
18081.6
18085
18075.3
18035.4
17975
17985.1
18239.2
18818.8
19370.3
18929.5
16401.1
11627.6
6017.88
1705.61
-200.244
-345.555
-52.5211
32.6051
1.57911
18109.1
18109.1
18109.1
18109.1
18109.1
18109.1
18109
18108.8
18108.6
18109.2
18111.7
18116.2
18116.6
18097.1
18044.4
17989.2
18054.6
18415.9
19068.4
19491.5
18617.1
15497.4
10354.4
4881.78
1087.55
-334.572
-291.631
-18.4967
30.1614
-0.462232
18033.5
18033.5
18033.5
18033.5
18033.5
18033.4
18033.3
18033.2
18033.4
18034.7
18037.5
18039.3
18030.7
17998.8
17949.9
17950.4
18139.6
18617.1
19177.4
19091.9
17337.5
13407
8090.56
3235.64
384.281
-394.396
-192.805
14.1702
22.2224
-2.1285
)
;

boundaryField
{
    fixedWall_Bottom
    {
        type            greyDiffusiveRadiation;
        refValue        uniform 18049.5;
        refGradient     uniform 0;
        valueFraction   uniform 1;
        source          uniform 0;
        value           uniform 18049.5;
    }
    fixedWall_Right
    {
        type            greyDiffusiveRadiation;
        refValue        uniform 0;
        refGradient     uniform 0;
        valueFraction   uniform 1;
        source          uniform 0;
        value           uniform 0;
    }
    fixedWall_Left
    {
        type            greyDiffusiveRadiation;
        refValue        uniform 0;
        refGradient     uniform 0;
        valueFraction   uniform 0;
        source          uniform 0;
        value           nonuniform List<scalar> 
30
(
18049.5
18049.5
18049.5
18049.5
18049.5
18049.4
18049.4
18049.5
18049.6
18049.6
18049.5
18049.3
18049.2
18049.3
18049.7
18050.3
18050.5
18050.2
18049.1
18047.3
18045.6
18044.8
18045.9
18049.7
18057.1
18065.5
18080.4
18076.5
18109.1
18033.5
)
;
    }
    fixedWall_Top
    {
        type            greyDiffusiveRadiation;
        refValue        uniform 0;
        refGradient     uniform 0;
        valueFraction   uniform 0;
        source          uniform 0;
        value           nonuniform List<scalar> 
30
(
18033.5
18033.5
18033.5
18033.5
18033.5
18033.4
18033.3
18033.2
18033.4
18034.7
18037.5
18039.3
18030.7
17998.8
17949.9
17950.4
18139.6
18617.1
19177.4
19091.9
17337.5
13407
8090.56
3235.64
384.281
-394.396
-192.805
14.1702
22.2224
-2.1285
)
;
    }
    frontAndBack
    {
        type            empty;
    }
}


// ************************************************************************* //
