/*--------------------------------*- C++ -*----------------------------------*\
| =========                 |                                                 |
| \\      /  F ield         | OpenFOAM: The Open Source CFD Toolbox           |
|  \\    /   O peration     | Version:  2312                                  |
|   \\  /    A nd           | Website:  www.openfoam.com                      |
|    \\/     M anipulation  |                                                 |
\*---------------------------------------------------------------------------*/
FoamFile
{
    version     2.0;
    format      ascii;
    arch        "LSB;label=32;scalar=64";
    class       volScalarField;
    location    "0.045";
    object      ILambda_14_0;
}
// * * * * * * * * * * * * * * * * * * * * * * * * * * * * * * * * * * * * * //

dimensions      [1 0 -3 0 0 0 0];

internalField   nonuniform List<scalar> 
900
(
1900.23
5229.13
8031.93
10350.7
12246
13777.6
15000.2
15962.9
16708.8
17275.6
17696.2
17998.6
18207.1
18341.9
18419.9
18455.4
18459.8
18442.5
18410.8
18370.5
18326.1
18280.8
18237
18196.3
18159.7
18127.7
18100.6
18078
18061.2
18041.6
-507.765
-889.769
-633.208
132.507
1266.15
2643.28
4161.11
5737.54
7308.81
8826.96
10257.4
11576.8
12770.8
13832.6
14761.1
15559.7
16234.9
16795.7
17252.3
17616
17898.1
18109.9
18262
18364.5
18426.6
18456.4
18461.8
18447.1
18426.5
18366.7
-60.5798
-329.524
-663.39
-952.923
-1112.7
-1088.56
-853.961
-404.133
249.633
1084.92
2072.28
3178.56
4369.5
5611.68
6873.9
8128.23
9350.53
10520.8
11623.2
12645.8
13580.8
14423.4
15171.9
15827.3
16392.3
16871.7
17270.6
17600
17844.7
18130.8
6.13904
-3.16081
-66.0368
-195.544
-383.276
-605.204
-828.715
-1018.57
-1141.35
-1168.45
-1077.86
-854.951
-492.527
9.61531
645.498
1403.96
2269.8
3224.9
4249.39
5322.65
6424.18
7534.39
8635.08
9709.99
10744.7
11728.3
12646.3
13515.7
14216.9
15285.3
0.828129
9.05343
20.2343
23.5049
5.59114
-44.7797
-133.964
-262.052
-422.777
-604.321
-790.648
-963.072
-1101.84
-1187.59
-1202.62
-1131.91
-963.858
-690.755
-308.903
181.457
776.451
1469.01
2249.34
3105.59
4023.8
4991.34
5983.41
7028.83
7912.8
9508.84
-0.155104
0.549385
4.38973
12.6282
24.2702
35.6784
41.0684
33.5522
6.38822
-45.8363
-126.269
-235.181
-369.682
-523.74
-688.472
-852.67
-1003.5
-1127.29
-1210.34
-1239.62
-1203.42
-1091.8
-896.97
-613.394
-238.652
229.763
779.269
1450.08
2041.18
3354.69
-0.00835966
-0.193289
-0.317194
0.411225
3.13324
8.86118
17.9422
29.6462
41.9858
51.7907
54.9969
47.0838
23.5993
-19.2805
-84.2159
-172.257
-282.547
-412.196
-556.34
-708.323
-859.984
-1001.98
-1124.19
-1215.95
-1266.96
-1265.48
-1208.64
-1061.49
-923.085
-389.824
0.00542245
-0.0128648
-0.148492
-0.444105
-0.761454
-0.696963
0.397224
3.28027
8.6138
16.7312
27.4306
39.8223
52.2547
62.3414
67.104
63.2192
47.3366
16.4144
-31.9697
-99.3617
-186.233
-291.829
-414.074
-549.443
-693.151
-838.319
-979.301
-1101.41
-1210.44
-1276.19
7.41588e-05
0.00482636
0.0028159
-0.0486846
-0.214485
-0.540254
-0.992924
-1.40801
-1.46552
-0.70389
1.42676
5.47286
11.8519
20.7093
31.7866
44.332
57.0737
68.2572
75.7319
77.0676
69.6861
51.008
18.6144
-29.5482
-94.9617
-178.326
-278.543
-398.294
-510.218
-728.001
-0.000159465
0.000126503
0.00394956
0.011436
0.0104711
-0.03018
-0.157768
-0.420213
-0.84152
-1.39223
-1.95918
-2.32178
-2.14664
-1.01134
1.53999
5.91871
12.4083
21.0906
31.789
44.0272
56.9956
69.5249
80.0701
86.7113
87.2503
79.0375
60.6429
24.8997
-9.07258
-126.195
8.97734e-06
-0.000155718
-0.000111261
0.00200502
0.00876141
0.0201744
0.029187
0.0179127
-0.0439807
-0.197351
-0.485511
-0.937635
-1.54502
-2.23692
-2.86498
-3.20247
-2.9582
-1.8
0.618081
4.62686
10.5082
18.4498
28.4849
40.4095
53.7378
67.452
80.7567
89.9669
99.6773
88.1399
6.47694e-06
7.63649e-06
-0.000125771
-0.000314116
0.000227177
0.00315761
0.0105305
0.0236766
0.0412363
0.055922
0.0505898
-0.00397303
-0.146453
-0.416311
-0.840893
-1.42237
-2.12786
-2.88338
-3.56944
-4.01577
-3.99485
-3.21831
-1.34242
2.00494
7.19049
14.4567
23.9766
35.5755
47.6642
68.153
-8.35174e-07
9.90742e-06
6.99838e-06
-8.64977e-05
-0.000301183
-0.000467188
-6.87373e-05
0.00197758
0.00760792
0.0194485
0.0394159
0.065915
0.090705
0.0972036
0.0613854
-0.0450848
-0.250987
-0.582238
-1.05893
-1.69079
-2.46844
-3.34926
-4.23896
-4.97436
-5.31264
-4.92805
-3.51997
-0.31064
3.01913
15.2894
-7.8074e-07
1.00076e-06
8.48995e-06
5.03628e-06
-4.0809e-05
-0.000157392
-0.000381502
-0.000750251
-0.00110125
-0.000623579
0.00253076
0.0110371
0.0273246
0.0519975
0.0825199
0.112694
0.132739
0.129144
0.0835834
-0.0289513
-0.241345
-0.592569
-1.12072
-1.84977
-2.77389
-3.82524
-4.92995
-5.67989
-6.6066
-4.93265
-2.13665e-07
-5.44647e-07
1.96459e-06
5.46953e-06
2.13058e-06
-1.02485e-05
-3.22116e-05
-0.000114064
-0.000405443
-0.00107551
-0.00204314
-0.00265609
-0.00158821
0.00289241
0.0124252
0.0281722
0.0507711
0.080446
0.116684
0.15682
0.193308
0.210283
0.180797
0.0668528
-0.177818
-0.593381
-1.223
-2.03358
-3.00485
-4.45214
1.70631e-09
-3.93562e-07
3.11231e-08
2.0343e-06
2.45928e-06
-1.42224e-06
-5.92262e-07
2.00994e-05
4.04272e-05
-4.26032e-05
-0.000397617
-0.00114123
-0.00218064
-0.00313869
-0.00342717
-0.00238546
0.000710791
0.00691739
0.018086
0.0371611
0.0677884
0.11283
0.171758
0.237559
0.293728
0.313964
0.264392
0.0871859
-0.131878
-1.00773
3.51417e-08
-1.23242e-07
-2.92482e-07
4.12381e-07
1.61725e-06
3.91083e-07
-3.9879e-06
-2.04824e-06
2.2542e-05
6.89973e-05
9.07869e-05
-3.46276e-06
-0.000303454
-0.00083557
-0.00154611
-0.00236094
-0.00327311
-0.00433673
-0.00544644
-0.00588734
-0.00381141
0.00405314
0.0221082
0.0547994
0.104772
0.170148
0.245902
0.303358
0.377152
0.251453
1.6703e-08
1.61929e-09
-1.54825e-07
-1.35407e-07
5.30839e-07
1.12165e-06
-5.26832e-07
-4.6048e-06
-4.68751e-06
1.0535e-05
4.52535e-05
8.26829e-05
8.56082e-05
1.80453e-05
-0.000128661
-0.000338454
-0.000623537
-0.00110811
-0.00207568
-0.00389365
-0.00676255
-0.0103199
-0.0132294
-0.0129599
-0.00589827
0.0116809
0.0439632
0.0885748
0.149771
0.228836
2.58739e-09
1.84114e-08
-2.71873e-08
-1.28371e-07
-2.20584e-08
4.82051e-07
7.32725e-07
-6.51122e-07
-3.74847e-06
-4.97703e-06
1.89425e-06
1.98887e-05
4.26022e-05
5.57373e-05
4.98851e-05
3.61525e-05
4.60288e-05
9.91187e-05
0.000140829
-2.07667e-05
-0.000729529
-0.00240004
-0.00532262
-0.0093914
-0.0138118
-0.0170258
-0.0165633
-0.00928113
0.00260703
0.0498919
-1.01433e-09
7.61387e-09
9.02516e-09
-3.61383e-08
-8.59655e-08
3.16267e-08
3.67817e-07
4.67285e-07
-4.60815e-07
-2.44356e-06
-3.63701e-06
-9.84107e-07
6.77934e-06
1.60816e-05
1.96775e-05
1.4401e-05
1.21372e-05
4.44934e-05
0.000150257
0.000341242
0.000555156
0.000617613
0.000242232
-0.000909973
-0.0031026
-0.00635719
-0.0103757
-0.0137113
-0.0177978
-0.010546
-7.17909e-10
9.32776e-10
6.95955e-09
1.20579e-09
-3.19164e-08
-5.02314e-08
4.42853e-08
2.50365e-07
2.89927e-07
-2.56252e-07
-1.3774e-06
-2.1172e-06
-9.75887e-07
2.47045e-06
5.82335e-06
4.18393e-06
-5.77169e-06
-1.87875e-05
-1.52492e-05
3.72769e-05
0.000170505
0.000390269
0.000647219
0.000816413
0.000699968
7.28483e-05
-0.00130623
-0.00331833
-0.00635652
-0.0095505
-1.77301e-10
-4.62663e-10
1.7441e-09
4.58004e-09
-2.54292e-09
-2.3213e-08
-2.68098e-08
3.78021e-08
1.56606e-07
1.72282e-07
-1.29038e-07
-7.24219e-07
-1.09647e-06
-4.39545e-07
1.48243e-06
3.26266e-06
1.63057e-06
-6.85241e-06
-2.20492e-05
-3.59056e-05
-3.03395e-05
1.95944e-05
0.000135718
0.000321339
0.000544362
0.000730782
0.000752026
0.000479646
-0.000108914
-0.00210847
3.15356e-12
-2.73797e-10
-4.99451e-11
1.63202e-09
2.45907e-09
-3.35666e-09
-1.50261e-08
-1.35445e-08
2.64004e-08
9.20649e-08
9.80661e-08
-6.53497e-08
-3.82621e-07
-5.73206e-07
-1.6748e-07
1.07164e-06
2.52275e-06
2.33922e-06
-2.07397e-06
-1.24283e-05
-2.70988e-05
-3.89293e-05
-3.48185e-05
1.65437e-06
8.39407e-05
0.000214723
0.000377379
0.000515533
0.000662003
0.000307176
1.78739e-11
-5.91866e-11
-1.88115e-10
1.60002e-10
1.1783e-09
1.12199e-09
-2.8235e-09
-9.01453e-09
-6.69459e-09
1.64122e-08
5.19596e-08
5.48032e-08
-3.34006e-08
-2.09802e-07
-3.31249e-07
-1.2576e-07
6.25767e-07
1.76227e-06
2.44539e-06
1.16991e-06
-3.68406e-06
-1.2744e-05
-2.43029e-05
-3.33439e-05
-3.16797e-05
-9.73521e-06
4.1543e-05
0.000117058
0.000234705
0.000321929
6.35912e-12
2.67346e-12
-6.4678e-11
-9.28215e-11
1.99897e-10
7.35648e-10
4.37812e-10
-1.96291e-09
-5.14045e-09
-3.35241e-09
9.40995e-09
2.86439e-08
3.11754e-08
-1.49165e-08
-1.15169e-07
-2.05084e-07
-1.39189e-07
2.43851e-07
9.7155e-07
1.75825e-06
1.91019e-06
4.42832e-07
-3.52061e-06
-1.01219e-05
-1.81048e-05
-2.45196e-05
-2.43547e-05
-1.36017e-05
1.23627e-05
7.85814e-05
8.28356e-13
5.94906e-12
-7.17198e-12
-4.73986e-11
-3.31561e-11
1.62691e-10
4.1921e-10
1.42514e-10
-1.21796e-09
-2.83419e-09
-1.76159e-09
5.02658e-09
1.55242e-08
1.83695e-08
-3.79783e-09
-5.89571e-08
-1.23245e-07
-1.27723e-07
2.46312e-08
4.00133e-07
9.45751e-07
1.41075e-06
1.33573e-06
1.57771e-07
-2.5511e-06
-6.79662e-06
-1.17735e-05
-1.56978e-05
-1.84614e-05
-3.99957e-06
-2.02132e-13
1.89509e-12
2.69433e-12
-9.07404e-12
-2.85033e-11
-5.70039e-12
1.09691e-10
2.25407e-10
3.58024e-11
-6.97725e-10
-1.52729e-09
-9.92213e-10
2.47523e-09
8.20317e-09
1.09881e-08
1.79752e-09
-2.61375e-08
-6.67693e-08
-9.20032e-08
-5.2863e-08
1.01404e-07
3.86332e-07
7.38882e-07
9.89106e-07
8.73088e-07
9.66781e-08
-1.55456e-06
-3.87944e-06
-7.33292e-06
-8.47414e-06
-1.32057e-13
2.13639e-13
1.48237e-12
5.45367e-13
-7.23771e-12
-1.51497e-11
3.36825e-12
6.61293e-11
1.17039e-10
5.71365e-12
-3.74979e-10
-8.07964e-10
-5.93372e-10
1.08731e-09
4.14268e-09
6.40263e-09
3.49534e-09
-9.03706e-09
-3.1261e-08
-5.37858e-08
-5.56148e-08
-8.70291e-09
1.09014e-07
2.94313e-07
5.00281e-07
6.29173e-07
5.33108e-07
1.17931e-07
-8.22508e-07
-2.48553e-06
-3.1453e-14
-6.10994e-14
3.11993e-13
8.5403e-13
-3.27296e-13
-4.72653e-12
-7.41638e-12
4.60289e-12
3.70161e-11
5.96559e-11
7.27158e-13
-1.90577e-10
-4.19208e-10
-3.6299e-10
3.97753e-10
1.95407e-09
3.50735e-09
3.12128e-09
-1.67301e-09
-1.21752e-08
-2.61496e-08
-3.59989e-08
-2.90909e-08
8.49709e-09
8.47642e-08
1.93515e-07
3.03814e-07
3.68542e-07
3.47562e-07
-1.19931e-07
-5.25488e-16
-3.59344e-14
-1.25473e-14
2.30798e-13
4.65684e-13
-2.80014e-13
-2.59886e-12
-4.01586e-12
1.67824e-12
1.7882e-11
3.24777e-11
1.25789e-11
-7.36716e-11
-2.04446e-10
-2.54096e-10
-1.16571e-11
6.76693e-10
1.66123e-09
2.27305e-09
1.35623e-09
-2.26748e-09
-8.90156e-09
-1.69335e-08
-2.21996e-08
-1.84088e-08
1.16519e-09
4.02512e-08
9.39445e-08
1.6802e-07
1.68369e-07
)
;

boundaryField
{
    fixedWall_Bottom
    {
        type            greyDiffusiveRadiation;
        refValue        uniform 18049.5;
        refGradient     uniform 0;
        valueFraction   uniform 1;
        source          uniform 0;
        value           uniform 18049.5;
    }
    fixedWall_Right
    {
        type            greyDiffusiveRadiation;
        refValue        uniform 0;
        refGradient     uniform 0;
        valueFraction   uniform 0;
        source          uniform 0;
        value           nonuniform List<scalar> 
30
(
18041.6
18366.7
18130.8
15285.3
9508.84
3354.69
-389.824
-1276.19
-728.001
-126.195
88.1399
68.153
15.2894
-4.93265
-4.45214
-1.00773
0.251453
0.228836
0.0498919
-0.010546
-0.0095505
-0.00210847
0.000307176
0.000321929
7.85814e-05
-3.99957e-06
-8.47414e-06
-2.48553e-06
-1.19931e-07
1.68369e-07
)
;
    }
    fixedWall_Left
    {
        type            greyDiffusiveRadiation;
        refValue        uniform 0;
        refGradient     uniform 0;
        valueFraction   uniform 1;
        source          uniform 0;
        value           uniform 0;
    }
    fixedWall_Top
    {
        type            greyDiffusiveRadiation;
        refValue        uniform 0;
        refGradient     uniform 0;
        valueFraction   uniform 0;
        source          uniform 0;
        value           nonuniform List<scalar> 
30
(
-5.25488e-16
-3.59344e-14
-1.25473e-14
2.30798e-13
4.65684e-13
-2.80014e-13
-2.59886e-12
-4.01586e-12
1.67824e-12
1.7882e-11
3.24777e-11
1.25789e-11
-7.36716e-11
-2.04446e-10
-2.54096e-10
-1.16571e-11
6.76693e-10
1.66123e-09
2.27305e-09
1.35623e-09
-2.26748e-09
-8.90156e-09
-1.69335e-08
-2.21996e-08
-1.84088e-08
1.16519e-09
4.02512e-08
9.39445e-08
1.6802e-07
1.68369e-07
)
;
    }
    frontAndBack
    {
        type            empty;
    }
}


// ************************************************************************* //
