/*--------------------------------*- C++ -*----------------------------------*\
| =========                 |                                                 |
| \\      /  F ield         | OpenFOAM: The Open Source CFD Toolbox           |
|  \\    /   O peration     | Version:  2312                                  |
|   \\  /    A nd           | Website:  www.openfoam.com                      |
|    \\/     M anipulation  |                                                 |
\*---------------------------------------------------------------------------*/
FoamFile
{
    version     2.0;
    format      ascii;
    arch        "LSB;label=32;scalar=64";
    class       volScalarField;
    location    "0.045";
    object      ILambda_63_0;
}
// * * * * * * * * * * * * * * * * * * * * * * * * * * * * * * * * * * * * * //

dimensions      [1 0 -3 0 0 0 0];

internalField   nonuniform List<scalar> 
900
(
18049.5
18049.5
18049.5
18049.5
18049.5
18049.5
18049.5
18049.5
18049.5
18049.5
18049.5
18049.5
18049.5
18049.5
18049.5
18049.5
18049.5
18049.5
18049.5
18049.5
18049.5
18049.5
18049.5
18049.5
18049.5
18049.5
18048.6
18056.2
18253.4
17396.2
18049.5
18049.5
18049.5
18049.5
18049.5
18049.5
18049.5
18049.5
18049.5
18049.5
18049.5
18049.5
18049.5
18049.5
18049.5
18049.5
18049.5
18049.5
18049.5
18049.5
18049.5
18049.5
18049.5
18049.5
18049.5
18049
18045.5
18096.9
18580.2
16145.8
18049.5
18049.5
18049.5
18049.5
18049.5
18049.5
18049.5
18049.5
18049.5
18049.5
18049.5
18049.5
18049.5
18049.5
18049.5
18049.5
18049.5
18049.5
18049.5
18049.5
18049.5
18049.5
18049.5
18049.5
18049.5
18047.7
18042.7
18165
18812.8
14962.4
18049.5
18049.5
18049.5
18049.5
18049.5
18049.5
18049.5
18049.5
18049.5
18049.5
18049.5
18049.5
18049.5
18049.5
18049.5
18049.5
18049.5
18049.5
18049.5
18049.5
18049.5
18049.5
18049.5
18049.5
18049.4
18045.3
18042.6
18255.3
18954.4
13846.2
18049.5
18049.5
18049.5
18049.5
18049.5
18049.5
18049.5
18049.5
18049.5
18049.5
18049.5
18049.5
18049.5
18049.5
18049.5
18049.5
18049.5
18049.5
18049.5
18049.5
18049.5
18049.5
18049.5
18049.6
18049.1
18042.1
18047.3
18361.2
19011.6
12795.1
18049.5
18049.5
18049.5
18049.5
18049.5
18049.5
18049.5
18049.5
18049.5
18049.5
18049.5
18049.5
18049.5
18049.5
18049.5
18049.5
18049.5
18049.5
18049.5
18049.5
18049.5
18049.5
18049.5
18049.7
18048.5
18038.1
18058.4
18476.6
18991.8
11806.4
18049.5
18049.5
18049.5
18049.5
18049.5
18049.5
18049.5
18049.5
18049.5
18049.5
18049.5
18049.5
18049.5
18049.5
18049.5
18049.5
18049.5
18049.5
18049.5
18049.5
18049.5
18049.5
18049.5
18049.7
18047.5
18033.7
18076.8
18595.8
18901.8
10877.2
18049.5
18049.5
18049.5
18049.5
18049.5
18049.5
18049.5
18049.5
18049.5
18049.5
18049.5
18049.5
18049.5
18049.5
18049.5
18049.5
18049.5
18049.5
18049.5
18049.5
18049.4
18049.5
18049.6
18049.7
18046
18029.5
18103.2
18714
18748.5
10004.8
18049.4
18049.4
18049.4
18049.4
18049.4
18049.4
18049.4
18049.4
18049.4
18049.4
18049.4
18049.4
18049.4
18049.4
18049.4
18049.4
18049.4
18049.4
18049.4
18049.4
18049.4
18049.5
18049.6
18049.7
18043.9
18025.8
18137.9
18826.8
18538.2
9186.56
18049.5
18049.5
18049.5
18049.5
18049.5
18049.5
18049.5
18049.5
18049.5
18049.5
18049.5
18049.5
18049.5
18049.5
18049.5
18049.5
18049.5
18049.5
18049.5
18049.5
18049.5
18049.5
18049.7
18049.6
18041.3
18023.4
18180.7
18930.4
18276.9
8419.88
18049.5
18049.5
18049.5
18049.5
18049.5
18049.5
18049.5
18049.5
18049.5
18049.5
18049.5
18049.5
18049.5
18049.5
18049.5
18049.5
18049.5
18049.5
18049.5
18049.5
18049.5
18049.6
18049.9
18049.4
18038.2
18022.8
18231.3
19021.6
17970.2
7702.27
18049.5
18049.5
18049.5
18049.5
18049.5
18049.5
18049.5
18049.5
18049.5
18049.5
18049.5
18049.5
18049.5
18049.5
18049.5
18049.5
18049.5
18049.5
18049.5
18049.5
18049.5
18049.6
18050
18048.9
18034.5
18024.4
18289.1
19097.4
17623.3
7031.3
18049.5
18049.5
18049.5
18049.5
18049.5
18049.5
18049.5
18049.5
18049.5
18049.5
18049.5
18049.5
18049.5
18049.5
18049.5
18049.5
18049.5
18049.5
18049.5
18049.5
18049.5
18049.6
18050.1
18048.1
18030.4
18028.9
18353
19155.5
17241.1
6404.66
18049.4
18049.4
18049.4
18049.4
18049.4
18049.4
18049.4
18049.4
18049.4
18049.4
18049.4
18049.4
18049.4
18049.4
18049.4
18049.4
18049.4
18049.4
18049.4
18049.4
18049.4
18049.6
18050.1
18047
18025.9
18036.6
18422.2
19194.1
16828.4
5820.08
18049.3
18049.3
18049.3
18049.3
18049.3
18049.3
18049.3
18049.3
18049.3
18049.3
18049.3
18049.3
18049.3
18049.3
18049.3
18049.3
18049.3
18049.3
18049.3
18049.3
18049.3
18049.6
18050.2
18045.5
18021.3
18048.1
18495.7
19211.5
16389.4
5275.4
18049.3
18049.3
18049.3
18049.3
18049.3
18049.3
18049.3
18049.3
18049.3
18049.3
18049.3
18049.3
18049.3
18049.3
18049.3
18049.3
18049.3
18049.3
18049.3
18049.3
18049.3
18049.7
18050.2
18043.8
18017
18063.8
18572.2
19206.7
15928.3
4768.53
18049.4
18049.4
18049.4
18049.4
18049.4
18049.4
18049.4
18049.4
18049.4
18049.4
18049.4
18049.4
18049.4
18049.4
18049.4
18049.4
18049.4
18049.4
18049.4
18049.4
18049.4
18049.9
18050.3
18041.7
18013
18083.9
18650.6
19178.9
15448.7
4297.47
18049.6
18049.6
18049.6
18049.6
18049.6
18049.6
18049.6
18049.6
18049.6
18049.6
18049.6
18049.6
18049.6
18049.6
18049.6
18049.6
18049.6
18049.6
18049.6
18049.6
18049.7
18050.2
18050.4
18039.3
18009.7
18108.6
18729.4
19127.2
14954
3860.28
18049.8
18049.8
18049.8
18049.8
18049.8
18049.8
18049.8
18049.8
18049.8
18049.8
18049.8
18049.8
18049.8
18049.8
18049.8
18049.8
18049.8
18049.8
18049.8
18049.8
18049.9
18050.6
18050.3
18036.5
18007.3
18138.1
18807.2
19051.3
14447.6
3455.11
18050
18050
18050
18050
18050
18050
18050
18050
18050
18050
18050
18050
18050
18050
18050
18050
18050
18050
18050
18049.9
18050.1
18050.9
18050
18033.2
18005.9
18172
18882.6
18951
13932.2
3080.18
18049.9
18049.9
18049.9
18049.9
18049.9
18049.9
18049.9
18049.9
18049.9
18049.9
18049.9
18049.9
18049.9
18049.9
18049.9
18049.9
18049.9
18049.9
18049.9
18049.9
18050.1
18051
18049.3
18029.4
18005.7
18210.3
18953.9
18826.2
13410.6
2733.78
18049.5
18049.5
18049.5
18049.5
18049.5
18049.5
18049.5
18049.5
18049.5
18049.5
18049.5
18049.5
18049.5
18049.5
18049.5
18049.5
18049.5
18049.5
18049.5
18049.5
18049.8
18050.8
18048.1
18025
18006.9
18252.6
19019.9
18677.4
12885.3
2414.26
18048.8
18048.8
18048.8
18048.8
18048.8
18048.8
18048.8
18048.8
18048.8
18048.8
18048.8
18048.8
18048.8
18048.8
18048.8
18048.8
18048.8
18048.8
18048.8
18048.8
18049.2
18050.3
18046.4
18020
18009.7
18298.8
19079.3
18504.9
12358.8
2120.03
18048
18048
18048
18048
18048
18048
18048
18048
18048
18048
18048
18048
18048
18048
18048
18048
18048
18048
18047.9
18047.9
18048.4
18049.5
18044.2
18014.7
18014.4
18348.6
19131.1
18309.7
11833
1849.58
18047.4
18047.4
18047.4
18047.4
18047.4
18047.4
18047.4
18047.4
18047.4
18047.4
18047.4
18047.4
18047.4
18047.4
18047.4
18047.4
18047.4
18047.4
18047.4
18047.4
18048
18049.1
18042
18009.7
18021.8
18402.2
19174.9
18093.3
11310.4
1601.49
18046.7
18046.7
18046.7
18046.7
18046.7
18046.7
18046.7
18046.7
18046.7
18046.7
18046.7
18046.7
18046.7
18046.7
18046.7
18046.7
18046.7
18046.7
18046.7
18046.7
18047.5
18048.4
18039.3
18004.6
18031.8
18458.8
19208.9
17854.9
10791.4
1374.14
18048.3
18048.3
18048.3
18048.3
18048.3
18048.3
18048.3
18048.3
18048.3
18048.3
18048.3
18048.3
18048.3
18048.3
18048.3
18048.3
18048.3
18048.3
18048.3
18048.4
18049.3
18050
18038.6
18001.8
18046.5
18520
19235.8
17602.3
10283.4
1167.37
18048.5
18048.5
18048.5
18048.5
18048.5
18048.5
18048.5
18048.5
18048.5
18048.5
18048.5
18048.5
18048.5
18048.5
18048.5
18048.5
18048.5
18048.5
18048.5
18048.6
18049.7
18050
18036
17998.2
18064.4
18584.3
19246.8
17313.8
9763.19
974.318
18053.6
18053.6
18053.6
18053.6
18053.6
18053.6
18053.6
18053.6
18053.6
18053.6
18053.6
18053.6
18053.6
18053.6
18053.6
18053.6
18053.6
18053.6
18053.5
18053.7
18054.9
18054.9
18038.5
17999.6
18084.6
18644.5
19260.7
17075
9336.06
820.257
18059.4
18059.4
18059.4
18059.4
18059.4
18059.4
18059.4
18059.4
18059.4
18059.4
18059.4
18059.4
18059.4
18059.4
18059.4
18059.4
18059.4
18059.4
18059.4
18059.7
18061.1
18059.8
18038.6
18002.2
18131.5
18754.6
19231.6
16558.5
8559.29
581.461
)
;

boundaryField
{
    fixedWall_Bottom
    {
        type            greyDiffusiveRadiation;
        refValue        uniform 18049.5;
        refGradient     uniform 0;
        valueFraction   uniform 1;
        source          uniform 0;
        value           uniform 18049.5;
    }
    fixedWall_Right
    {
        type            greyDiffusiveRadiation;
        refValue        uniform 0;
        refGradient     uniform 0;
        valueFraction   uniform 1;
        source          uniform 0;
        value           uniform 0;
    }
    fixedWall_Left
    {
        type            greyDiffusiveRadiation;
        refValue        uniform 0;
        refGradient     uniform 0;
        valueFraction   uniform 0;
        source          uniform 0;
        value           nonuniform List<scalar> 
30
(
18049.5
18049.5
18049.5
18049.5
18049.5
18049.5
18049.5
18049.5
18049.4
18049.5
18049.5
18049.5
18049.5
18049.4
18049.3
18049.3
18049.4
18049.6
18049.8
18050
18049.9
18049.5
18048.8
18048
18047.4
18046.7
18048.3
18048.5
18053.6
18059.4
)
;
    }
    fixedWall_Top
    {
        type            greyDiffusiveRadiation;
        refValue        uniform 0;
        refGradient     uniform 0;
        valueFraction   uniform 0;
        source          uniform 0;
        value           nonuniform List<scalar> 
30
(
18059.4
18059.4
18059.4
18059.4
18059.4
18059.4
18059.4
18059.4
18059.4
18059.4
18059.4
18059.4
18059.4
18059.4
18059.4
18059.4
18059.4
18059.4
18059.4
18059.7
18061.1
18059.8
18038.6
18002.2
18131.5
18754.6
19231.6
16558.5
8559.29
581.461
)
;
    }
    frontAndBack
    {
        type            empty;
    }
}


// ************************************************************************* //
