/*--------------------------------*- C++ -*----------------------------------*\
| =========                 |                                                 |
| \\      /  F ield         | OpenFOAM: The Open Source CFD Toolbox           |
|  \\    /   O peration     | Version:  2312                                  |
|   \\  /    A nd           | Website:  www.openfoam.com                      |
|    \\/     M anipulation  |                                                 |
\*---------------------------------------------------------------------------*/
FoamFile
{
    version     2.0;
    format      ascii;
    arch        "LSB;label=32;scalar=64";
    class       volScalarField;
    location    "0.045";
    object      ILambda_56_0;
}
// * * * * * * * * * * * * * * * * * * * * * * * * * * * * * * * * * * * * * //

dimensions      [1 0 -3 0 0 0 0];

internalField   nonuniform List<scalar> 
900
(
18049.5
18049.5
18049.5
18049.5
18049.5
18049.5
18049.5
18049.5
18049.5
18049.5
18049.5
18049.5
18049.5
18049.5
18049.5
18049.5
18049.3
18049.1
18049.3
18050.5
18052.5
18052
18041.4
18018.1
18013.8
18129
18470.6
18747.7
17241.8
9547.76
18049.5
18049.5
18049.5
18049.5
18049.5
18049.5
18049.5
18049.5
18049.5
18049.4
18049.4
18049.4
18049.5
18049.5
18049.3
18049.1
18049.2
18050.4
18052.9
18053.4
18043.9
18018.9
17999.3
18065.2
18331.8
18743.7
18623
16323.4
10136.4
1663.05
18049.4
18049.4
18049.4
18049.4
18049.4
18049.4
18049.4
18049.4
18049.4
18049.4
18049.4
18049.5
18049.4
18049.2
18049
18049.7
18051.9
18054.2
18050.8
18032.7
18002.7
18003.2
18131.5
18467.2
18832.8
18463.8
16016.6
10582.7
3630.37
-525.117
18049.5
18049.5
18049.5
18049.5
18049.5
18049.5
18049.5
18049.5
18049.5
18049.6
18049.6
18049.5
18049.2
18049.3
18050.6
18053.4
18054.4
18046.2
18021.5
17992.6
18017.2
18194.1
18562
18870.3
18358.6
15916.6
10977.8
4757.59
230.837
-567.851
18049.7
18049.7
18049.7
18049.6
18049.6
18049.6
18049.7
18049.8
18050
18049.9
18049.6
18049.3
18049.6
18051.5
18054.3
18053.5
18040.5
18011.3
17987.2
18035.5
18248.4
18629.4
18887.8
18297.1
15915.6
11345.2
5602.2
992.123
-704.789
-220.953
18049.5
18049.5
18049.5
18049.5
18049.6
18049.7
18049.9
18049.9
18049.7
18049.1
18048.7
18049.4
18051.8
18054.5
18051.5
18034.3
18002.6
17985.4
18054.8
18294
18678.3
18897
18265.8
15966.4
11690.7
6298.72
1685.51
-539.873
-546.228
-11.1908
18048.9
18048.9
18049
18049.1
18049.2
18049.3
18049.1
18048.6
18047.8
18047.4
18048.7
18051.8
18054.3
18049.3
18028.6
17995.7
17985.9
18073.7
18331.8
18714.4
18903
18255.7
16046.4
12017.9
6904.89
2318.56
-266.66
-702.301
-202.427
42.4429
18048.6
18048.7
18048.8
18048.9
18048.8
18048.3
18047.4
18046.6
18046.7
18048.9
18053
18055.4
18048.2
18024.2
17990.8
17988.2
18091.3
18362.9
18741.6
18908.1
18260.5
16143.5
12329.3
7449.82
2905.17
58.3366
-750.217
-389.141
-1.32323
28.8018
18049.8
18049.9
18049.8
18049.4
18048.6
18047.7
18047.2
18048.2
18051.8
18056.9
18058.8
18048.9
18021.4
17987.4
17991.2
18106.9
18388.2
18762.1
18913.3
18276
16250.8
12626.7
7949.93
3455.4
411.116
-719.683
-543.433
-98.2692
50.978
7.6776
18052.1
18051.7
18051.2
18050.3
18049.6
18049.9
18052.3
18057.3
18063
18063.4
18049.7
18018
17983.1
17992.6
18119.1
18408
18777.6
18919
18299.2
16364
12911.5
8415.38
3976.31
779.444
-630.899
-657.218
-215.743
35.2043
35.0787
-2.46286
18052.8
18052
18051.3
18051.2
18052.6
18056.4
18062.4
18067.6
18065.1
18046.4
18009.8
17974.3
17989.8
18126.7
18422.5
18789.1
18925.2
18327.9
16480
13184.7
8852.82
4472.94
1156.58
-497.781
-730.783
-335.899
-9.66789
53.2068
10.2903
-3.65769
18049.3
18049
18049.7
18052.2
18057
18063
18066.3
18059.3
18034.7
17993.7
17958.8
17982
18130.4
18433.8
18798.8
18933
18360.7
16596.7
13446.8
9266.64
4948.93
1538.55
-330.045
-766.968
-448.668
-75.0945
56.2845
28.7179
-2.55836
-1.7695
18042.3
18044.1
18047.4
18052.4
18057.3
18057.3
18044.9
18014.6
17970.7
17939.3
17973
18134.8
18446.7
18810.9
18944.2
18397.2
16712.8
13698
9659.89
5406.9
1922.86
-134.707
-769.212
-548.314
-153.381
42.901
46.0679
5.59022
-4.65274
-0.179425
18036.8
18041.3
18045.6
18048.3
18044
18026.3
17991.6
17947.7
17923.5
17971.3
18148.3
18468.6
18830.7
18961.8
18437.4
16827.1
13938.5
10034.7
5848.98
2307.94
82.9761
-741
-631.687
-238.194
14.2982
57.8004
18.2844
-4.25403
-2.51353
0.376423
18039.4
18043.5
18043.1
18034.6
18012.5
17975.8
17935.7
17922.7
17987.3
18180.2
18506.8
18863.1
18987.3
18480.4
16937.4
14167.2
10392.5
6277.11
2693.26
319.203
-685.707
-697.422
-324.599
-27.0396
61.4052
32.6513
0.0454001
-4.69651
-0.421372
0.30927
18053.4
18049.9
18037.8
18013.2
17977.7
17945
17946.6
18029.3
18236.4
18564.7
18908.7
19018.8
18522.2
17039.4
14381.1
10733
6692.93
3079.43
571.903
-606.189
-745.509
-409.192
-78.2311
56.0112
46.0959
7.77736
-5.42257
-2.12901
0.429579
0.104732
18075.6
18057.9
18033.5
18002.2
17980
17997.6
18097.7
18314.9
18638.1
18961.3
19048.7
18554.3
17124.8
14574.5
11053.7
7097
3467.92
841.111
-503.892
-776.573
-490.225
-136.84
41.9037
56.828
17.8274
-4.02303
-4.00657
-0.14078
0.416561
-0.016553
18097.8
18068.5
18044.7
18034.5
18068.2
18182.5
18403.7
18713.6
19006.8
19062.8
18563.1
17181.8
14737.7
11348.9
7487.73
3860.02
1128.74
-377.951
-790.56
-567.162
-201.642
19.6592
64.0171
29.1342
-0.466521
-5.425
-1.27356
0.521548
0.156121
-0.0398817
18111.5
18088.3
18091.5
18139
18262.8
18480.8
18768.6
19023.4
19040.8
18530.5
17194.3
14857.8
11609.4
7860.27
4255.29
1437.39
-225.028
-785.313
-639.372
-272.719
-10.9198
67.2794
41.1914
5.1036
-6.082
-2.75785
0.317854
0.389548
-0.0212082
-0.0194908
18110.3
18123.3
18181.7
18309.2
18516.6
18774.6
18984.4
18958.5
18435.3
17144.2
14919.4
11822.6
8205.98
4650.02
1768.47
-40.3459
-755.873
-704.394
-350.448
-51.3555
65.6296
53.8848
12.9245
-5.78267
-4.5297
-0.242418
0.625456
0.0864645
-0.0627895
0.00166902
18085.9
18163.7
18287.4
18477.8
18700.2
18861.2
18790.9
18255.6
17012.5
14905.8
11973.9
8512.67
5036.32
2120.17
180.273
-695.125
-756.734
-433.71
-103.896
56.6337
66.5938
23.6856
-3.93351
-6.58394
-1.34993
0.809403
0.323022
-0.0885194
-0.0324646
0.0093811
18019.6
18168.4
18332.1
18516.1
18627.6
18515
17971.7
16781.9
14800.9
12047.7
8765.64
5402.16
2486.12
438.088
-595.707
-787.973
-518.273
-169.854
36.5728
77.1647
37.8194
0.700261
-8.51832
-3.32641
0.70395
0.74349
-0.0200104
-0.10937
0.00560619
0.00692479
17873.5
18060.3
18197.5
18262.8
18113
17568.2
16438.7
14591.5
12029.8
8949.39
5732.39
2855.15
729.671
-452.491
-788.337
-596.323
-247.732
1.80948
81.6372
54.3947
9.51884
-9.14197
-6.23149
-0.179526
1.2347
0.283867
-0.180233
-0.0553101
0.0238555
0.00151917
17588.9
17737.7
17753.1
17574.5
17036.4
15974.6
14268.5
11909
9049.55
6010.57
3212.22
1046.26
-264.734
-749.141
-657.492
-332.168
-49.2655
75.1662
70.4436
23.0311
-6.66765
-9.36696
-2.29556
1.36603
0.873422
-0.09353
-0.174323
0.001936
0.0228808
-0.00232103
17095.8
17101.3
16896.9
16375
15387.9
13828.5
11678.4
9054.79
6220.99
3540.12
1374.37
-37.1995
-665.212
-691.038
-414.305
-114.713
53.8025
81.3406
39.9002
0.429689
-11.1805
-5.55172
0.528092
1.50868
0.306224
-0.246756
-0.0960209
0.0319906
0.0131773
-0.00354113
16329.6
16084.5
15589.6
14683.1
13273.7
11336.4
8958.02
6350.62
3821.74
1697.45
220.042
-536.47
-688.341
-483.464
-188.715
16.2584
82.1841
56.7858
12.3662
-9.81481
-8.99077
-1.63452
1.65325
0.979045
-0.0955346
-0.228281
-0.0196177
0.0356973
0.00351815
-0.00296279
15262.9
14687.3
13879.6
12617.4
10891.1
8760.05
6392.06
4042.53
1997.88
492.527
-368.681
-645.116
-529.549
-262.561
-35.1179
69.5697
69.1967
27.4788
-4.05447
-11.0073
-4.80005
0.763884
1.58145
0.372157
-0.255381
-0.13898
0.0244907
0.0255522
-0.00231974
-0.00174971
13852.2
12920.7
11839.2
10320.1
8440.92
6325.72
4182.4
2255.94
764.152
-170.221
-559.964
-543.701
-325.99
-94.6985
42.6008
72.7249
42.4392
5.91946
-10.004
-7.89059
-1.2996
1.59488
1.01138
-0.0346212
-0.244584
-0.0515979
0.0371649
0.0127749
-0.00429349
-0.000667859
12428.4
11164.2
9873.73
8202.64
6304.29
4339.54
2519.26
1043.94
46.6814
-449.258
-535.444
-379.571
-158.674
3.75957
66.397
54.7302
18.8358
-5.3288
-9.72764
-4.15774
0.657351
1.48695
0.449547
-0.207683
-0.167057
0.00272108
0.0320476
0.00349705
-0.00394917
-1.6506e-05
9653.66
8119.64
6780.15
5205.67
3603.25
2121.48
913.791
82.5936
-350.122
-448.806
-338.893
-159.351
-14.5738
51.9188
51.8673
23.303
-0.895819
-8.72584
-5.38822
-0.440636
1.37958
0.782977
-0.0399284
-0.210293
-0.0553876
0.0305578
0.0163083
-0.00283878
-0.00223676
0.000337391
)
;

boundaryField
{
    fixedWall_Bottom
    {
        type            greyDiffusiveRadiation;
        refValue        uniform 18049.5;
        refGradient     uniform 0;
        valueFraction   uniform 1;
        source          uniform 0;
        value           uniform 18049.5;
    }
    fixedWall_Right
    {
        type            greyDiffusiveRadiation;
        refValue        uniform 0;
        refGradient     uniform 0;
        valueFraction   uniform 1;
        source          uniform 0;
        value           uniform 0;
    }
    fixedWall_Left
    {
        type            greyDiffusiveRadiation;
        refValue        uniform 0;
        refGradient     uniform 0;
        valueFraction   uniform 0;
        source          uniform 0;
        value           nonuniform List<scalar> 
30
(
18049.5
18049.5
18049.4
18049.5
18049.7
18049.5
18048.9
18048.6
18049.8
18052.1
18052.8
18049.3
18042.3
18036.8
18039.4
18053.4
18075.6
18097.8
18111.5
18110.3
18085.9
18019.6
17873.5
17588.9
17095.8
16329.6
15262.9
13852.2
12428.4
9653.66
)
;
    }
    fixedWall_Top
    {
        type            greyDiffusiveRadiation;
        refValue        uniform 0;
        refGradient     uniform 0;
        valueFraction   uniform 0;
        source          uniform 0;
        value           nonuniform List<scalar> 
30
(
9653.66
8119.64
6780.15
5205.67
3603.25
2121.48
913.791
82.5936
-350.122
-448.806
-338.893
-159.351
-14.5738
51.9188
51.8673
23.303
-0.895819
-8.72584
-5.38822
-0.440636
1.37958
0.782977
-0.0399284
-0.210293
-0.0553876
0.0305578
0.0163083
-0.00283878
-0.00223676
0.000337391
)
;
    }
    frontAndBack
    {
        type            empty;
    }
}


// ************************************************************************* //
