/*--------------------------------*- C++ -*----------------------------------*\
| =========                 |                                                 |
| \\      /  F ield         | OpenFOAM: The Open Source CFD Toolbox           |
|  \\    /   O peration     | Version:  2312                                  |
|   \\  /    A nd           | Website:  www.openfoam.com                      |
|    \\/     M anipulation  |                                                 |
\*---------------------------------------------------------------------------*/
FoamFile
{
    version     2.0;
    format      ascii;
    arch        "LSB;label=32;scalar=64";
    class       volScalarField;
    location    "0.045";
    object      ILambda_60_0;
}
// * * * * * * * * * * * * * * * * * * * * * * * * * * * * * * * * * * * * * //

dimensions      [1 0 -3 0 0 0 0];

internalField   nonuniform List<scalar> 
900
(
18049.5
18049.5
18049.5
18049.5
18049.5
18049.5
18049.5
18049.5
18049.5
18049.5
18049.5
18049.5
18049.5
18049.5
18049.5
18049.5
18049.5
18049.5
18049.5
18049.5
18049.5
18049.4
18049.6
18050.4
18048.5
18034.8
18053.3
18352.3
18747.4
13830.4
18049.5
18049.5
18049.5
18049.5
18049.5
18049.5
18049.5
18049.5
18049.5
18049.5
18049.5
18049.5
18049.5
18049.5
18049.5
18049.5
18049.5
18049.5
18049.5
18049.4
18049.4
18049.8
18050.7
18047.1
18027.7
18037.3
18323.3
18967.3
17560.8
7693.95
18049.5
18049.5
18049.5
18049.5
18049.5
18049.5
18049.5
18049.5
18049.5
18049.5
18049.5
18049.5
18049.5
18049.5
18049.5
18049.5
18049.5
18049.5
18049.4
18049.4
18049.8
18050.9
18048.6
18029.7
18013.3
18180.5
18778.3
18860.6
14584.2
3753.5
18049.5
18049.5
18049.5
18049.5
18049.5
18049.5
18049.5
18049.5
18049.5
18049.5
18049.5
18049.5
18049.5
18049.5
18049.5
18049.5
18049.5
18049.5
18049.4
18049.7
18050.9
18050.5
18036.2
18006.1
18069.5
18496.4
19090.1
17686.8
10959
1445.45
18049.5
18049.5
18049.5
18049.5
18049.5
18049.5
18049.5
18049.5
18049.5
18049.5
18049.5
18049.5
18049.4
18049.5
18049.5
18049.5
18049.4
18049.4
18049.5
18050.6
18051.7
18043.4
18012.8
18010.3
18251.5
18880.5
18909.2
15548.3
7493.96
230.042
18049.4
18049.4
18049.4
18049.4
18049.4
18049.4
18049.4
18049.4
18049.4
18049.4
18049.4
18049.4
18049.4
18049.4
18049.4
18049.4
18049.3
18049.3
18050.1
18051.9
18048.9
18025.6
17993.1
18089.2
18555.9
19128.6
18026.7
12797.2
4615.59
-309.311
18049.5
18049.5
18049.5
18049.5
18049.5
18049.5
18049.5
18049.5
18049.5
18049.5
18049.5
18049.5
18049.5
18049.5
18049.5
18049.4
18049.3
18049.7
18051.6
18052.1
18038.2
18000.6
18007.6
18275.2
18901.3
19019
16424.5
9844.41
2466.59
-465.422
18049.6
18049.6
18049.6
18049.6
18049.6
18049.6
18049.6
18049.6
18049.6
18049.6
18049.6
18049.6
18049.6
18049.6
18049.5
18049.4
18049.5
18051
18053.2
18047.4
18017.6
17983.8
18091.7
18559.9
19145.1
18388.7
14244.7
7040
1014.94
-430.232
18049.6
18049.6
18049.6
18049.6
18049.6
18049.6
18049.6
18049.6
18049.6
18049.6
18049.6
18049.6
18049.6
18049.5
18049.4
18049.4
18050.4
18052.8
18052.4
18034.1
17991.8
18000.9
18268.7
18882.8
19124.5
17176.9
11722.9
4620.83
140.496
-320.56
18049.4
18049.4
18049.4
18049.4
18049.4
18049.4
18049.4
18049.4
18049.4
18049.4
18049.4
18049.4
18049.4
18049.3
18049.3
18049.7
18051.7
18053.8
18045.7
18011.4
17975.3
18081.1
18532.5
19138.5
18701.3
15431.9
9117.54
2704.57
-305.738
-200.843
18049.2
18049.2
18049.2
18049.2
18049.2
18049.2
18049.2
18049.2
18049.2
18049.2
18049.1
18049.1
18049.1
18049.1
18049.2
18050.4
18053
18051.6
18030.4
17985
17990.9
18244
18839.1
19199.6
17797
13287.8
6656.54
1309.91
-465.935
-101.33
18049.1
18049.1
18049.1
18049.1
18049.1
18049.1
18049.1
18049
18049
18049
18049
18049.1
18049
18049
18049.5
18051.6
18053.5
18044
18007.5
17968.5
18063.6
18487.2
19108.3
18946
16408.3
10927.8
4505.63
387.14
-457.466
-31.6704
18049.3
18049.3
18049.3
18049.3
18049.3
18049.3
18049.3
18049.3
18049.3
18049.3
18049.4
18049.4
18049.3
18049.3
18050.5
18053.2
18051.7
18029.6
17982.3
17981.3
18210.2
18778.4
19237.3
18292.3
14604.5
8544.66
2758.08
-151.222
-366.993
9.54857
18050
18050
18050
18050
18050
18050
18050
18050
18050
18050.1
18050.1
18050
18049.8
18050.1
18052.4
18054.8
18045.6
18008.5
17965.7
18043.6
18431.1
19056
19121.3
17205.5
12509.1
6308.28
1440.22
-405.115
-251.866
28.5673
18050.7
18050.7
18050.7
18050.7
18050.7
18050.7
18050.7
18050.7
18050.8
18050.8
18050.8
18050.4
18050.2
18051.5
18055
18054.4
18032.9
17983.9
17972.3
18170.3
18703.8
19237.1
18674.4
15710.6
10274.2
4345.21
526.298
-469.249
-145.252
32.7283
18050.8
18050.8
18050.8
18050.8
18050.8
18050.8
18050.8
18050.9
18050.9
18050.9
18050.6
18050.1
18050.4
18053.5
18057.2
18049.2
18011.8
17963
18019.2
18365.3
18982.6
19231.4
17846.4
13884.2
8054.48
2730.25
-43.1673
-422.821
-62.5049
28.5264
18049.9
18049.9
18049.9
18049.9
18049.9
18049.9
18049.9
18050
18050
18049.8
18049.2
18048.9
18050.8
18055.7
18056.7
18035.4
17983.3
17958.3
18122.4
18616.7
19202.3
18956.3
16631.7
11839.5
5985.03
1488.31
-343.833
-325.362
-7.27717
20.8264
18047.9
18047.9
18047.9
18047.9
18047.9
18047.9
18048
18048
18047.8
18047.3
18046.7
18047.6
18051.9
18057.1
18049.7
18010.5
17954
17987.4
18291.7
18893.1
19285.8
18351.7
15069.7
9707.33
4167.24
603.196
-453.307
-216.915
23.4392
12.7731
18045.3
18045.3
18045.3
18045.3
18045.3
18045.4
18045.4
18045.3
18044.9
18044.2
18044.3
18047.3
18053.6
18055.1
18032.7
17976.2
17937.8
18070.1
18524.9
19143.6
19155
17389.7
13238.4
7617.08
2662.21
29.923
-441.312
-120.823
35.5942
6.05657
18043.5
18043.5
18043.5
18043.5
18043.5
18043.5
18043.5
18043.2
18042.6
18042.3
18044
18049.4
18055.2
18046.8
18004.7
17941.2
17955.2
18221.8
18801.3
19301.1
18743
16080.7
11242.5
5680.99
1491.44
-292.466
-364.181
-47.682
35.6443
1.30807
18043.8
18043.8
18043.8
18043.9
18043.9
18043.9
18043.7
18043.2
18042.7
18043.5
18047.4
18054.2
18054.7
18029.9
17969.6
17921.8
18028.5
18445.8
19078.7
19290.4
18005.7
14472.5
9197.86
3983.04
642.654
-429.537
-262.985
0.559669
29.1829
-1.50635
18047.9
18047.9
18047.9
18047.9
18048
18047.8
18047.5
18047
18047.1
18049.6
18055.5
18060.4
18049.7
18005.1
17938.2
17939.7
18174.8
18726
19295.5
19039.8
16931.1
12644.2
7216.98
2573.74
78.8472
-442.801
-164.304
26.9984
20.362
-2.76204
18056.5
18056.5
18056.5
18056.5
18056.4
18056.2
18055.8
18055.7
18057
18061.4
18067.4
18065.8
18038.6
17977.6
17926.8
18015.8
18396.8
19023.1
19377.5
18493.9
15542.5
10695
5395.77
1470.34
-251.665
-384.156
-82.6086
36.9842
11.8317
-2.94508
18068.9
18068.9
18068.9
18068.9
18068.7
18068.4
18068.2
18068.8
18071.7
18077.1
18080
18066.7
18021.8
17956.9
17953.7
18162.6
18676.8
19276.8
19250.2
17624.6
13896.6
8731
3804.7
661.39
-405.851
-293.281
-23.3481
36.2143
4.97005
-2.51114
18083.5
18083.5
18083.5
18083.4
18083.2
18082.9
18083.1
18084.8
18088.9
18093.4
18089.2
18061.1
18003.4
17956.4
18034.3
18378.3
18975.1
19414.9
18852.5
16437.5
12075.9
6851.78
2484.69
114.121
-438.403
-197.43
13.9514
29.6243
0.228597
-1.81682
18093.3
18093.3
18093.2
18093.1
18092.9
18092.9
18093.8
18096.6
18100.8
18101.5
18086.6
18044.2
17986.5
17984.5
18170
18636.7
19228.3
19359.2
18143.6
14969.4
10175.4
5139.25
1447.79
-216.964
-396.559
-112.883
33.008
20.9037
-2.51788
-1.10135
18102.1
18102.1
18102
18101.9
18101.8
18102.2
18104
18107.3
18109.8
18103.5
18076.4
18025.9
17987.6
18059
18364.4
18911.7
19384.4
19065.8
17134.1
13299.1
8298.73
3653.12
681.152
-382.896
-317.711
-47.2237
38.8312
12.4425
-3.68968
-0.498153
18066.5
18066.5
18066.4
18066.3
18066.4
18067.4
18069.7
18072.5
18071.3
18056.5
18020.1
17973.8
17976.8
18138.2
18543.1
19084.6
19297.4
18410.9
15772.2
11453
6500.1
2413.76
154.981
-429.515
-227.175
-2.1461
36.0493
5.49691
-3.75827
-0.0608667
18087.4
18087.3
18087.2
18087.2
18087.8
18089.4
18091.9
18093
18085.7
18060.6
18016.6
17984.3
18045.8
18311.3
18808
19303.8
19206
17743.2
14475.1
9813.66
5021.6
1490.91
-171.416
-413.91
-148.463
24.8727
29.9506
0.652542
-3.31689
0.210255
17846.4
17846.3
17846.4
17846.7
17847.6
17848.9
17849.5
17845.1
17829.9
17801.7
17777.4
17809.1
17978.5
18334.3
18762.7
18866.5
18006.1
15619.8
11705.6
7072.95
3010.96
501.799
-374.49
-303.045
-52.809
38.201
17.236
-3.15748
-2.05637
0.359991
)
;

boundaryField
{
    fixedWall_Bottom
    {
        type            greyDiffusiveRadiation;
        refValue        uniform 18049.5;
        refGradient     uniform 0;
        valueFraction   uniform 1;
        source          uniform 0;
        value           uniform 18049.5;
    }
    fixedWall_Right
    {
        type            greyDiffusiveRadiation;
        refValue        uniform 0;
        refGradient     uniform 0;
        valueFraction   uniform 1;
        source          uniform 0;
        value           uniform 0;
    }
    fixedWall_Left
    {
        type            greyDiffusiveRadiation;
        refValue        uniform 0;
        refGradient     uniform 0;
        valueFraction   uniform 0;
        source          uniform 0;
        value           nonuniform List<scalar> 
30
(
18049.5
18049.5
18049.5
18049.5
18049.5
18049.4
18049.5
18049.6
18049.6
18049.4
18049.2
18049.1
18049.3
18050
18050.7
18050.8
18049.9
18047.9
18045.3
18043.5
18043.8
18047.9
18056.5
18068.9
18083.5
18093.3
18102.1
18066.5
18087.4
17846.4
)
;
    }
    fixedWall_Top
    {
        type            greyDiffusiveRadiation;
        refValue        uniform 0;
        refGradient     uniform 0;
        valueFraction   uniform 0;
        source          uniform 0;
        value           nonuniform List<scalar> 
30
(
17846.4
17846.3
17846.4
17846.7
17847.6
17848.9
17849.5
17845.1
17829.9
17801.7
17777.4
17809.1
17978.5
18334.3
18762.7
18866.5
18006.1
15619.8
11705.6
7072.95
3010.96
501.799
-374.49
-303.045
-52.809
38.201
17.236
-3.15748
-2.05637
0.359991
)
;
    }
    frontAndBack
    {
        type            empty;
    }
}


// ************************************************************************* //
