/*--------------------------------*- C++ -*----------------------------------*\
| =========                 |                                                 |
| \\      /  F ield         | OpenFOAM: The Open Source CFD Toolbox           |
|  \\    /   O peration     | Version:  2312                                  |
|   \\  /    A nd           | Website:  www.openfoam.com                      |
|    \\/     M anipulation  |                                                 |
\*---------------------------------------------------------------------------*/
FoamFile
{
    version     2.0;
    format      ascii;
    arch        "LSB;label=32;scalar=64";
    class       volScalarField;
    location    "0.045";
    object      ILambda_8_0;
}
// * * * * * * * * * * * * * * * * * * * * * * * * * * * * * * * * * * * * * //

dimensions      [1 0 -3 0 0 0 0];

internalField   nonuniform List<scalar> 
900
(
8501.71
16386.4
18574.6
18617.3
18270.4
18060.7
18007
18020.7
18041.8
18051.9
18053.1
18051.2
18049.6
18049.1
18049.2
18049.4
18049.5
18049.5
18049.5
18049.5
18049.5
18049.5
18049.5
18049.5
18049.5
18049.5
18049.5
18049.5
18049.5
18049.5
807.692
7913.06
14419.1
17818.6
18754.3
18595.7
18251.9
18050.8
17998.5
18014.4
18039.2
18052
18054.1
18052
18049.9
18049
18049.1
18049.3
18049.5
18049.5
18049.5
18049.4
18049.4
18049.4
18049.4
18049.4
18049.4
18049.4
18049.4
18049.4
-698.233
1726.12
7466.81
13291.9
17057.3
18589.3
18751.8
18438.6
18147.7
18014.3
17996.3
18020.8
18043.9
18053.7
18054.2
18051.6
18049.7
18049
18049.2
18049.5
18049.6
18049.6
18049.6
18049.5
18049.5
18049.4
18049.5
18049.5
18049.5
18049.5
-421.123
-573.538
2032.9
7071.64
12447.3
16364
18316.1
18799.7
18592.9
18265.2
18059.2
17993.2
18003.4
18031.2
18049.4
18054.9
18053.5
18050.8
18049.3
18049.1
18049.4
18049.8
18050
18049.9
18049.8
18049.7
18049.7
18049.6
18049.6
18049.7
-79.5007
-694.234
-414.334
2132.91
6704.26
11750.7
15730.9
17991.1
18769.2
18706.7
18385.4
18124.6
18006.6
17991.7
18016.8
18041.6
18053.3
18054.6
18051.9
18049.4
18048.5
18048.7
18049.2
18049.7
18049.9
18049.9
18049.8
18049.7
18049.6
18049.5
35.667
-282.337
-783.318
-309.098
2133.9
6358.74
11144.6
15144.3
17638.4
18680.4
18780.2
18498.1
18202.8
18035.1
17988
18003.3
18031.5
18049.5
18054.8
18053
18049.6
18047.6
18047.1
18047.6
18048.4
18048.9
18049.1
18049.1
18049.1
18048.9
31.3676
-15.7114
-417.713
-820.883
-247.601
2083.1
6031.54
10599.7
14594
17270
18547.2
18816.4
18597.7
18287.6
18076.6
17993.7
17993.2
18021
18044.8
18055.3
18055.6
18051.8
18048.2
18046.5
18046.4
18047
18047.8
18048.3
18048.6
18048.7
8.02514
50.2142
-82.0753
-512.5
-838.355
-216.359
2003.1
5720.14
10099.5
14073.1
16892.9
18379.6
18818.8
18681.2
18374.1
18128
18008.4
17987.1
18010.7
18039.5
18056.3
18060.4
18057.4
18052.7
18049.3
18047.8
18047.8
18048.4
18049.1
18049.7
-2.57811
30.6085
46.2555
-144.636
-579.887
-847.55
-206.23
1905.93
5422.73
9634.05
13576.5
16511.1
18184.5
18790.8
18746.9
18458.3
18185.8
18029.9
17983.7
17998.9
18030.8
18054.8
18065
18064.8
18060.2
18055.4
18052.3
18051.1
18051
18051.7
-3.05491
5.5364
46.7403
32.265
-198.867
-628.813
-853.582
-211.03
1798.67
5138
9196.68
13100.6
16126.8
17966.9
18735.5
18794.4
18537.6
18247.6
18056.3
17980.7
17982.1
18013.8
18044.7
18062.7
18067.9
18065.5
18060.6
18056.3
18053.7
18052.4
-1.00525
-3.90321
16.7271
56.9012
14.0312
-244.496
-665.019
-858.677
-226.445
1685.71
4864.9
8782.67
12642.2
15741.5
17730.8
18656.2
18825
18612.3
18313.7
18089
17979.7
17960.5
17986.4
18021.5
18047.5
18059.9
18062.2
18059.1
18055
18050.4
0.172021
-3.41118
-1.30715
28.025
62.2415
-5.36057
-282.358
-692.166
-863.775
-249.46
1569.87
4602.64
8388.68
12199.2
15355.7
17479
18556.2
18841.8
18685.8
18389.4
18135.1
17989.1
17941.9
17954.5
17988.5
18020.2
18040.2
18048.6
18049.6
18045.6
0.327133
-0.9565
-4.76753
3.3102
38.1821
64.0796
-24.242
-313.434
-712.661
-869.361
-278.025
1453.16
4350.89
8012.55
11769.6
14969.5
17213.1
18437.7
18847.2
18762.3
18482
18205.8
18022.9
17942.2
17933.3
17959
17991.7
18017.3
18031.8
18038.4
0.136106
0.284704
-2.44188
-4.93577
8.96987
46.7507
63.55
-41.6127
-338.612
-728.345
-875.941
-310.651
1337.48
4110.11
7653.04
11351.5
14581.3
16931.6
18298.9
18839.6
18841.6
18594.9
18309.6
18094.8
17978.3
17941.6
17951.5
17979.1
18005.4
18029.9
-0.00334363
0.387464
-0.252282
-3.81226
-4.03152
14.9121
53.6691
61.7107
-56.7836
-358.885
-741.047
-884.091
-345.779
1225.29
3881.72
7309.49
10942.5
14186.8
16628.6
18132
18809.6
18914.5
18721.2
18444.2
18208.2
18058.9
17991.6
17980.2
17995
18027.3
-0.0332051
0.147094
0.43927
-1.05994
-4.80213
-2.39728
20.5716
59.2479
59.6515
-69.468
-375.725
-752.751
-894.045
-381.075
1120.05
3667.98
6981.51
10539.1
13779.7
16294.2
17922.6
18738.8
18960
18840.2
18591.6
18349.9
18176.5
18080.7
18044.3
18048.9
-0.0162671
-0.00812367
0.297356
0.296987
-1.90865
-5.4025
-0.503589
25.7272
64.2276
58.3064
-80.1413
-391.23
-765.24
-905.038
-412.976
1026.14
3471.56
6668.5
10137
13351.5
15914.9
17651.6
18601.6
18947.1
18917.9
18718.1
18488.8
18303.6
18187.4
18117.3
-0.000781287
-0.0326986
0.0520306
0.394882
0.0695649
-2.68556
-5.86633
1.28409
30.6951
69.5926
57.9872
-90.2794
-407.793
-779.416
-914.83
-436.789
948.273
3294.83
6369.33
9731.31
12893.5
15477
17298.2
18369.6
18839.8
18912.3
18778.6
18578.8
18402.9
18235.8
0.00244835
-0.00789057
-0.0408515
0.108168
0.489334
-0.137493
-3.51707
-6.54147
3.01814
36.2912
76.071
57.9626
-102.145
-427.36
-794.68
-919.723
-447.355
890.537
3139.03
6082
9317.17
12397.5
14968.1
16844.1
18016.6
18603.5
18781.4
18723.7
18579.1
18358
-0.000201036
0.00937707
-0.0225312
-0.0685207
0.194572
0.680224
-0.385886
-4.72353
-7.54546
5.31277
43.4332
83.5685
56.4394
-118.099
-450.635
-808.726
-915.133
-440.069
855.397
3003.63
5803.52
8889.98
11857.8
14380
16276.8
17523.3
18210.8
18487.8
18522.2
18371.8
-0.00237455
0.00894061
0.0145125
-0.0741914
-0.096766
0.41647
0.971287
-0.959002
-6.56619
-8.50012
9.13248
52.5508
90.9013
51.0586
-139.728
-476.617
-817.898
-896.544
-411.893
843.011
2886.11
5529.99
8445.99
11271.3
13709.7
15591.3
16880.5
17645.4
18014
18116
-0.00235375
0.00117956
0.0277693
-0.0123592
-0.169055
-0.029722
0.846919
1.16057
-2.21308
-8.94415
-8.55274
15.2932
63.1427
96.0223
39.7082
-167.162
-502.66
-817.975
-860.5
-362.062
851.011
2782.08
5257.04
7982.72
10638.3
12960.1
14790.9
16091.6
16895.1
17429.9
-0.00113462
-0.00456106
0.019602
0.0336931
-0.0993338
-0.244104
0.248882
1.40089
0.889383
-4.30424
-11.2708
-6.71596
23.9532
73.738
96.6518
21.2997
-198.86
-525.038
-805.134
-805.381
-292.323
874.79
2685.9
4980.36
7499.32
9962.88
12138.8
13892.4
15133.7
16213.2
2.80885e-05
-0.00576698
0.00567488
0.0427794
-0.00919262
-0.225226
-0.182713
0.762967
1.80769
-0.155952
-6.98462
-12.6382
-2.34087
34.3738
82.2825
91.0256
-3.79628
-231.904
-539.793
-776.782
-731.765
-206.685
908.179
2591.48
4696.37
6997.04
9250.45
11269
12846.5
14469.9
0.000598614
-0.00409249
-0.00376551
0.029074
0.040681
-0.11226
-0.306029
0.103681
1.37202
1.72661
-2.02351
-9.61444
-12.1823
4.53399
45.0591
86.7592
78.4603
-33.7723
-262.657
-543.581
-732.082
-642.347
-110.806
944.335
2493.05
4403.06
6476.66
8526.15
10265.9
12315.7
0.000645832
-0.00181388
-0.00674533
0.0112848
0.0478517
-0.0130552
-0.234298
-0.23991
0.591044
1.80846
0.934675
-4.40437
-11.3876
-9.44934
13.1211
54.1856
85.7743
59.5553
-65.8016
-287.537
-534.317
-672.075
-541.472
-11.1306
976.61
2386.42
4096.73
5963.35
7670.77
9947.38
0.000444646
-0.000199932
-0.00561661
-0.000650137
0.0330812
0.0357279
-0.111593
-0.295186
0.0198778
1.1253
1.80643
-0.534557
-6.7243
-11.6441
-4.58952
22.1052
60.1235
78.9267
36.0528
-96.6371
-303.7
-511.538
-599.58
-434.672
85.6217
999.769
2265
3802.81
5313.88
7591.88
0.000215506
0.00051863
-0.00320487
-0.00533768
0.0150759
0.0430686
-0.0191178
-0.208069
-0.224544
0.420249
1.48515
1.23416
-2.38092
-8.34407
-10.0812
1.71011
29.9997
61.728
66.6497
10.2187
-123.239
-309.036
-475.341
-517.099
-326.235
175.181
1005.11
2150.41
3359.74
5435.43
6.09798e-05
0.000623657
-0.00123026
-0.0053986
0.00295294
0.0314507
0.0243513
-0.101731
-0.245335
-0.00804172
0.844815
1.52004
0.159421
-4.25223
-8.99433
-7.00343
8.63873
36.3841
60.0209
51.4089
-15.7643
-146.558
-309.927
-437.507
-438.699
-225.658
254.806
1039.03
1933.38
3706.31
-3.3921e-05
0.000411777
0.000192787
-0.00308883
-0.00391855
0.0120154
0.0332725
-0.00613847
-0.14085
-0.198841
0.15961
0.936252
1.21849
-0.468942
-4.40518
-7.71164
-4.64342
9.39561
31.7621
48.8997
39.4268
-15.3378
-117.65
-243.436
-342.166
-346.872
-197
173.272
649.841
1856.92
)
;

boundaryField
{
    fixedWall_Bottom
    {
        type            greyDiffusiveRadiation;
        refValue        uniform 18049.5;
        refGradient     uniform 0;
        valueFraction   uniform 1;
        source          uniform 0;
        value           uniform 18049.5;
    }
    fixedWall_Right
    {
        type            greyDiffusiveRadiation;
        refValue        uniform 0;
        refGradient     uniform 0;
        valueFraction   uniform 0;
        source          uniform 0;
        value           nonuniform List<scalar> 
30
(
18049.5
18049.4
18049.5
18049.7
18049.5
18048.9
18048.7
18049.7
18051.7
18052.4
18050.4
18045.6
18038.4
18029.9
18027.3
18048.9
18117.3
18235.8
18358
18371.8
18116
17429.9
16213.2
14469.9
12315.7
9947.38
7591.88
5435.43
3706.31
1856.92
)
;
    }
    fixedWall_Left
    {
        type            greyDiffusiveRadiation;
        refValue        uniform 0;
        refGradient     uniform 0;
        valueFraction   uniform 1;
        source          uniform 0;
        value           uniform 0;
    }
    fixedWall_Top
    {
        type            greyDiffusiveRadiation;
        refValue        uniform 0;
        refGradient     uniform 0;
        valueFraction   uniform 0;
        source          uniform 0;
        value           nonuniform List<scalar> 
30
(
-3.3921e-05
0.000411777
0.000192787
-0.00308883
-0.00391855
0.0120154
0.0332725
-0.00613847
-0.14085
-0.198841
0.15961
0.936252
1.21849
-0.468942
-4.40518
-7.71164
-4.64342
9.39561
31.7621
48.8997
39.4268
-15.3378
-117.65
-243.436
-342.166
-346.872
-197
173.272
649.841
1856.92
)
;
    }
    frontAndBack
    {
        type            empty;
    }
}


// ************************************************************************* //
