/*--------------------------------*- C++ -*----------------------------------*\
| =========                 |                                                 |
| \\      /  F ield         | OpenFOAM: The Open Source CFD Toolbox           |
|  \\    /   O peration     | Version:  2312                                  |
|   \\  /    A nd           | Website:  www.openfoam.com                      |
|    \\/     M anipulation  |                                                 |
\*---------------------------------------------------------------------------*/
FoamFile
{
    version     2.0;
    format      ascii;
    arch        "LSB;label=32;scalar=64";
    class       volScalarField;
    location    "0.045";
    object      ILambda_57_0;
}
// * * * * * * * * * * * * * * * * * * * * * * * * * * * * * * * * * * * * * //

dimensions      [1 0 -3 0 0 0 0];

internalField   nonuniform List<scalar> 
900
(
18049.5
18049.5
18049.5
18049.5
18049.5
18049.5
18049.5
18049.5
18049.5
18049.5
18049.5
18049.5
18049.5
18049.5
18049.5
18049.5
18049.5
18049.4
18049.3
18049.3
18050.2
18052.1
18050.9
18037.1
18013.8
18050.3
18311
18752.6
17887
10596.8
18049.5
18049.5
18049.5
18049.5
18049.5
18049.5
18049.5
18049.5
18049.5
18049.5
18049.5
18049.5
18049.5
18049.5
18049.5
18049.4
18049.2
18049.1
18049.8
18051.9
18053
18044.1
18017.7
18005
18125.8
18518
18887.3
17700.2
12310.8
2750.88
18049.4
18049.4
18049.4
18049.4
18049.4
18049.4
18049.4
18049.4
18049.4
18049.4
18049.4
18049.4
18049.4
18049.4
18049.3
18049.1
18049.2
18050.5
18053
18052.2
18037.5
18006.5
18006.4
18166.4
18585.1
18916.2
17854.4
13537.6
6013.68
-101.814
18049.4
18049.4
18049.4
18049.4
18049.4
18049.4
18049.4
18049.4
18049.4
18049.4
18049.4
18049.4
18049.4
18049.3
18049.1
18049.5
18051.3
18053.8
18051.2
18032.3
17999.1
18006.9
18182.8
18604.1
18940.2
18087.9
14549.2
8149
1752.58
-619.491
18049.7
18049.7
18049.7
18049.7
18049.7
18049.7
18049.7
18049.6
18049.6
18049.6
18049.7
18049.7
18049.6
18049.5
18050
18052.1
18054.5
18050.3
18028.7
17994.3
18004.9
18182.8
18596.8
18956.5
18324.6
15415.8
9869.47
3577.93
-199.945
-404.049
18049.8
18049.8
18049.8
18049.8
18049.8
18049.7
18049.7
18049.7
18049.8
18049.9
18049.9
18049.8
18049.6
18050.1
18052.3
18054.6
18049.4
18026.2
17990.9
18000.8
18172.1
18573
18960.2
18534.2
16157.5
11331.3
5307.2
751.378
-657.624
-136.893
18049.3
18049.3
18049.2
18049.2
18049.2
18049.2
18049.3
18049.4
18049.5
18049.5
18049.2
18048.8
18049.4
18051.7
18054
18048.4
18024.5
17988.5
17995.2
18154.7
18538.3
18949.7
18706.8
16788.4
12598.1
6925.24
1938.38
-458.459
-482.656
5.28229
18048.6
18048.6
18048.6
18048.6
18048.6
18048.7
18048.9
18049
18048.8
18048.3
18047.7
18048.3
18050.9
18053.5
18048.1
18024.4
17987.6
17989.3
18133.6
18496.3
18925.3
18840.4
17319.9
13703.1
8430.68
3241.45
60.3108
-656.975
-202.794
42.1165
18048.9
18048.9
18048.9
18049
18049.1
18049.3
18049.3
18048.9
18048.1
18047.4
18048.1
18051.2
18054.6
18049.9
18026.6
17988.9
17984.3
18111.1
18449.9
18888.9
18936.9
17762.2
14667
9823.24
4595.41
816.874
-620.239
-439.021
-21.4167
31.1836
18050.4
18050.4
18050.5
18050.7
18050.8
18050.6
18050
18048.9
18048.3
18049.4
18053.3
18057.6
18053.9
18031.1
17992
17980
18088
18400.8
18842.1
18999.5
18125
15504.9
11103.2
5958.02
1748.17
-368.603
-613.978
-175.109
44.9322
11.9998
18051.7
18051.9
18052
18051.9
18051.6
18050.7
18049.6
18049.3
18051.1
18056.1
18061.4
18058.3
18035.5
17994.5
17974.7
18063.6
18349.2
18786.2
19031.7
18416.5
16228.5
12271.5
7299.93
2803.8
81.7441
-674.597
-362.714
-10.0995
44.191
-0.0197647
18051.5
18051.5
18051.4
18050.9
18049.9
18049
18049.2
18052
18057.9
18064
18061
18037.5
17994.1
17966.4
18037
18295.5
18722.7
19037.4
18644.3
16847.4
13329.5
8599.59
3942.84
706.624
-593.882
-533.44
-124.353
49.1833
22.5723
-3.83
18049.2
18048.8
18048.2
18047.4
18046.9
18047.7
18051.4
18058.1
18064.2
18060.5
18035.6
17989.4
17954.7
18008.7
18241.4
18654.9
19021.8
18817
17371.2
14279.3
9840.55
5131.09
1478.94
-361.501
-646.573
-274.57
11.4356
46.4701
4.55805
-3.15353
18045.2
18044.6
18043.9
18043.9
18045.4
18049.8
18056.7
18062.1
18056.8
18029.9
17981.3
17941
17981.2
18190.5
18587.7
18991.8
18943.6
17809.8
15124.7
11010.9
6339.74
2370.64
21.6115
-672.079
-431.601
-70.7928
53.7807
24.0494
-3.64339
-1.3643
18041.2
18040.8
18041.2
18043.3
18048
18054.4
18058.3
18050.8
18021.9
17971.8
17928.2
17958.1
18147.3
18526.4
18954.4
19033.3
18172.9
15870.5
12102.6
7545.27
3354.55
546.724
-590.191
-566.143
-188.036
31.9482
44.901
5.18671
-4.64411
-0.091805
18039.6
18040.5
18042.9
18047.5
18052.9
18054.8
18044.9
18014.5
17964.4
17920.3
17943.9
18116.4
18476.5
18916.1
19094.2
18469
16521.2
13109.6
8728.37
4405.8
1200.7
-390.083
-652.446
-323.979
-23.7708
55.6853
21.7354
-3.74195
-2.73486
0.382347
18044.1
18047.1
18051
18055.1
18054.9
18042.9
18012
17963.7
17922.1
17943.1
18102.3
18442.3
18882.4
19133.4
18705.2
17080.1
14026.1
9871.81
5501.58
1968.7
-67.2014
-669.784
-459.69
-110.986
47.0633
40.4626
3.72164
-5.06887
-0.749639
0.353076
18058.3
18062.3
18064.7
18062.6
18049.3
18019.1
17974.5
17937.9
17959.3
18107.5
18426.3
18856.6
19155.7
18887.2
17549.8
14846.1
10958.8
6619.45
2834.67
379.274
-601.474
-576.178
-222.552
13.4217
54.2872
17.2795
-4.39272
-3.10284
0.304293
0.164926
18082.4
18084
18080.3
18066.4
18038.2
17998.9
17968.9
17992.7
18131.4
18427.5
18838.4
19163.1
19018.5
17931.7
15563.7
11972.4
7736.02
3780.21
946.973
-433.351
-654.444
-348.404
-47.6065
56.376
34.2737
1.06393
-5.25746
-0.885788
0.519633
0.013735
18110.5
18105.2
18091.8
18066.6
18033.5
18011
18037.8
18167.3
18438.9
18822.4
19152.9
19099.1
18225.5
16172
12895.7
8826.4
4783.35
1629.2
-153.751
-674.694
-475.452
-135.733
40.3388
50.6849
11.9604
-5.51987
-3.05979
0.376261
0.327493
-0.0494151
18129.8
18114.8
18093.5
18066.8
18051.8
18081.4
18201.4
18446.8
18796.5
19116.4
19124.2
18427.5
16663.4
13711.1
9864.13
5818.04
2413.55
244.991
-616.677
-586.677
-247.158
0.2665
60.9411
27.8344
-2.03109
-5.55982
-0.711653
0.684182
0.0764608
-0.0483647
18121.8
18099.6
18079.8
18071.3
18102.9
18212.5
18430.6
18742.2
19039.1
19084.2
18530.8
17028.1
14400.5
10821
6853.71
3280.76
764.565
-461.398
-661.098
-372.938
-67.9489
57.7056
46.2689
7.02843
-6.92192
-3.0253
0.625236
0.476079
-0.0765452
-0.0224646
18065.7
18046.3
18043.9
18076
18174.6
18365
18636.5
18902.2
18965.4
18525.8
17255.4
14945
11667.3
7855.18
4203.69
1398.55
-193.616
-675.03
-497.933
-164.36
32.912
61.9855
22.3423
-4.77199
-6.1
-0.55056
0.951225
0.153555
-0.116857
0.00156634
17941.9
17941
17972.8
18059.8
18223.1
18454.6
18684.8
18752.2
18401.3
17334.4
15327.1
12373.4
8783.58
5146.73
2130.07
194.889
-604.525
-600.854
-282.773
-20.001
67.0027
42.0018
3.33522
-8.20377
-3.22934
0.847889
0.706411
-0.0743409
-0.0895948
0.0139272
17734.2
17768
17843.1
17980.8
18174.1
18367.7
18430.4
18147.8
17256.8
15532.6
12912.6
9598.95
6066.9
2930.18
701.401
-429.305
-655.779
-409.209
-103.26
52.1191
60.682
18.3902
-6.61854
-6.73038
-0.61824
1.20472
0.311651
-0.163684
-0.0427534
0.0156705
17427
17504.3
17616.8
17775.4
17934.1
17987.1
17757.3
17016.9
15552.2
13263.4
10264.1
6917.25
3758.41
1309.05
-137.996
-635.837
-521.796
-211.854
9.57181
69.9573
38.461
1.22728
-9.04249
-3.6463
0.878644
0.954629
0.00363697
-0.153813
-0.00478519
0.0116633
17020.1
17136.1
17261.2
17388.6
17429.8
17240.2
16626.5
15393.1
13420.5
10753.9
7654.65
4567.27
1985.87
266.24
-519.6
-593.517
-331.63
-63.3233
60.1389
57.9047
16.1656
-7.34402
-7.26381
-0.939155
1.32598
0.518237
-0.151241
-0.101004
0.0155068
0.00628952
16446
16573.3
16666.5
16694.4
16535.5
16030
15004.6
13333.6
11012.8
8216.13
5293.14
2683.11
764.337
-294.512
-595.245
-438.846
-160.709
23.3415
67.6775
35.6994
0.776694
-9.21942
-4.15849
0.669945
1.13274
0.145806
-0.18112
-0.0457387
0.020772
0.00198376
15950.7
16068
16096.3
15979.9
15577.7
14735.9
13326.8
11311.3
8794.87
6044.5
3439.4
1356.81
34.2594
-521.357
-520.62
-274.62
-43.0298
59.9617
55.0749
16.0032
-6.91457
-7.70262
-1.52378
1.27855
0.7339
-0.0736551
-0.147607
-0.00777255
0.0178774
-0.000482667
14467.2
14434.5
14251.9
13822.4
13028.9
11778.8
10045.1
7907.39
5567.05
3316.1
1458.41
206.932
-395.36
-484.708
-303.9
-85.8031
38.6291
57.5764
26.3003
-1.58754
-8.43832
-3.62055
0.632935
1.09513
0.198952
-0.16976
-0.0693371
0.0167041
0.00945654
-0.00167821
)
;

boundaryField
{
    fixedWall_Bottom
    {
        type            greyDiffusiveRadiation;
        refValue        uniform 18049.5;
        refGradient     uniform 0;
        valueFraction   uniform 1;
        source          uniform 0;
        value           uniform 18049.5;
    }
    fixedWall_Right
    {
        type            greyDiffusiveRadiation;
        refValue        uniform 0;
        refGradient     uniform 0;
        valueFraction   uniform 1;
        source          uniform 0;
        value           uniform 0;
    }
    fixedWall_Left
    {
        type            greyDiffusiveRadiation;
        refValue        uniform 0;
        refGradient     uniform 0;
        valueFraction   uniform 0;
        source          uniform 0;
        value           nonuniform List<scalar> 
30
(
18049.5
18049.5
18049.4
18049.4
18049.7
18049.8
18049.3
18048.6
18048.9
18050.4
18051.7
18051.5
18049.2
18045.2
18041.2
18039.6
18044.1
18058.3
18082.4
18110.5
18129.8
18121.8
18065.7
17941.9
17734.2
17427
17020.1
16446
15950.7
14467.2
)
;
    }
    fixedWall_Top
    {
        type            greyDiffusiveRadiation;
        refValue        uniform 0;
        refGradient     uniform 0;
        valueFraction   uniform 0;
        source          uniform 0;
        value           nonuniform List<scalar> 
30
(
14467.2
14434.5
14251.9
13822.4
13028.9
11778.8
10045.1
7907.39
5567.05
3316.1
1458.41
206.932
-395.36
-484.708
-303.9
-85.8031
38.6291
57.5764
26.3003
-1.58754
-8.43832
-3.62055
0.632935
1.09513
0.198952
-0.16976
-0.0693371
0.0167041
0.00945654
-0.00167821
)
;
    }
    frontAndBack
    {
        type            empty;
    }
}


// ************************************************************************* //
