/*--------------------------------*- C++ -*----------------------------------*\
| =========                 |                                                 |
| \\      /  F ield         | OpenFOAM: The Open Source CFD Toolbox           |
|  \\    /   O peration     | Version:  2312                                  |
|   \\  /    A nd           | Website:  www.openfoam.com                      |
|    \\/     M anipulation  |                                                 |
\*---------------------------------------------------------------------------*/
FoamFile
{
    version     2.0;
    format      ascii;
    arch        "LSB;label=32;scalar=64";
    class       volScalarField;
    location    "0.045";
    object      ILambda_48_0;
}
// * * * * * * * * * * * * * * * * * * * * * * * * * * * * * * * * * * * * * //

dimensions      [1 0 -3 0 0 0 0];

internalField   nonuniform List<scalar> 
900
(
17467.5
17228.5
17074.9
16881.9
16675.3
16448
16200
15929.5
15635.3
15315.7
14969.3
14594.4
14189.2
13752
13280.9
12774.1
12229.4
11644.8
11018.2
10347.2
9629.58
8862.9
8044.66
7172.28
6243.09
5254.36
4203.28
3087.12
1903.68
653.234
9493.32
8715.62
8286.55
7766.09
7257.34
6738.29
6215.75
5690.27
5163.99
4638.95
4117.48
3602.1
3095.56
2600.84
2121.14
1659.96
1221.01
808.322
426.214
79.3076
-227.45
-488.785
-699.081
-852.365
-942.297
-962.166
-904.92
-763.331
-530.716
-203.954
1500.56
981.526
736.619
447.461
192.558
-45.7125
-262.01
-456.51
-628.229
-776.586
-901.087
-1001.42
-1077.47
-1129.35
-1157.38
-1162.2
-1144.68
-1106.05
-1047.86
-972.033
-880.929
-777.34
-664.545
-546.345
-427.092
-311.739
-205.851
-115.58
-47.3804
-6.77054
-1169.61
-1203.85
-1197.24
-1186.82
-1162.32
-1127.91
-1083.65
-1030.86
-970.591
-904.059
-832.518
-757.279
-679.686
-601.104
-522.889
-446.377
-372.851
-303.526
-239.516
-181.81
-131.237
-88.4243
-53.7564
-27.3308
-8.90939
2.13177
6.85545
6.80806
4.02086
0.842221
-693.524
-590.121
-535.877
-471.922
-412.496
-355.09
-300.845
-250.056
-203.122
-160.349
-121.976
-88.1653
-58.9964
-34.4604
-14.46
1.18965
12.7564
20.5851
25.0898
26.7447
26.0732
23.6332
19.9986
15.7356
11.3753
7.38249
4.12017
1.81037
0.495026
0.0086675
-71.8781
-31.5218
-16.2339
1.45994
14.731
25.5038
33.5555
39.2053
42.6685
44.2019
44.069
42.5434
39.9021
36.4203
32.364
27.9834
23.5066
19.134
15.0345
11.3416
8.15139
5.52042
3.46517
1.96324
0.957225
0.361458
0.0716032
-0.0228127
-0.022901
-0.00317793
56.9556
53.5469
50.2103
46.3827
42.153
37.753
33.2747
28.8453
24.5606
20.5063
16.7516
13.3506
10.3408
7.7433
5.56271
3.78856
2.39694
1.35299
0.613652
0.130455
-0.147739
-0.272091
-0.291117
-0.248012
-0.178246
-0.107821
-0.0525116
-0.0182886
-0.00303128
0.000355106
20.6906
15.0012
12.5544
9.75107
7.45849
5.46759
3.8065
2.44628
1.3647
0.534852
-0.0720162
-0.486272
-0.739141
-0.861855
-0.884649
-0.835705
-0.740205
-0.619602
-0.491217
-0.368144
-0.259397
-0.170217
-0.102499
-0.055339
-0.0257589
-0.00958286
-0.00234254
-6.64341e-05
0.000170167
1.44116e-05
-0.413047
-1.29615
-1.4452
-1.63636
-1.67848
-1.65319
-1.56508
-1.4354
-1.27842
-1.10719
-0.932447
-0.762954
-0.605502
-0.464934
-0.344197
-0.244476
-0.165428
-0.105504
-0.0623273
-0.0330613
-0.0147263
-0.00444546
0.000372731
0.00189676
0.00177701
0.00111233
0.000496804
0.000137848
8.87522e-06
-4.46283e-06
-1.66498
-1.31754
-1.13393
-0.933669
-0.756958
-0.599913
-0.463807
-0.348481
-0.25295
-0.175849
-0.115459
-0.0698443
-0.0369163
-0.0145113
-0.000473629
0.00724736
0.0105004
0.0108545
0.00955487
0.0075191
0.00536757
0.00347271
0.00201261
0.00102107
0.000435425
0.000144003
2.96164e-05
-2.08169e-07
-1.84866e-06
-2.19911e-08
-0.265324
-0.130613
-0.0905851
-0.0438925
-0.0141371
0.00713206
0.020466
0.0279063
0.0308993
0.0307129
0.0283885
0.0247781
0.0205639
0.0162716
0.0122784
0.00882242
0.00601694
0.00387377
0.00233297
0.0012941
0.000643281
0.000271661
8.53803e-05
9.59348e-06
-1.02658e-05
-8.87884e-06
-3.8115e-06
-8.32373e-07
1.88953e-08
3.22223e-08
0.0630816
0.0597636
0.0526272
0.0460536
0.0386953
0.0318057
0.025436
0.0198193
0.0150073
0.0110058
0.00777521
0.00525109
0.00335305
0.00199024
0.00106589
0.000482405
0.000147535
-1.95031e-05
-8.35011e-05
-9.16047e-05
-7.47095e-05
-5.09286e-05
-2.95601e-05
-1.43118e-05
-5.47647e-06
-1.47877e-06
-1.9966e-07
1.9802e-08
1.06486e-08
6.60672e-10
0.0251873
0.0155548
0.0120359
0.00824827
0.00553747
0.00348683
0.00201694
0.00100042
0.000331016
-7.9701e-05
-0.000303191
-0.000396018
-0.000402796
-0.000358481
-0.000289805
-0.000216007
-0.000149363
-9.60146e-05
-5.73175e-05
-3.15861e-05
-1.58092e-05
-6.92185e-06
-2.43355e-06
-5.32411e-07
3.62255e-08
8.02027e-08
2.3179e-08
-1.05984e-09
-4.05998e-10
4.79371e-10
0.000103625
-0.001107
-0.00111301
-0.00122668
-0.00114305
-0.001015
-0.000855325
-0.000693606
-0.000543131
-0.00041116
-0.000300263
-0.000210482
-0.000140539
-8.84394e-05
-5.17185e-05
-2.75582e-05
-1.29641e-05
-5.03909e-06
-1.2863e-06
1.73542e-07
5.51885e-07
5.06612e-07
3.39634e-07
1.75534e-07
6.30857e-08
1.01594e-08
-2.41815e-09
-7.49719e-10
5.19046e-10
2.14355e-11
-0.00128183
-0.000895291
-0.000697376
-0.000510601
-0.000361522
-0.000247877
-0.000163499
-0.000103382
-6.18128e-05
-3.40117e-05
-1.61215e-05
-5.23974e-06
7.71609e-07
3.50108e-06
4.16046e-06
3.68062e-06
2.74391e-06
1.79168e-06
1.04453e-06
5.53137e-07
2.70729e-07
1.2228e-07
4.7598e-08
1.2396e-08
-5.2968e-10
-2.1195e-09
-4.98989e-10
2.97297e-10
1.15547e-10
-4.03167e-11
-0.000168609
-5.13035e-05
-2.84719e-05
-1.27816e-06
1.04967e-05
1.5855e-05
1.66835e-05
1.52176e-05
1.27929e-05
1.01824e-05
7.763e-06
5.67898e-06
3.96338e-06
2.60816e-06
1.59196e-06
8.82642e-07
4.33061e-07
1.81888e-07
6.26858e-08
1.67948e-08
2.98009e-09
-6.57954e-10
-1.8692e-09
-1.94179e-09
-1.14039e-09
-2.47757e-10
1.29843e-10
8.25164e-11
-1.14557e-11
-8.97844e-12
3.79899e-05
3.38729e-05
2.6382e-05
2.06629e-05
1.49972e-05
1.05349e-05
7.0933e-06
4.61818e-06
2.91276e-06
1.77826e-06
1.04036e-06
5.6799e-07
2.72477e-07
9.70742e-08
4.37441e-09
-3.32633e-08
-3.83128e-08
-2.86204e-08
-1.63142e-08
-7.37127e-09
-2.83935e-09
-1.21469e-09
-7.03614e-10
-3.6851e-10
-7.93175e-11
5.25986e-11
4.11628e-11
3.15047e-13
-7.76738e-12
1.14862e-13
1.18323e-05
5.76998e-06
3.8346e-06
2.01678e-06
9.33083e-07
3.05095e-07
-1.25557e-08
-1.40858e-07
-1.69888e-07
-1.55554e-07
-1.28091e-07
-1.00326e-07
-7.58026e-08
-5.46135e-08
-3.65338e-08
-2.19034e-08
-1.12415e-08
-4.60041e-09
-1.29709e-09
-1.55844e-10
-6.33029e-12
-7.6578e-11
-7.6128e-11
-1.75463e-11
2.04508e-11
1.75523e-11
2.0397e-12
-3.49673e-12
-1.04921e-12
4.17956e-13
-1.9392e-07
-7.69279e-07
-6.41055e-07
-5.9137e-07
-4.60427e-07
-3.36376e-07
-2.28772e-07
-1.47121e-07
-9.06985e-08
-5.46001e-08
-3.26734e-08
-1.9524e-08
-1.13865e-08
-6.1161e-09
-2.70285e-09
-6.90411e-10
2.43897e-10
4.59125e-10
3.25858e-10
1.29683e-10
1.09343e-11
-1.8144e-11
-5.18261e-12
7.14968e-12
6.71463e-12
1.26705e-12
-1.30401e-12
-7.08149e-13
1.13187e-13
8.06841e-14
-4.8662e-07
-3.04226e-07
-2.05166e-07
-1.27081e-07
-7.04688e-08
-3.501e-08
-1.44695e-08
-4.25498e-09
-9.5452e-11
1.04874e-09
1.05263e-09
8.3568e-10
6.95257e-10
6.26094e-10
5.48888e-10
4.23642e-10
2.68365e-10
1.27585e-10
3.47459e-11
-5.2956e-12
-1.02276e-11
-2.92856e-12
2.26701e-12
2.41056e-12
5.64814e-13
-4.53988e-13
-3.36791e-13
-4.42183e-16
6.32524e-14
-1.6442e-16
-4.76799e-08
-2.80067e-09
3.19802e-09
9.37935e-09
9.999e-09
8.52459e-09
6.24557e-09
4.05547e-09
2.37471e-09
1.28199e-09
6.71277e-10
3.73049e-10
2.35433e-10
1.59868e-10
1.01772e-10
5.2186e-11
1.59721e-11
-3.20756e-12
-8.0095e-12
-5.2182e-12
-1.22799e-12
7.97663e-13
8.42727e-13
2.08478e-13
-1.56249e-13
-1.35717e-13
-1.43234e-14
2.63068e-14
7.90844e-15
-2.95817e-15
1.19799e-08
1.06282e-08
7.42799e-09
5.2155e-09
3.19059e-09
1.76519e-09
8.38851e-10
3.19427e-10
7.75139e-11
-4.16009e-12
-1.29992e-11
-1.75927e-12
6.02465e-12
5.69082e-12
1.01767e-12
-3.2119e-12
-4.6587e-12
-3.63708e-12
-1.7103e-12
-2.25873e-13
3.54645e-13
2.96067e-13
6.6661e-14
-5.55574e-14
-5.01235e-14
-8.42699e-15
9.29985e-15
4.85397e-15
-6.87406e-16
-5.4757e-16
2.95864e-09
1.22288e-09
6.25034e-10
1.77659e-10
-5.40197e-11
-1.3888e-10
-1.41891e-10
-1.07531e-10
-6.61573e-11
-3.3081e-11
-1.28126e-11
-3.50646e-12
-9.25585e-13
-1.11383e-12
-1.61427e-12
-1.53093e-12
-9.63778e-13
-3.36102e-13
5.24557e-14
1.57227e-13
9.92982e-14
1.74257e-14
-2.03119e-14
-1.73593e-14
-3.42299e-15
3.09418e-15
2.11923e-15
1.55328e-17
-3.7396e-16
-6.74989e-18
-5.51556e-11
-2.18021e-10
-1.76212e-10
-1.49981e-10
-1.06519e-10
-6.71247e-11
-3.64561e-11
-1.61174e-11
-4.82988e-12
2.1382e-14
1.16945e-12
7.60271e-13
9.58887e-14
-2.79154e-13
-3.15352e-13
-1.74071e-13
-2.31046e-14
5.42787e-14
5.84721e-14
2.92001e-14
2.59375e-15
-7.58291e-15
-5.70525e-15
-1.11372e-15
1.03074e-15
7.97013e-16
8.03104e-17
-1.43429e-16
-4.52821e-17
1.47989e-17
-9.70389e-11
-6.21728e-11
-3.73409e-11
-2.03517e-11
-8.28949e-12
-1.54691e-12
1.53298e-12
2.28595e-12
1.88269e-12
1.13253e-12
4.81984e-13
8.95368e-14
-6.44791e-14
-7.32234e-14
-2.96449e-14
8.6229e-15
2.25807e-14
1.77583e-14
7.03713e-15
-5.44262e-16
-2.77305e-15
-1.77291e-15
-2.95636e-16
3.49027e-16
2.7446e-16
4.27535e-17
-4.72932e-17
-2.47721e-17
2.58003e-18
2.7499e-18
-9.33216e-12
-3.6719e-13
1.30022e-12
2.3547e-12
2.35495e-12
1.86158e-12
1.235e-12
6.79138e-13
2.86401e-13
6.34054e-14
-2.9115e-14
-4.41714e-14
-2.72451e-14
-6.97788e-15
4.68926e-15
7.1363e-15
4.57841e-15
1.26821e-15
-6.25232e-16
-9.51257e-16
-5.09779e-16
-5.52871e-17
1.19906e-16
8.86744e-17
1.58238e-17
-1.49157e-17
-9.97889e-18
-3.37672e-19
1.60701e-18
8.87101e-20
1.63452e-12
1.72577e-12
1.19176e-12
8.20823e-13
4.7417e-13
2.25735e-13
7.05956e-14
-8.10215e-15
-3.47754e-14
-3.30193e-14
-2.07102e-14
-8.52775e-15
-8.44035e-16
2.1485e-15
2.15501e-15
1.0695e-15
1.10903e-16
-3.08074e-16
-2.98701e-16
-1.31937e-16
-8.38684e-19
4.09553e-17
2.71317e-17
4.72267e-18
-4.70835e-18
-3.50685e-18
-4.21452e-19
5.58169e-19
2.01773e-19
-5.13179e-20
4.31946e-13
2.05608e-13
9.44036e-14
2.44178e-14
-1.44223e-14
-2.8093e-14
-2.74326e-14
-2.01983e-14
-1.18032e-14
-5.12622e-15
-1.06784e-15
6.94337e-16
9.91156e-16
6.4738e-16
2.20911e-16
-4.12216e-17
-1.16834e-16
-8.48926e-17
-2.9201e-17
5.52775e-18
1.35489e-17
7.80908e-18
1.12069e-18
-1.51213e-18
-1.13477e-18
-1.92307e-19
1.70418e-19
9.73706e-20
-4.13067e-21
-1.04311e-20
8.51937e-15
-2.06963e-14
-2.00826e-14
-1.83662e-14
-1.38076e-14
-8.85545e-15
-4.71885e-15
-1.8522e-15
-2.34143e-16
4.32851e-16
5.24016e-16
3.63315e-16
1.63965e-16
2.57977e-17
-3.374e-17
-3.87799e-17
-2.16856e-17
-4.83017e-18
3.41283e-18
4.25613e-18
2.08617e-18
1.72538e-19
-4.91236e-19
-3.46344e-19
-6.5616e-20
5.03852e-20
3.6145e-20
3.11229e-21
-5.00414e-21
-5.91289e-22
-9.4489e-15
-6.9895e-15
-4.13012e-15
-2.25343e-15
-8.73611e-16
-7.76108e-17
2.82795e-16
3.59953e-16
2.91609e-16
1.78592e-16
7.92414e-17
1.60467e-17
-1.20183e-17
-1.67407e-17
-1.10737e-17
-4.05339e-18
2.94561e-19
1.62577e-18
1.2282e-18
4.37088e-19
-5.60229e-20
-1.6969e-19
-9.58775e-20
-1.27761e-20
1.72145e-20
1.16882e-20
1.4411e-21
-1.69319e-21
-6.64697e-22
1.34876e-22
)
;

boundaryField
{
    fixedWall_Bottom
    {
        type            greyDiffusiveRadiation;
        refValue        uniform 18049.5;
        refGradient     uniform 0;
        valueFraction   uniform 1;
        source          uniform 0;
        value           uniform 18049.5;
    }
    fixedWall_Right
    {
        type            greyDiffusiveRadiation;
        refValue        uniform 0;
        refGradient     uniform 0;
        valueFraction   uniform 1;
        source          uniform 0;
        value           uniform 0;
    }
    fixedWall_Left
    {
        type            greyDiffusiveRadiation;
        refValue        uniform 0;
        refGradient     uniform 0;
        valueFraction   uniform 0;
        source          uniform 0;
        value           nonuniform List<scalar> 
30
(
17467.5
9493.32
1500.56
-1169.61
-693.524
-71.8781
56.9556
20.6906
-0.413047
-1.66498
-0.265324
0.0630816
0.0251873
0.000103625
-0.00128183
-0.000168609
3.79899e-05
1.18323e-05
-1.9392e-07
-4.8662e-07
-4.76799e-08
1.19799e-08
2.95864e-09
-5.51556e-11
-9.70389e-11
-9.33216e-12
1.63452e-12
4.31946e-13
8.51937e-15
-9.4489e-15
)
;
    }
    fixedWall_Top
    {
        type            greyDiffusiveRadiation;
        refValue        uniform 0;
        refGradient     uniform 0;
        valueFraction   uniform 0;
        source          uniform 0;
        value           nonuniform List<scalar> 
30
(
-9.4489e-15
-6.9895e-15
-4.13012e-15
-2.25343e-15
-8.73611e-16
-7.76108e-17
2.82795e-16
3.59953e-16
2.91609e-16
1.78592e-16
7.92414e-17
1.60467e-17
-1.20183e-17
-1.67407e-17
-1.10737e-17
-4.05339e-18
2.94561e-19
1.62577e-18
1.2282e-18
4.37088e-19
-5.60229e-20
-1.6969e-19
-9.58775e-20
-1.27761e-20
1.72145e-20
1.16882e-20
1.4411e-21
-1.69319e-21
-6.64697e-22
1.34876e-22
)
;
    }
    frontAndBack
    {
        type            empty;
    }
}


// ************************************************************************* //
