/*--------------------------------*- C++ -*----------------------------------*\
| =========                 |                                                 |
| \\      /  F ield         | OpenFOAM: The Open Source CFD Toolbox           |
|  \\    /   O peration     | Version:  2312                                  |
|   \\  /    A nd           | Website:  www.openfoam.com                      |
|    \\/     M anipulation  |                                                 |
\*---------------------------------------------------------------------------*/
FoamFile
{
    version     2.0;
    format      ascii;
    arch        "LSB;label=32;scalar=64";
    class       volScalarField;
    location    "0.045";
    object      ILambda_15_0;
}
// * * * * * * * * * * * * * * * * * * * * * * * * * * * * * * * * * * * * * //

dimensions      [1 0 -3 0 0 0 0];

internalField   nonuniform List<scalar> 
900
(
653.234
1903.68
3087.12
4203.28
5254.36
6243.09
7172.28
8044.66
8862.9
9629.58
10347.2
11018.2
11644.8
12229.4
12774.1
13280.9
13752
14189.2
14594.4
14969.3
15315.7
15635.3
15929.5
16200
16448
16675.3
16881.9
17074.9
17228.5
17467.5
-203.954
-530.716
-763.331
-904.92
-962.166
-942.297
-852.365
-699.081
-488.785
-227.45
79.3076
426.213
808.322
1221.01
1659.96
2121.14
2600.84
3095.56
3602.1
4117.48
4638.95
5163.99
5690.27
6215.75
6738.28
7257.34
7766.09
8286.56
8715.63
9493.33
-6.77054
-47.3804
-115.58
-205.851
-311.739
-427.092
-546.345
-664.545
-777.34
-880.929
-972.033
-1047.86
-1106.05
-1144.68
-1162.2
-1157.38
-1129.35
-1077.47
-1001.42
-901.088
-776.588
-628.23
-456.51
-262.009
-45.7084
192.563
447.468
736.618
981.53
1500.54
0.842221
4.02086
6.80806
6.85545
2.13177
-8.90939
-27.3308
-53.7564
-88.4243
-131.237
-181.81
-239.516
-303.526
-372.852
-446.377
-522.889
-601.103
-679.686
-757.278
-832.518
-904.06
-970.592
-1030.86
-1083.65
-1127.9
-1162.32
-1186.81
-1197.23
-1203.85
-1169.63
0.00866738
0.495026
1.81037
4.12016
7.38249
11.3753
15.7356
19.9986
23.6332
26.0732
26.7447
25.0898
20.5851
12.7563
1.18945
-14.4602
-34.4603
-58.9959
-88.1646
-121.975
-160.349
-203.123
-250.058
-300.847
-355.092
-412.495
-471.918
-535.868
-590.114
-693.508
-0.00317798
-0.0229009
-0.0228125
0.0716025
0.361457
0.957227
1.96325
3.46517
5.5204
8.15137
11.3416
15.0345
19.1341
23.5066
27.9833
32.3638
36.4201
39.9022
42.5437
44.0696
44.2025
42.6687
39.2044
33.5534
25.5006
14.728
1.45796
-16.2307
-31.5155
-71.8598
0.000355107
-0.00303129
-0.0182884
-0.0525116
-0.107822
-0.178247
-0.248009
-0.291112
-0.272091
-0.147749
0.130439
0.613651
1.35302
2.39699
3.78859
5.56267
7.74317
10.3407
13.3506
16.7518
20.5067
24.5612
28.8458
33.2746
37.752
42.1508
46.3796
50.2071
53.5458
56.9581
1.44196e-05
0.000170144
-6.63837e-05
-0.00234239
-0.00958306
-0.0257597
-0.0553392
-0.102498
-0.170214
-0.259397
-0.368152
-0.491227
-0.619602
-0.740186
-0.83567
-0.884623
-0.861874
-0.739226
-0.486405
-0.0721256
0.534877
1.36495
2.4468
3.80714
5.46808
7.45837
9.75003
12.5517
14.9981
20.6858
-4.46e-06
8.86613e-06
0.000137837
0.000496881
0.00111242
0.00177681
0.00189624
0.000372683
-0.00444419
-0.0147244
-0.0330614
-0.0623315
-0.10551
-0.16543
-0.244467
-0.344175
-0.464911
-0.6055
-0.762993
-0.93253
-1.10729
-1.27847
-1.43532
-1.56481
-1.65272
-1.67795
-1.63599
-1.44544
-1.29716
-0.415626
-2.1884e-08
-1.84905e-06
-2.18514e-07
2.96243e-05
0.000144063
0.000435454
0.00102091
0.00201231
0.00347274
0.00536834
0.00752022
0.00955493
0.0108522
0.0104962
0.00724464
-0.000470244
-0.0144994
-0.0368995
-0.0698338
-0.11547
-0.175893
-0.253023
-0.348555
-0.463835
-0.599834
-0.756721
-0.93328
-1.13343
-1.3172
-1.66495
3.20008e-08
1.97849e-08
-8.35122e-07
-3.81798e-06
-8.86863e-06
-1.02293e-05
9.60272e-06
8.52839e-05
0.000271501
0.000643289
0.0012945
0.00233359
0.00387396
0.00601592
0.00882018
0.0122763
0.0162721
0.0205692
0.0247879
0.0283983
0.0307145
0.0308833
0.0278675
0.0204102
0.00707967
-0.0141479
-0.0438229
-0.090375
-0.130304
-0.264867
5.84922e-10
1.09648e-08
1.99014e-08
-2.02448e-07
-1.48142e-06
-5.46798e-06
-1.42919e-05
-2.95588e-05
-5.09818e-05
-7.47942e-05
-9.16106e-05
-8.33126e-05
-1.91626e-05
0.000147732
0.000482041
0.00106478
0.00198881
0.00335245
0.00525277
0.00777995
0.0110127
0.0150128
0.019818
0.0254222
0.0317766
0.0386548
0.0460147
0.0526133
0.0598088
0.0632212
4.73381e-10
-3.82267e-10
-7.81205e-10
2.29203e-08
7.84756e-08
3.53478e-08
-5.27469e-07
-2.42391e-06
-6.92158e-06
-1.58344e-05
-3.1628e-05
-5.73283e-05
-9.59365e-05
-0.000149196
-0.000215863
-0.000289888
-0.000358953
-0.000403589
-0.000396693
-0.000302998
-7.7895e-05
0.000334632
0.00100493
0.00202
0.00348493
0.0055268
0.00822718
0.0120039
0.015525
0.0251688
2.47651e-11
5.03189e-10
-6.77578e-10
-2.27923e-09
9.88147e-09
6.2164e-08
1.75288e-07
3.42199e-07
5.11249e-07
5.52392e-07
1.62527e-07
-1.30669e-06
-5.04979e-06
-1.29372e-05
-2.74826e-05
-5.16288e-05
-8.84221e-05
-0.000140695
-0.000210848
-0.000300725
-0.000411416
-0.00054275
-0.000692217
-0.000852905
-0.00101215
-0.00114123
-0.00122788
-0.00111993
-0.00112082
8.2287e-05
-3.90869e-11
1.09549e-10
2.97291e-10
-4.44313e-10
-2.0696e-09
-7.05761e-10
1.19687e-08
4.75348e-08
1.23451e-07
2.72832e-07
5.53664e-07
1.04018e-06
1.7824e-06
2.73656e-06
3.68759e-06
4.191e-06
3.54835e-06
8.04261e-07
-5.27162e-06
-1.62608e-05
-3.42542e-05
-6.20697e-05
-0.000103468
-0.000163171
-0.000246926
-0.000359921
-0.000508684
-0.000695784
-0.000895669
-0.00128553
-8.85351e-12
-1.20877e-11
7.80956e-11
1.35138e-10
-2.1741e-10
-1.12474e-09
-2.03246e-09
-2.05959e-09
-6.89735e-10
3.46508e-09
1.77277e-08
6.31322e-08
1.80417e-07
4.29157e-07
8.7836e-07
1.59222e-06
2.61836e-06
3.98444e-06
5.70226e-06
7.76872e-06
1.01453e-05
1.26961e-05
1.50717e-05
1.65439e-05
1.58259e-05
1.07178e-05
-6.93975e-07
-2.74419e-05
-5.0048e-05
-0.000167525
8.39359e-14
-7.59218e-12
-7.51414e-13
3.93356e-11
5.69336e-11
-6.52782e-11
-3.64285e-10
-7.44568e-10
-1.29557e-09
-2.86021e-09
-7.18681e-09
-1.59182e-08
-2.83312e-08
-3.87165e-08
-3.47679e-08
2.21483e-09
9.59741e-08
2.74988e-07
5.7595e-07
1.0526e-06
1.78874e-06
2.91054e-06
4.59066e-06
7.03297e-06
1.0448e-05
1.4913e-05
2.06356e-05
2.64839e-05
3.42016e-05
3.85665e-05
4.0529e-13
-9.75254e-13
-3.52217e-12
1.3379e-12
1.6945e-11
2.28312e-11
-1.15677e-11
-7.47032e-11
-9.31039e-11
-3.96593e-11
-1.70404e-10
-1.2353e-09
-4.44296e-09
-1.10823e-08
-2.19619e-08
-3.70362e-08
-5.555e-08
-7.66874e-08
-1.00166e-07
-1.25748e-07
-1.50533e-07
-1.6333e-07
-1.36266e-07
-1.56581e-08
2.8782e-07
8.97345e-07
1.96549e-06
3.77769e-06
5.74305e-06
1.18784e-05
7.91704e-14
1.21915e-13
-6.64258e-13
-1.37304e-12
9.24255e-13
6.54639e-12
8.24703e-12
-2.76333e-12
-1.74933e-11
4.79379e-12
1.16364e-10
3.17034e-10
4.76763e-10
3.02194e-10
-6.13165e-10
-2.68044e-09
-6.25143e-09
-1.17376e-08
-2.00008e-08
-3.29646e-08
-5.42059e-08
-8.91286e-08
-1.44252e-07
-2.25277e-07
-3.34028e-07
-4.62133e-07
-6.00394e-07
-6.60321e-07
-7.99114e-07
-2.25557e-07
-2.93238e-18
6.20325e-14
1.02342e-14
-3.20767e-13
-5.00127e-13
4.20097e-13
2.36403e-12
2.71031e-12
-1.98599e-12
-9.85916e-12
-7.34961e-12
2.96921e-11
1.22942e-10
2.71958e-10
4.42997e-10
5.81685e-10
6.51179e-10
6.73231e-10
7.26802e-10
8.52035e-10
8.2681e-10
-1.71096e-10
-3.94344e-09
-1.35469e-08
-3.34211e-08
-6.85188e-08
-1.25607e-07
-2.05409e-07
-3.08547e-07
-4.96286e-07
-2.87055e-15
7.30899e-15
2.68042e-14
-8.20255e-15
-1.31134e-13
-1.79e-13
1.51661e-13
8.27105e-13
9.6122e-13
-8.7019e-13
-5.01078e-12
-8.61499e-12
-5.01659e-12
1.37877e-11
5.21784e-11
1.07259e-10
1.72096e-10
2.49833e-10
3.77077e-10
6.46959e-10
1.2152e-09
2.27017e-09
3.95255e-09
6.22599e-09
8.70225e-09
1.04861e-08
1.02121e-08
4.30712e-09
-1.80823e-09
-4.76638e-08
-5.35198e-16
-7.66944e-16
4.55907e-15
9.93134e-15
-5.73311e-15
-4.89945e-14
-6.50139e-14
4.54091e-14
2.8906e-13
4.09668e-13
-9.53542e-14
-1.60476e-12
-3.78249e-12
-5.25459e-12
-4.12557e-12
5.21667e-13
6.86583e-12
9.9406e-12
4.51724e-12
-7.49409e-12
-5.69464e-12
6.10959e-11
2.82776e-10
7.85256e-10
1.7129e-09
3.17703e-09
5.29368e-09
7.65374e-09
1.10637e-08
1.2534e-08
-7.02991e-18
-3.69686e-16
-6.0106e-17
2.02915e-15
3.45773e-15
-2.37221e-15
-1.70773e-14
-2.38358e-14
9.69455e-15
9.56642e-14
1.73926e-13
9.78824e-14
-2.87409e-13
-9.83677e-13
-1.70537e-12
-1.95446e-12
-1.44612e-12
-8.46125e-13
-2.50379e-12
-1.06124e-11
-3.01491e-11
-6.41454e-11
-1.09331e-10
-1.50948e-10
-1.57594e-10
-8.13235e-11
1.49348e-10
6.09471e-10
1.2503e-09
3.0602e-09
1.43863e-17
-4.19251e-17
-1.48545e-16
4.2393e-17
7.76314e-16
1.19163e-15
-7.30956e-16
-5.61365e-15
-8.78344e-15
-1.32379e-16
2.73834e-14
6.28944e-14
6.91183e-14
-2.86528e-15
-1.6919e-13
-3.58026e-13
-3.90717e-13
-5.79747e-14
6.71613e-13
1.33203e-12
6.31277e-13
-3.71137e-12
-1.47561e-11
-3.56089e-11
-6.80631e-11
-1.10813e-10
-1.58842e-10
-1.89897e-10
-2.34508e-10
-6.42433e-11
2.67992e-18
3.0961e-18
-2.34627e-17
-5.16384e-17
2.75237e-17
2.70772e-16
4.10691e-16
-1.61129e-16
-1.73042e-15
-3.14739e-15
-1.47078e-15
6.19942e-15
1.86683e-14
2.70179e-14
1.61949e-14
-2.41306e-14
-8.0264e-14
-9.54738e-14
3.26355e-14
4.20167e-13
1.11895e-12
1.9972e-12
2.60563e-12
2.07611e-12
-8.93302e-13
-7.83898e-12
-2.06427e-11
-3.90325e-11
-6.626e-11
-1.03242e-10
8.63353e-20
1.61024e-18
4.8262e-20
-9.68509e-18
-1.70836e-17
1.03353e-17
8.81213e-17
1.41326e-16
-9.27493e-18
-4.88121e-16
-1.05697e-15
-9.25444e-16
9.17007e-16
4.65603e-15
8.3092e-15
7.22781e-15
-4.0841e-15
-2.69251e-14
-5.08158e-14
-4.62964e-14
3.70454e-14
2.61878e-13
6.79925e-13
1.29454e-12
2.01264e-12
2.60981e-12
2.67526e-12
1.58795e-12
-3.51064e-13
-9.98312e-12
-5.00693e-20
1.88896e-19
5.93332e-19
-2.51187e-19
-3.47421e-18
-5.58203e-18
2.84794e-18
2.69651e-17
4.78037e-17
1.44667e-17
-1.21502e-16
-3.246e-16
-3.9914e-16
-2.25546e-17
1.01856e-15
2.40716e-15
2.89521e-15
3.06639e-16
-7.63359e-15
-2.14174e-14
-3.70356e-14
-4.32245e-14
-2.00012e-14
6.00235e-14
2.26112e-13
4.99467e-13
8.85672e-13
1.30595e-12
1.89014e-12
1.77449e-12
-1.01554e-20
-6.5238e-21
9.39825e-20
1.92954e-19
-1.30283e-19
-1.14186e-18
-1.8239e-18
4.98145e-19
7.69428e-18
1.55709e-17
1.04456e-17
-2.46364e-17
-8.97828e-17
-1.42133e-16
-8.71532e-17
1.82022e-16
6.7955e-16
1.17562e-15
1.06957e-15
-5.99695e-16
-4.88767e-15
-1.23557e-14
-2.22031e-14
-3.13053e-14
-3.34687e-14
-1.95324e-14
2.32292e-14
1.02273e-13
2.3115e-13
4.78207e-13
-5.69709e-22
-5.12882e-21
1.69148e-21
3.59619e-20
6.02852e-20
-4.49437e-20
-3.51766e-19
-5.93252e-19
-2.99527e-20
2.01265e-18
4.79993e-18
4.91905e-18
-3.0264e-18
-2.20227e-17
-4.49688e-17
-4.79085e-17
8.14101e-18
1.58661e-16
3.97195e-16
6.24128e-16
6.02779e-16
-4.67571e-17
-1.78385e-15
-4.99299e-15
-9.73669e-15
-1.54912e-14
-2.07858e-14
-2.27805e-14
-2.24047e-14
1.08431e-14
1.3277e-22
-6.34246e-22
-1.85869e-21
8.94891e-22
1.18943e-20
2.08388e-20
-6.00138e-21
-9.71053e-20
-2.00193e-19
-1.21391e-19
3.94057e-19
1.34927e-18
2.05659e-18
9.61067e-19
-3.72159e-18
-1.22084e-17
-2.05374e-17
-1.84815e-17
9.83905e-18
8.04045e-17
1.97723e-16
3.3857e-16
4.35498e-16
3.67245e-16
-3.49649e-17
-9.5892e-16
-2.57717e-15
-4.79638e-15
-8.0993e-15
-1.0678e-14
)
;

boundaryField
{
    fixedWall_Bottom
    {
        type            greyDiffusiveRadiation;
        refValue        uniform 18049.5;
        refGradient     uniform 0;
        valueFraction   uniform 1;
        source          uniform 0;
        value           uniform 18049.5;
    }
    fixedWall_Right
    {
        type            greyDiffusiveRadiation;
        refValue        uniform 0;
        refGradient     uniform 0;
        valueFraction   uniform 0;
        source          uniform 0;
        value           nonuniform List<scalar> 
30
(
17467.5
9493.33
1500.54
-1169.63
-693.508
-71.8598
56.9581
20.6858
-0.415626
-1.66495
-0.264867
0.0632212
0.0251688
8.2287e-05
-0.00128553
-0.000167525
3.85665e-05
1.18784e-05
-2.25557e-07
-4.96286e-07
-4.76638e-08
1.2534e-08
3.0602e-09
-6.42433e-11
-1.03242e-10
-9.98312e-12
1.77449e-12
4.78207e-13
1.08431e-14
-1.0678e-14
)
;
    }
    fixedWall_Left
    {
        type            greyDiffusiveRadiation;
        refValue        uniform 0;
        refGradient     uniform 0;
        valueFraction   uniform 1;
        source          uniform 0;
        value           uniform 0;
    }
    fixedWall_Top
    {
        type            greyDiffusiveRadiation;
        refValue        uniform 0;
        refGradient     uniform 0;
        valueFraction   uniform 0;
        source          uniform 0;
        value           nonuniform List<scalar> 
30
(
1.3277e-22
-6.34246e-22
-1.85869e-21
8.94891e-22
1.18943e-20
2.08388e-20
-6.00138e-21
-9.71053e-20
-2.00193e-19
-1.21391e-19
3.94057e-19
1.34927e-18
2.05659e-18
9.61067e-19
-3.72159e-18
-1.22084e-17
-2.05374e-17
-1.84815e-17
9.83905e-18
8.04045e-17
1.97723e-16
3.3857e-16
4.35498e-16
3.67245e-16
-3.49649e-17
-9.5892e-16
-2.57717e-15
-4.79638e-15
-8.0993e-15
-1.0678e-14
)
;
    }
    frontAndBack
    {
        type            empty;
    }
}


// ************************************************************************* //
