/*--------------------------------*- C++ -*----------------------------------*\
| =========                 |                                                 |
| \\      /  F ield         | OpenFOAM: The Open Source CFD Toolbox           |
|  \\    /   O peration     | Version:  2312                                  |
|   \\  /    A nd           | Website:  www.openfoam.com                      |
|    \\/     M anipulation  |                                                 |
\*---------------------------------------------------------------------------*/
FoamFile
{
    version     2.0;
    format      ascii;
    arch        "LSB;label=32;scalar=64";
    class       volScalarField;
    location    "0.045";
    object      ILambda_59_0;
}
// * * * * * * * * * * * * * * * * * * * * * * * * * * * * * * * * * * * * * //

dimensions      [1 0 -3 0 0 0 0];

internalField   nonuniform List<scalar> 
900
(
18049.5
18049.5
18049.5
18049.5
18049.5
18049.5
18049.5
18049.5
18049.5
18049.5
18049.5
18049.5
18049.5
18049.5
18049.5
18049.5
18049.5
18049.5
18049.5
18049.5
18049.4
18049.5
18050.4
18050.9
18042.2
18023.9
18096.3
18509.4
18624.1
12730.3
18049.5
18049.5
18049.5
18049.5
18049.5
18049.5
18049.5
18049.5
18049.5
18049.5
18049.5
18049.5
18049.5
18049.5
18049.5
18049.5
18049.5
18049.5
18049.4
18049.3
18049.7
18051.1
18050.1
18034.9
18012.6
18110.6
18576.6
18949.9
16122.3
5731.7
18049.5
18049.5
18049.5
18049.5
18049.5
18049.5
18049.5
18049.5
18049.5
18049.5
18049.5
18049.5
18049.5
18049.5
18049.5
18049.5
18049.5
18049.4
18049.3
18049.8
18051.4
18050.5
18034.4
18005.9
18070.9
18463.7
19013
17849.3
11705.5
1908.14
18049.5
18049.5
18049.5
18049.5
18049.5
18049.5
18049.5
18049.5
18049.5
18049.5
18049.5
18049.5
18049.5
18049.5
18049.5
18049.5
18049.4
18049.3
18049.7
18051.5
18051.4
18037.4
18004.7
18029.5
18322.3
18913.6
18712
15152.5
7235.29
155.064
18049.4
18049.4
18049.4
18049.4
18049.4
18049.4
18049.4
18049.4
18049.4
18049.4
18049.4
18049.4
18049.4
18049.4
18049.4
18049.3
18049.2
18049.6
18051.4
18052.4
18041.8
18009
18000.9
18192.2
18727.5
19048.7
17267.2
11525.6
3706.37
-444.928
18049.5
18049.5
18049.5
18049.5
18049.5
18049.5
18049.5
18049.5
18049.5
18049.5
18049.5
18049.5
18049.5
18049.4
18049.3
18049.2
18049.5
18051.2
18053.2
18046.5
18017.3
17988
18091
18516.5
19061.5
18455.7
14739
7791.41
1379.14
-498.841
18049.6
18049.6
18049.6
18049.6
18049.6
18049.6
18049.6
18049.6
18049.6
18049.6
18049.6
18049.6
18049.5
18049.5
18049.3
18049.5
18051
18053.5
18050.4
18027.2
17988.1
18023.7
18323.1
18900.8
19000.1
16930.7
11538.1
4572.54
101.616
-355.791
18049.6
18049.6
18049.6
18049.6
18049.6
18049.6
18049.6
18049.6
18049.6
18049.6
18049.6
18049.6
18049.6
18049.5
18049.6
18050.7
18053.3
18053
18036.5
17996.7
17987.4
18169.5
18672.3
19127.8
18262.3
14551.5
8199.69
2177.31
-432.03
-188.576
18049.4
18049.4
18049.4
18049.4
18049.4
18049.5
18049.4
18049.4
18049.4
18049.4
18049.4
18049.4
18049.4
18049.4
18050.1
18052.3
18053.9
18043.9
18009.4
17975.1
18062.7
18443.5
19016.3
18937.2
16726.2
11619.9
5188.94
639.33
-526.9
-64.1026
18049.1
18049.1
18049.1
18049.1
18049.1
18049.1
18049.1
18049
18049
18049.1
18049.2
18049.2
18049.1
18049.3
18051
18053.4
18049
18022.7
17979.3
17999.6
18251.4
18794.7
19156.7
18121.3
14468.5
8537.17
2796.29
-181
-417.746
6.01201
18048.9
18048.9
18048.9
18048.9
18048.9
18048.9
18048.9
18048.9
18049
18049.1
18049.1
18048.9
18048.8
18049.8
18052.4
18052.1
18034.9
17993
17971.8
18110.9
18549.4
19095.9
18878.6
16599.2
11729.6
5678.45
1120.29
-494.109
-253.822
33.3869
18049.4
18049.4
18049.4
18049.4
18049.4
18049.3
18049.4
18049.4
18049.6
18049.6
18049.4
18048.9
18049.2
18051.7
18054
18045.2
18011
17969.5
18022.3
18330.7
18891.5
19168.1
18019.5
14442.9
8832.32
3308.71
107.903
-506.802
-111.763
35.0943
18050.4
18050.4
18050.3
18050.3
18050.3
18050.3
18050.4
18050.6
18050.6
18050.3
18049.6
18049.4
18051.4
18055.3
18053.2
18029.1
17982.4
17977.3
18161.9
18639.8
19152.2
18829.2
16522.1
11852.8
6092.87
1551.67
-382.286
-381.96
-18.1934
25.5058
18051.2
18051.2
18051.2
18051.2
18051.2
18051.3
18051.4
18051.4
18051.1
18050.4
18049.8
18051.2
18055.7
18058.3
18044.3
18001.9
17963.8
18047.3
18400.9
18966.6
19170.6
17947.2
14452.7
9099.84
3752.63
403.205
-520.077
-226.334
28.4435
13.8547
18051.1
18051.1
18051.1
18051.1
18051.2
18051.2
18051.3
18051
18050.2
18049.4
18050.3
18054.8
18060.2
18054.6
18021.3
17969.3
17980.3
18205.6
18712.9
19192.3
18789.9
16479.3
11983.2
6458.06
1945
-229.779
-460.551
-96.1855
41.4717
4.65751
18049.3
18049.3
18049.3
18049.4
18049.4
18049.4
18049.1
18048.4
18047.6
18048.1
18052.1
18058.9
18059.4
18036.3
17983.5
17949.5
18064.2
18458.5
19026.2
19171.2
17898.4
14485.5
9347.22
4148.87
695.511
-483.569
-321.35
-11.0536
35.8602
-0.825896
18046.1
18046.1
18046.1
18046.2
18046.2
18045.9
18045.3
18044.5
18044.7
18048
18055
18059.5
18045.8
17999.5
17943.1
17974.7
18242.4
18776.9
19227.5
18763.5
16461.4
12116.3
6787.73
2308.55
-54.4053
-498.478
-177.099
31.3262
23.3462
-3.08865
18042.7
18042.8
18042.8
18042.8
18042.6
18042
18041.3
18041.4
18044
18050.4
18056.9
18050.6
18014.2
17951.7
17928.7
18081.8
18518
19086.6
19179.7
17870.1
14533.3
9578.07
4509.47
981.488
-412.982
-392.879
-64.9626
42.8366
11.1016
-3.25359
18041.4
18041.5
18041.4
18041.3
18040.8
18040.2
18040.2
18042.2
18047.7
18054.7
18053.6
18027.4
17969
17916.1
17979.3
18294.8
18853.6
19273
18752.6
16461.2
12248.8
7090.12
2648.32
134.222
-504.273
-251.299
4.65309
36.9027
2.3244
-2.41154
18044.5
18044.5
18044.3
18044
18043.5
18043.4
18044.9
18049.3
18056
18058
18040.8
17991.6
17927.7
17928.9
18129.5
18605.3
19165.2
19201.4
17856
14588.2
9794.71
4843.4
1260.75
-318.594
-442.213
-123.78
36.847
24.2953
-2.45104
-1.33794
18053.6
18053.4
18053.2
18052.8
18052.7
18053.8
18057.2
18063
18066.6
18056.3
18018.1
17955.2
17920
18026.5
18389.5
18959.1
19331.7
18748.7
16466.1
12375.9
7372.31
2971.31
331.541
-485.36
-315.523
-32.2082
43.0918
11.8046
-4.05381
-0.452542
18068.6
18068.4
18068.1
18068
18068.7
18071.3
18076
18080.1
18074.7
18046.8
17991.8
17939.9
17978.5
18228.6
18729.6
19257.6
19220.4
17835.4
14635.9
9997.38
5160.37
1537.42
-206.234
-472.983
-182.871
20.571
35.2309
2.61352
-3.7203
0.101716
18087
18086.8
18086.7
18087.2
18089
18092.7
18096.6
18094.3
18075.1
18030.7
17975.6
17971.2
18125.1
18522.4
19075.5
19375.6
18719.2
16448.6
12485.6
7639.41
3287.83
539.462
-446.631
-370.532
-75.5433
41.9399
22.4373
-2.61207
-2.54655
0.347685
18103.3
18103.2
18103.5
18104.8
18107.6
18110.9
18110.5
18097.9
18064.2
18013.8
17986.2
18067.6
18356.3
18854.8
19318.8
19188.9
17765.4
14647.6
10178.4
5468.9
1821.28
-74.8226
-488.255
-241.808
-4.16882
42.7442
10.367
-4.56734
-1.27314
0.378591
18109.6
18109.8
18110.8
18112.7
18115.4
18116
18108.1
18083.7
18041.7
18005.2
18037.5
18230.6
18636.5
19138.6
19339.5
18604.8
16362.2
12551.6
7887.94
3608.12
767.169
-386.631
-417.862
-125.247
33.5092
33.0857
1.59862
-4.41598
-0.279711
0.295497
18092.2
18092.9
18094.3
18096.3
18097.2
18092.6
18075.7
18042.8
18006.1
18008.6
18126.7
18431.8
18893.8
19263
19028.9
17580.7
14576.4
10314.4
5768.34
2123.35
84.8546
-485.602
-301.549
-38.4458
45.8632
20.3836
-3.40391
-3.24977
0.322465
0.176513
18050.5
18051.6
18053.1
18054
18051.4
18040
18015.7
17983.5
17971.1
18036.8
18251.9
18636.8
19057
19142.3
18336.9
16152
12536.4
8101.24
3934.49
1026.04
-295.982
-454.598
-182.758
15.4826
42.6185
9.02338
-5.32039
-1.85299
0.578443
0.0686925
17923.8
17925.1
17925.9
17924.6
17917.5
17900.4
17874.6
17856
17885.5
18024.1
18314.9
18704.3
18952.2
18611.7
17165.5
14325.7
10337.2
6024.94
2440.13
285.171
-452.675
-357.832
-84.6618
41.1708
31.8666
0.904439
-5.17996
-0.664541
0.591461
-0.00757822
17867
17867.9
17867.3
17862.4
17849.7
17828.3
17807.2
17815.1
17903
18123.8
18477
18824.3
18831.3
18014.7
15949.7
12574.7
8391.38
4342.94
1357.27
-158.378
-478.545
-252.25
-17.3097
48.5307
20.3746
-3.80108
-4.16915
0.129597
0.493599
-0.0501162
17326.2
17325.3
17321.9
17313.8
17301.3
17290.9
17301.8
17367.9
17525.1
17774.3
18021.7
18025.8
17409.9
15790.1
13005.6
9326.69
5459.83
2262.77
305.913
-410.499
-360.156
-106.943
32.7334
37.6373
5.79951
-5.74371
-2.04628
0.649246
0.258629
-0.0650965
)
;

boundaryField
{
    fixedWall_Bottom
    {
        type            greyDiffusiveRadiation;
        refValue        uniform 18049.5;
        refGradient     uniform 0;
        valueFraction   uniform 1;
        source          uniform 0;
        value           uniform 18049.5;
    }
    fixedWall_Right
    {
        type            greyDiffusiveRadiation;
        refValue        uniform 0;
        refGradient     uniform 0;
        valueFraction   uniform 1;
        source          uniform 0;
        value           uniform 0;
    }
    fixedWall_Left
    {
        type            greyDiffusiveRadiation;
        refValue        uniform 0;
        refGradient     uniform 0;
        valueFraction   uniform 0;
        source          uniform 0;
        value           nonuniform List<scalar> 
30
(
18049.5
18049.5
18049.5
18049.5
18049.4
18049.5
18049.6
18049.6
18049.4
18049.1
18048.9
18049.4
18050.4
18051.2
18051.1
18049.3
18046.1
18042.7
18041.4
18044.5
18053.6
18068.6
18087
18103.3
18109.6
18092.2
18050.5
17923.8
17867
17326.2
)
;
    }
    fixedWall_Top
    {
        type            greyDiffusiveRadiation;
        refValue        uniform 0;
        refGradient     uniform 0;
        valueFraction   uniform 0;
        source          uniform 0;
        value           nonuniform List<scalar> 
30
(
17326.2
17325.3
17321.9
17313.8
17301.3
17290.9
17301.8
17367.9
17525.1
17774.3
18021.7
18025.8
17409.9
15790.1
13005.6
9326.69
5459.83
2262.77
305.913
-410.499
-360.156
-106.943
32.7334
37.6373
5.79951
-5.74371
-2.04628
0.649246
0.258629
-0.0650965
)
;
    }
    frontAndBack
    {
        type            empty;
    }
}


// ************************************************************************* //
