/*--------------------------------*- C++ -*----------------------------------*\
| =========                 |                                                 |
| \\      /  F ield         | OpenFOAM: The Open Source CFD Toolbox           |
|  \\    /   O peration     | Version:  2312                                  |
|   \\  /    A nd           | Website:  www.openfoam.com                      |
|    \\/     M anipulation  |                                                 |
\*---------------------------------------------------------------------------*/
FoamFile
{
    version     2.0;
    format      ascii;
    arch        "LSB;label=32;scalar=64";
    class       volScalarField;
    location    "0.045";
    object      ILambda_0_0;
}
// * * * * * * * * * * * * * * * * * * * * * * * * * * * * * * * * * * * * * //

dimensions      [1 0 -3 0 0 0 0];

internalField   nonuniform List<scalar> 
900
(
17396.2
18253.4
18056.2
18048.6
18049.5
18049.5
18049.5
18049.5
18049.5
18049.5
18049.5
18049.5
18049.5
18049.5
18049.5
18049.5
18049.5
18049.5
18049.5
18049.5
18049.5
18049.5
18049.5
18049.5
18049.5
18049.5
18049.5
18049.5
18049.5
18049.5
16145.8
18580.2
18096.9
18045.5
18049
18049.5
18049.5
18049.5
18049.5
18049.5
18049.5
18049.5
18049.5
18049.5
18049.5
18049.5
18049.5
18049.5
18049.5
18049.5
18049.5
18049.5
18049.5
18049.5
18049.5
18049.5
18049.5
18049.5
18049.5
18049.5
14962.4
18812.8
18165
18042.7
18047.7
18049.5
18049.5
18049.5
18049.5
18049.5
18049.5
18049.5
18049.5
18049.5
18049.5
18049.5
18049.5
18049.5
18049.5
18049.5
18049.5
18049.5
18049.5
18049.5
18049.5
18049.5
18049.5
18049.5
18049.5
18049.5
13846.2
18954.4
18255.3
18042.6
18045.3
18049.4
18049.5
18049.5
18049.5
18049.5
18049.5
18049.5
18049.5
18049.5
18049.5
18049.5
18049.5
18049.5
18049.5
18049.5
18049.5
18049.5
18049.5
18049.5
18049.5
18049.5
18049.5
18049.5
18049.5
18049.5
12795.1
19011.6
18361.2
18047.3
18042.1
18049.1
18049.6
18049.5
18049.5
18049.5
18049.5
18049.5
18049.5
18049.5
18049.5
18049.5
18049.5
18049.5
18049.5
18049.5
18049.5
18049.5
18049.5
18049.5
18049.5
18049.5
18049.5
18049.5
18049.5
18049.5
11806.4
18991.8
18476.6
18058.4
18038.1
18048.5
18049.7
18049.5
18049.5
18049.5
18049.5
18049.5
18049.5
18049.5
18049.5
18049.5
18049.5
18049.5
18049.5
18049.5
18049.5
18049.5
18049.5
18049.5
18049.5
18049.5
18049.5
18049.5
18049.5
18049.5
10877.2
18901.8
18595.8
18076.8
18033.7
18047.5
18049.7
18049.5
18049.5
18049.5
18049.5
18049.5
18049.5
18049.5
18049.5
18049.5
18049.5
18049.5
18049.5
18049.5
18049.5
18049.5
18049.5
18049.5
18049.5
18049.5
18049.5
18049.5
18049.5
18049.5
10004.8
18748.5
18714
18103.2
18029.5
18046
18049.7
18049.6
18049.5
18049.4
18049.5
18049.5
18049.5
18049.5
18049.5
18049.5
18049.5
18049.5
18049.5
18049.5
18049.5
18049.5
18049.5
18049.5
18049.5
18049.5
18049.5
18049.5
18049.5
18049.5
9186.56
18538.2
18826.8
18137.9
18025.8
18043.9
18049.7
18049.6
18049.5
18049.4
18049.4
18049.4
18049.4
18049.4
18049.4
18049.4
18049.4
18049.4
18049.4
18049.4
18049.4
18049.4
18049.4
18049.4
18049.4
18049.4
18049.4
18049.4
18049.4
18049.4
8419.88
18276.9
18930.4
18180.7
18023.4
18041.3
18049.6
18049.7
18049.5
18049.5
18049.5
18049.5
18049.5
18049.5
18049.5
18049.5
18049.5
18049.5
18049.5
18049.5
18049.5
18049.5
18049.5
18049.5
18049.5
18049.5
18049.5
18049.5
18049.5
18049.5
7702.27
17970.2
19021.6
18231.3
18022.8
18038.2
18049.4
18049.9
18049.6
18049.5
18049.5
18049.5
18049.5
18049.5
18049.5
18049.5
18049.5
18049.5
18049.5
18049.5
18049.5
18049.5
18049.5
18049.5
18049.5
18049.5
18049.5
18049.5
18049.5
18049.5
7031.3
17623.3
19097.4
18289.1
18024.4
18034.5
18048.9
18050
18049.6
18049.5
18049.5
18049.5
18049.5
18049.5
18049.5
18049.5
18049.5
18049.5
18049.5
18049.5
18049.5
18049.5
18049.5
18049.5
18049.5
18049.5
18049.5
18049.5
18049.5
18049.5
6404.66
17241.1
19155.5
18353
18028.9
18030.4
18048.1
18050.1
18049.6
18049.5
18049.5
18049.5
18049.5
18049.5
18049.5
18049.5
18049.5
18049.5
18049.5
18049.5
18049.5
18049.5
18049.5
18049.5
18049.5
18049.5
18049.5
18049.5
18049.5
18049.5
5820.08
16828.4
19194.1
18422.2
18036.6
18025.9
18047
18050.1
18049.6
18049.4
18049.4
18049.4
18049.4
18049.4
18049.4
18049.4
18049.4
18049.4
18049.4
18049.4
18049.4
18049.4
18049.4
18049.4
18049.4
18049.4
18049.4
18049.4
18049.4
18049.4
5275.4
16389.4
19211.5
18495.7
18048.1
18021.3
18045.5
18050.2
18049.6
18049.3
18049.3
18049.3
18049.3
18049.3
18049.3
18049.3
18049.3
18049.3
18049.3
18049.3
18049.3
18049.3
18049.3
18049.3
18049.3
18049.3
18049.3
18049.3
18049.3
18049.3
4768.53
15928.3
19206.7
18572.2
18063.8
18017
18043.8
18050.2
18049.7
18049.3
18049.3
18049.3
18049.3
18049.3
18049.3
18049.3
18049.3
18049.3
18049.3
18049.3
18049.3
18049.3
18049.3
18049.3
18049.3
18049.3
18049.3
18049.3
18049.3
18049.3
4297.47
15448.7
19178.9
18650.6
18083.9
18013
18041.7
18050.3
18049.9
18049.4
18049.4
18049.4
18049.4
18049.4
18049.4
18049.4
18049.4
18049.4
18049.4
18049.4
18049.4
18049.4
18049.4
18049.4
18049.4
18049.4
18049.4
18049.4
18049.4
18049.4
3860.28
14954
19127.2
18729.4
18108.6
18009.7
18039.3
18050.4
18050.2
18049.7
18049.6
18049.6
18049.6
18049.6
18049.6
18049.6
18049.6
18049.6
18049.6
18049.6
18049.6
18049.6
18049.6
18049.6
18049.6
18049.6
18049.6
18049.6
18049.6
18049.6
3455.11
14447.6
19051.3
18807.2
18138.1
18007.3
18036.5
18050.3
18050.6
18049.9
18049.8
18049.8
18049.8
18049.8
18049.8
18049.8
18049.8
18049.8
18049.8
18049.8
18049.8
18049.8
18049.8
18049.8
18049.8
18049.8
18049.8
18049.8
18049.8
18049.8
3080.18
13932.2
18951
18882.6
18172
18005.9
18033.2
18050
18050.9
18050.1
18049.9
18050
18050
18050
18050
18050
18050
18050
18050
18050
18050
18050
18050
18050
18050
18050
18050
18050
18050
18050
2733.78
13410.6
18826.2
18953.9
18210.3
18005.7
18029.4
18049.3
18051
18050.1
18049.9
18049.9
18049.9
18049.9
18049.9
18049.9
18049.9
18049.9
18049.9
18049.9
18049.9
18049.9
18049.9
18049.9
18049.9
18049.9
18049.9
18049.9
18049.9
18049.9
2414.26
12885.3
18677.4
19019.9
18252.6
18006.9
18025
18048.1
18050.8
18049.8
18049.5
18049.5
18049.5
18049.5
18049.5
18049.5
18049.5
18049.5
18049.5
18049.5
18049.5
18049.5
18049.5
18049.5
18049.5
18049.5
18049.5
18049.5
18049.5
18049.5
2120.03
12358.8
18504.9
19079.3
18298.8
18009.7
18020
18046.4
18050.3
18049.2
18048.8
18048.8
18048.8
18048.8
18048.8
18048.8
18048.8
18048.8
18048.8
18048.8
18048.8
18048.8
18048.8
18048.8
18048.8
18048.8
18048.8
18048.8
18048.8
18048.8
1849.58
11833
18309.7
19131.1
18348.6
18014.4
18014.7
18044.2
18049.5
18048.4
18047.9
18047.9
18048
18048
18048
18048
18048
18048
18048
18048
18048
18048
18048
18048
18048
18048
18048
18048
18048
18048
1601.49
11310.4
18093.3
19174.9
18402.2
18021.8
18009.7
18042
18049.1
18048
18047.4
18047.4
18047.4
18047.4
18047.4
18047.4
18047.4
18047.4
18047.4
18047.4
18047.4
18047.4
18047.4
18047.4
18047.4
18047.4
18047.4
18047.4
18047.4
18047.4
1374.14
10791.4
17854.9
19208.9
18458.8
18031.8
18004.6
18039.3
18048.4
18047.5
18046.7
18046.7
18046.7
18046.7
18046.7
18046.7
18046.7
18046.7
18046.7
18046.7
18046.7
18046.7
18046.7
18046.7
18046.7
18046.7
18046.7
18046.7
18046.7
18046.7
1167.37
10283.4
17602.3
19235.8
18520
18046.5
18001.8
18038.6
18050
18049.3
18048.4
18048.3
18048.3
18048.3
18048.3
18048.3
18048.3
18048.3
18048.3
18048.3
18048.3
18048.3
18048.3
18048.3
18048.3
18048.3
18048.3
18048.3
18048.3
18048.3
974.318
9763.19
17313.8
19246.8
18584.3
18064.4
17998.2
18036
18050
18049.7
18048.6
18048.5
18048.5
18048.5
18048.5
18048.5
18048.5
18048.5
18048.5
18048.5
18048.5
18048.5
18048.5
18048.5
18048.5
18048.5
18048.5
18048.5
18048.5
18048.5
820.258
9336.06
17075
19260.7
18644.5
18084.6
17999.6
18038.5
18054.9
18054.9
18053.7
18053.5
18053.6
18053.6
18053.6
18053.6
18053.6
18053.6
18053.6
18053.6
18053.6
18053.6
18053.6
18053.6
18053.6
18053.6
18053.6
18053.6
18053.6
18053.6
581.461
8559.29
16558.5
19231.6
18754.6
18131.5
18002.2
18038.6
18059.8
18061.1
18059.7
18059.4
18059.4
18059.4
18059.4
18059.4
18059.4
18059.4
18059.4
18059.4
18059.4
18059.4
18059.4
18059.4
18059.4
18059.4
18059.4
18059.4
18059.4
18059.4
)
;

boundaryField
{
    fixedWall_Bottom
    {
        type            greyDiffusiveRadiation;
        refValue        uniform 18049.5;
        refGradient     uniform 0;
        valueFraction   uniform 1;
        source          uniform 0;
        value           uniform 18049.5;
    }
    fixedWall_Right
    {
        type            greyDiffusiveRadiation;
        refValue        uniform 0;
        refGradient     uniform 0;
        valueFraction   uniform 0;
        source          uniform 0;
        value           nonuniform List<scalar> 
30
(
18049.5
18049.5
18049.5
18049.5
18049.5
18049.5
18049.5
18049.5
18049.4
18049.5
18049.5
18049.5
18049.5
18049.4
18049.3
18049.3
18049.4
18049.6
18049.8
18050
18049.9
18049.5
18048.8
18048
18047.4
18046.7
18048.3
18048.5
18053.6
18059.4
)
;
    }
    fixedWall_Left
    {
        type            greyDiffusiveRadiation;
        refValue        uniform 0;
        refGradient     uniform 0;
        valueFraction   uniform 1;
        source          uniform 0;
        value           uniform 0;
    }
    fixedWall_Top
    {
        type            greyDiffusiveRadiation;
        refValue        uniform 0;
        refGradient     uniform 0;
        valueFraction   uniform 0;
        source          uniform 0;
        value           nonuniform List<scalar> 
30
(
581.461
8559.29
16558.5
19231.6
18754.6
18131.5
18002.2
18038.6
18059.8
18061.1
18059.7
18059.4
18059.4
18059.4
18059.4
18059.4
18059.4
18059.4
18059.4
18059.4
18059.4
18059.4
18059.4
18059.4
18059.4
18059.4
18059.4
18059.4
18059.4
18059.4
)
;
    }
    frontAndBack
    {
        type            empty;
    }
}


// ************************************************************************* //
