/*--------------------------------*- C++ -*----------------------------------*\
| =========                 |                                                 |
| \\      /  F ield         | OpenFOAM: The Open Source CFD Toolbox           |
|  \\    /   O peration     | Version:  2312                                  |
|   \\  /    A nd           | Website:  www.openfoam.com                      |
|    \\/     M anipulation  |                                                 |
\*---------------------------------------------------------------------------*/
FoamFile
{
    version     2.0;
    format      ascii;
    arch        "LSB;label=32;scalar=64";
    class       volScalarField;
    location    "0.045";
    object      qin;
}
// * * * * * * * * * * * * * * * * * * * * * * * * * * * * * * * * * * * * * //

dimensions      [1 0 -3 0 0 0 0];

internalField   uniform 0;

boundaryField
{
    fixedWall_Bottom
    {
        type            calculated;
        value           nonuniform List<scalar> 
30
(
5887.89
7407.9
8334.81
9094.75
9711.43
10227.4
10661.1
11026.1
11331.5
11583.9
11788.1
11947.7
12065.4
12142.8
12181.3
12181.3
12142.8
12065.4
11947.7
11788.1
11583.9
11331.5
11026.1
10661.1
10227.4
9711.43
9094.76
8334.82
7407.92
5887.93
)
;
    }
    fixedWall_Right
    {
        type            calculated;
        value           nonuniform List<scalar> 
30
(
34493.9
31364.7
29183.1
27320.2
25654.5
24062.3
22577.1
21204.2
19914.7
18690
17527.9
16426.8
15380.4
14383.1
13431.8
12524
11657.5
10830
10039.7
9285.38
8565.66
7879.37
7225.3
6602.16
6008.5
5441.97
4902.53
4374.55
3908.2
3204.85
)
;
    }
    fixedWall_Left
    {
        type            calculated;
        value           nonuniform List<scalar> 
30
(
34493.9
31364.8
29183.2
27320.2
25654.6
24062.3
22577.1
21204.3
19914.8
18690
17528
16426.8
15380.4
14383.1
13431.9
12524.2
11657.7
10830.1
10039.8
9285.37
8565.68
7879.46
7225.45
6602.28
6008.54
5441.89
4902.35
4374.31
3907.93
3204.74
)
;
    }
    fixedWall_Top
    {
        type            calculated;
        value           nonuniform List<scalar> 
30
(
6854.28
7531.25
8130.89
8568.99
8967.51
9389.23
9782.59
10121
10419.3
10685.7
10913.1
11095.4
11232.2
11324.6
11371.4
11371.5
11324.6
11232.2
11095.3
10913.1
10685.7
10419.4
10121.3
9782.91
9389.56
8967.81
8569.26
8131.13
7531.49
6854.56
)
;
    }
    frontAndBack
    {
        type            empty;
    }
}


// ************************************************************************* //
