/*--------------------------------*- C++ -*----------------------------------*\
| =========                 |                                                 |
| \\      /  F ield         | OpenFOAM: The Open Source CFD Toolbox           |
|  \\    /   O peration     | Version:  2306                                  |
|   \\  /    A nd           | Website:  www.openfoam.com                      |
|    \\/     M anipulation  |                                                 |
\*---------------------------------------------------------------------------*/
FoamFile
{
    version     2.0;
    format      ascii;
    arch        "LSB;label=32;scalar=64";
    class       volScalarField;
    location    "0.075";
    object      G;
}
// * * * * * * * * * * * * * * * * * * * * * * * * * * * * * * * * * * * * * //

dimensions      [1 0 -3 0 0 0 0];

internalField   nonuniform List<scalar> 
100
(
9758.56
10815.2
11566.6
11953.3
12147.1
12147.1
11953.3
11566.6
10815.2
9758.58
10815.2
12118.2
13002
13461.2
13683.8
13683.8
13461.2
13002
12118.2
10815.2
11566.6
13002
13982.8
14498.8
14746.7
14746.7
14498.8
13982.8
13002
11566.6
11953.3
13461.2
14498.8
15053
15318.3
15318.3
15053
14498.8
13461.2
11953.3
12147.1
13683.8
14746.7
15318.3
15591.7
15591.7
15318.3
14746.7
13683.8
12147.1
12147.1
13683.8
14746.7
15318.3
15591.7
15591.7
15318.3
14746.7
13683.8
12147.1
11953.3
13461.2
14498.8
15053
15318.3
15318.3
15053
14498.8
13461.2
11953.3
11566.6
13002
13982.8
14498.8
14746.7
14746.7
14498.8
13982.8
13002
11566.6
10815.2
12118.2
13002
13461.2
13683.8
13683.8
13461.2
13002
12118.2
10815.2
9758.58
10815.2
11566.6
11953.3
12147.1
12147.1
11953.3
11566.6
10815.2
9758.56
)
;

boundaryField
{
    fixedWall_Bottom
    {
        type            calculated;
        value           nonuniform List<scalar> 10(8490.79 9313.02 9962.56 10301.4 10474.4 10474.4 10301.4 9962.56 9313.03 8490.8);
    }
    fixedWall_Right
    {
        type            calculated;
        value           nonuniform List<scalar> 10(8490.8 9313.03 9962.56 10301.4 10474.4 10474.4 10301.4 9962.56 9313.02 8490.79);
    }
    fixedWall_Left
    {
        type            calculated;
        value           nonuniform List<scalar> 10(8490.79 9313.02 9962.56 10301.4 10474.4 10474.4 10301.4 9962.56 9313.03 8490.8);
    }
    fixedWall_Top
    {
        type            calculated;
        value           nonuniform List<scalar> 10(8490.8 9313.03 9962.56 10301.4 10474.4 10474.4 10301.4 9962.56 9313.02 8490.79);
    }
    frontAndBack
    {
        type            empty;
    }
}


// ************************************************************************* //
