/*--------------------------------*- C++ -*----------------------------------*\
| =========                 |                                                 |
| \\      /  F ield         | OpenFOAM: The Open Source CFD Toolbox           |
|  \\    /   O peration     | Version:  2306                                  |
|   \\  /    A nd           | Website:  www.openfoam.com                      |
|    \\/     M anipulation  |                                                 |
\*---------------------------------------------------------------------------*/
FoamFile
{
    version     2.0;
    format      ascii;
    arch        "LSB;label=32;scalar=64";
    class       volScalarField;
    location    "0.075";
    object      ILambda_20_0;
}
// * * * * * * * * * * * * * * * * * * * * * * * * * * * * * * * * * * * * * //

dimensions      [1 0 -3 0 0 0 0];

internalField   nonuniform List<scalar> 
100
(
2756.59
2361.66
2114.51
1837.44
1566.74
1291.75
1011.88
728.131
440.578
148.21
2643.01
2362.96
2128.37
1855.07
1575.41
1293.62
1011.39
727.719
440.515
148.223
2467.73
2293.27
2104
1860.6
1587.76
1301.64
1013.67
727.407
440.144
148.224
2214.23
2139.61
2017.19
1831.33
1590.46
1313.35
1021.38
729.244
439.682
148.07
1906.39
1895.14
1841.02
1730.78
1552.95
1313.42
1032.63
736.177
440.638
147.661
1571.58
1582.59
1574.64
1533.55
1436.12
1267.66
1030.59
746.731
445.905
147.53
1228.34
1236.77
1244.89
1244.17
1215.37
1133.27
976.822
743.143
455.026
149.63
883.115
884.671
890.009
898.258
902.925
887.034
822.94
681.269
450.589
155.385
534.77
534.145
534.48
537.236
543.687
551.209
547.261
503.962
381.852
153.903
180.33
180.231
179.875
179.425
179.608
181.922
187.411
192.025
176.691
96.8556
)
;

boundaryField
{
    fixedWall_Bottom
    {
        type            greyDiffusiveRadiation;
        refValue        uniform 0;
        refGradient     uniform 0;
        valueFraction   uniform 0;
        source          uniform 0;
        value           nonuniform List<scalar> 10(2756.59 2361.66 2114.51 1837.44 1566.74 1291.75 1011.88 728.131 440.578 148.21);
    }
    fixedWall_Right
    {
        type            greyDiffusiveRadiation;
        refValue        uniform 0;
        refGradient     uniform 0;
        valueFraction   uniform 1;
        source          uniform 0;
        value           uniform 0;
    }
    fixedWall_Left
    {
        type            greyDiffusiveRadiation;
        refValue        uniform 0;
        refGradient     uniform 0;
        valueFraction   uniform 0;
        source          uniform 0;
        value           nonuniform List<scalar> 10(2756.59 2643.01 2467.73 2214.23 1906.39 1571.58 1228.34 883.115 534.77 180.33);
    }
    fixedWall_Top
    {
        type            greyDiffusiveRadiation;
        refValue        uniform 0;
        refGradient     uniform 0;
        valueFraction   uniform 1;
        source          uniform 0;
        value           uniform 0;
    }
    frontAndBack
    {
        type            empty;
    }
}


// ************************************************************************* //
