/*--------------------------------*- C++ -*----------------------------------*\
| =========                 |                                                 |
| \\      /  F ield         | OpenFOAM: The Open Source CFD Toolbox           |
|  \\    /   O peration     | Version:  2306                                  |
|   \\  /    A nd           | Website:  www.openfoam.com                      |
|    \\/     M anipulation  |                                                 |
\*---------------------------------------------------------------------------*/
FoamFile
{
    version     2.0;
    format      ascii;
    arch        "LSB;label=32;scalar=64";
    class       volScalarField;
    location    "0.075";
    object      qin;
}
// * * * * * * * * * * * * * * * * * * * * * * * * * * * * * * * * * * * * * //

dimensions      [1 0 -3 0 0 0 0];

internalField   uniform 0;

boundaryField
{
    fixedWall_Bottom
    {
        type            calculated;
        value           nonuniform List<scalar> 10(4425.58 5102.12 5532.89 5766.86 5882.41 5882.41 5766.86 5532.89 5102.13 4425.59);
    }
    fixedWall_Right
    {
        type            calculated;
        value           nonuniform List<scalar> 10(4425.59 5102.13 5532.89 5766.86 5882.41 5882.41 5766.86 5532.89 5102.12 4425.58);
    }
    fixedWall_Left
    {
        type            calculated;
        value           nonuniform List<scalar> 10(4425.58 5102.12 5532.89 5766.86 5882.41 5882.41 5766.86 5532.89 5102.13 4425.59);
    }
    fixedWall_Top
    {
        type            calculated;
        value           nonuniform List<scalar> 10(4425.59 5102.13 5532.89 5766.86 5882.41 5882.41 5766.86 5532.89 5102.12 4425.58);
    }
    frontAndBack
    {
        type            empty;
    }
}


// ************************************************************************* //
