/*--------------------------------*- C++ -*----------------------------------*\
| =========                 |                                                 |
| \\      /  F ield         | OpenFOAM: The Open Source CFD Toolbox           |
|  \\    /   O peration     | Version:  2406                                  |
|   \\  /    A nd           | Website:  www.openfoam.com                      |
|    \\/     M anipulation  |                                                 |
\*---------------------------------------------------------------------------*/
FoamFile
{
    version     2.0;
    format      ascii;
    arch        "LSB;label=32;scalar=64";
    class       volScalarField;
    location    "20000";
    object      G;
}
// * * * * * * * * * * * * * * * * * * * * * * * * * * * * * * * * * * * * * //

dimensions      [1 0 -3 0 0 0 0];

internalField   nonuniform List<scalar> 
3600
(
1779.95
1794.36
1802.42
1807.97
1811.84
1814.62
1816.72
1818.37
1819.76
1821
1822.21
1823.43
1824.6
1825.67
1826.6
1827.43
1828.2
1828.98
1829.8
1830.67
1831.57
1832.45
1833.22
1833.79
1834.12
1834.33
1834.74
1835.79
1837.69
1840.01
1841.42
1839.83
1833.33
1821.7
1807.95
1799.18
1805.84
1839.51
1909.53
2019.75
2166.61
2339.36
2522.36
2698.48
2852.47
2973.06
3053.39
3090.28
3082.98
3032.35
2940.89
2813.45
2657.94
2485.55
2309.78
2144.53
2001.43
1888.21
1806.36
1743.5
1781.16
1791.75
1798.42
1803.69
1807.6
1810.57
1812.94
1814.9
1816.6
1818.18
1819.73
1821.25
1822.69
1823.99
1825.16
1826.22
1827.26
1828.32
1829.44
1830.62
1831.86
1833.07
1834.18
1835.15
1836.07
1837.26
1839.08
1841.69
1844.49
1845.91
1843.71
1836.05
1823.22
1809.28
1802.65
1815.05
1858.53
1941.71
2066.39
2226.11
2407.13
2591.67
2761.93
2903.55
3007.19
3068.32
3085.73
3059.9
2992.35
2886.03
2746.48
2582.65
2406.93
2233.7
2076.99
1947.84
1852.06
1790.19
1755.04
1745.19
1783.13
1791
1796.3
1801
1804.71
1807.7
1810.15
1812.22
1814.05
1815.76
1817.43
1819.07
1820.65
1822.15
1823.61
1825.07
1826.6
1828.23
1829.98
1831.83
1833.71
1835.55
1837.26
1838.91
1840.71
1842.97
1845.79
1848.61
1849.95
1847.68
1840.03
1827.22
1813.1
1805.69
1816.23
1856.34
1934.36
2052.14
2203.62
2375.88
2552.19
2715.88
2853.56
2956.5
3020.34
3043.54
3025.95
2968.24
2872.51
2743.5
2589.62
2422.74
2256.84
2105.54
1979.61
1885.01
1822.23
1787.26
1771.65
1773.01
1785.04
1791.35
1795.64
1799.77
1803.29
1806.35
1809.04
1811.48
1813.74
1815.9
1818
1820.02
1821.91
1823.67
1825.36
1827.05
1828.8
1830.64
1832.57
1834.52
1836.39
1838.09
1839.64
1841.23
1843.14
1845.49
1847.79
1848.61
1845.85
1837.67
1824.19
1809.13
1800.51
1809.63
1848.31
1925.08
2041.88
2192.6
2364.13
2539.52
2702.03
2838.37
2940.12
3003.31
3026.72
3010.32
2954.67
2861.54
2735.29
2583.99
2419.39
2255.52
2106.16
1982.14
1889.44
1828.53
1795.16
1782.18
1780.85
1788.35
1787.72
1793.34
1797.07
1800.84
1804.23
1807.37
1810.29
1813.05
1815.71
1818.32
1820.87
1823.29
1825.49
1827.42
1829.11
1830.6
1831.95
1833.21
1834.35
1835.31
1836.04
1836.55
1837.07
1837.94
1839.36
1840.93
1841.34
1838.45
1830.32
1816.9
1801.71
1792.71
1801.32
1839.55
1916.11
2032.97
2183.81
2355.16
2529.75
2690.72
2824.95
2924.48
2985.91
3008.5
2992.46
2938.31
2847.58
2724.27
2576.14
2414.76
2254.11
2108.02
1987.34
1897.88
1839.86
1808.7
1797.03
1796.63
1800.8
1804.76
1792.08
1797.32
1800.67
1804.1
1807.26
1810.24
1813.02
1815.62
1818.09
1820.48
1822.78
1824.94
1826.86
1828.47
1829.74
1830.67
1831.28
1831.59
1831.59
1831.27
1830.72
1830.22
1830.17
1830.9
1832.14
1832.66
1830.3
1822.97
1810.32
1795.6
1786.66
1794.97
1832.81
1909.21
2026.25
2177.5
2349.14
2523.52
2683.52
2816.09
2913.63
2973.23
2994.58
2978.16
2924.45
2834.78
2712.93
2566.48
2406.94
2248.34
2104.58
1986.6
1900.21
1845.42
1817.36
1808.25
1809.82
1814.76
1819.33
1817.86
1797.1
1801.59
1804.35
1807.14
1809.64
1811.98
1814.08
1815.95
1817.65
1819.2
1820.62
1821.89
1823
1823.91
1824.6
1825.05
1825.21
1825.05
1824.56
1823.84
1823.18
1823.06
1823.88
1825.49
1826.73
1825.45
1819.35
1807.79
1793.72
1784.78
1792.56
1829.63
1905.36
2022.1
2173.37
2345.06
2519.1
2678.08
2808.94
2904.39
2961.95
2981.81
2964.65
2910.96
2821.88
2700.95
2555.59
2397.28
2240.1
2098.04
1982.06
1898
1845.83
1820.54
1814.12
1817.94
1824.93
1830.01
1832.26
1826.44
1799.83
1803.02
1804.98
1806.81
1808.35
1809.79
1811
1812
1812.88
1813.68
1814.4
1814.99
1815.48
1815.91
1816.32
1816.7
1817
1817.14
1817.15
1817.26
1817.93
1819.57
1822.11
1824.47
1824.47
1819.67
1809.15
1795.57
1786.43
1793.37
1829.29
1903.98
2020.05
2171.03
2342.56
2516.15
2674.11
2803.32
2896.73
2952.31
2970.64
2952.62
2898.74
2809.92
2689.48
2544.71
2387.12
2230.89
2090.11
1975.75
1893.52
1843.3
1819.97
1815.46
1821
1829.33
1835.83
1838.07
1837.15
1829.09
1798.04
1799.93
1801.27
1802.34
1803.16
1803.99
1804.7
1805.25
1805.8
1806.44
1807.15
1807.81
1808.37
1808.9
1809.48
1810.14
1810.89
1811.73
1812.82
1814.53
1817.24
1820.89
1824.44
1825.68
1822.03
1812.32
1798.95
1789.31
1795.17
1829.79
1903.37
2018.8
2169.61
2341.12
2514.45
2671.57
2799.34
2890.94
2944.76
2961.72
2942.94
2888.81
2800.05
2679.72
2535.01
2377.51
2221.61
2081.6
1968.52
1887.98
1839.6
1818.05
1815.06
1821.84
1831.03
1837.99
1840.87
1839.4
1835.73
1827.12
1792.53
1793.88
1795.14
1796.07
1796.78
1797.62
1798.47
1799.21
1799.96
1800.89
1802.03
1803.24
1804.38
1805.42
1806.43
1807.47
1808.66
1810.21
1812.49
1815.87
1820.32
1824.79
1827.05
1824.36
1815.28
1801.93
1791.59
1796.21
1829.45
1901.98
2017
2167.97
2339.88
2513.34
2669.99
2796.62
2886.69
2939.02
2954.92
2935.64
2881.45
2792.8
2672.47
2527.53
2369.65
2213.48
2073.6
1961.25
1882.03
1835.36
1815.57
1814.17
1822.17
1832.18
1839.53
1842.43
1841.15
1836.62
1831.26
1823.01
1786.49
1788.17
1789.82
1791.2
1792.29
1793.52
1794.86
1796.11
1797.27
1798.53
1800.02
1801.7
1803.42
1805.06
1806.57
1808.03
1809.69
1811.97
1815.37
1819.93
1824.74
1827.56
1825.52
1816.87
1803.44
1792.34
1795.69
1827.56
1899.15
2013.98
2165.49
2338.23
2512.28
2668.84
2794.62
2883.39
2934.43
2949.49
2929.94
2875.93
2787.55
2667.28
2522.05
2363.62
2206.9
2066.79
1954.75
1876.43
1831.12
1812.9
1813
1822.27
1833.22
1841.17
1844.34
1843.14
1838.88
1832.71
1826.82
1819.19
1782.79
1785.15
1787.25
1789.22
1790.76
1792.31
1794.01
1795.68
1797.19
1798.64
1800.23
1802.07
1804.13
1806.24
1808.3
1810.35
1812.74
1815.97
1820.26
1824.85
1827.65
1825.73
1817.13
1803.36
1791.36
1793.36
1823.87
1894.62
2009.48
2161.87
2335.89
2510.99
2667.86
2793.1
2880.76
2930.63
2944.93
2925.22
2871.5
2783.49
2663.33
2517.78
2358.71
2201.32
2060.85
1948.96
1871.37
1827.22
1810.36
1811.76
1822.13
1833.93
1842.49
1846.11
1845.28
1841.47
1835.99
1829.61
1824.14
1817.11
1782.1
1784.85
1787.13
1789.46
1791.23
1792.82
1794.56
1796.41
1798.19
1799.83
1801.5
1803.4
1805.61
1808.07
1810.68
1813.54
1816.99
1821.22
1825.6
1828.19
1826.08
1817.14
1802.63
1789.35
1789.68
1818.59
1888.39
2003.35
2156.83
2332.49
2509.07
2666.7
2791.79
2878.63
2927.53
2941.18
2921.36
2867.93
2780.28
2660.18
2514.23
2354.38
2196.17
2055.19
1943.37
1866.45
1823.41
1807.85
1810.49
1821.84
1834.34
1843.35
1847.25
1846.68
1843.33
1838.69
1833.47
1827.86
1823.36
1816.97
1783.24
1785.88
1788.01
1790.42
1792.22
1793.68
1795.28
1797.21
1799.32
1801.39
1803.41
1805.51
1807.85
1810.5
1813.59
1817.32
1821.78
1826.32
1829.01
1826.91
1817.69
1802.35
1787.54
1785.83
1812.72
1881.2
1996.01
2150.53
2327.91
2506.18
2664.86
2790.13
2876.49
2924.75
2938.01
2918.27
2865.23
2777.93
2657.82
2511.32
2350.55
2191.35
2049.69
1937.77
1861.39
1819.38
1805.08
1808.93
1821.28
1834.5
1843.93
1847.99
1847.41
1844.11
1839.91
1835.69
1831.46
1826.98
1823.62
1817.98
1784.69
1786.93
1788.78
1791.14
1792.98
1794.41
1795.96
1798.05
1800.65
1803.4
1806.05
1808.51
1810.96
1813.69
1817.1
1821.41
1826.04
1829.06
1827.38
1818.34
1802.56
1786.44
1782.71
1807.42
1874.29
1988.63
2143.91
2322.82
2502.66
2662.32
2787.77
2873.77
2921.61
2934.81
2915.48
2863.1
2776.31
2656.18
2509.07
2347.25
2186.93
2044.46
1932.32
1856.33
1815.19
1801.98
1806.91
1820.2
1834.16
1844.14
1848.53
1848.01
1844.54
1840.2
1836.3
1832.95
1829.72
1826.27
1823.87
1819.11
1785.67
1787.55
1789.2
1791.6
1793.68
1795.34
1797.07
1799.48
1802.61
1806.08
1809.37
1812.18
1814.69
1817.42
1820.92
1824.98
1827.92
1826.61
1818.05
1802.32
1785.43
1780.1
1802.88
1868.26
1982.15
2138.12
2318.42
2499.6
2659.94
2785.24
2870.59
2917.85
2931.04
2912.33
2860.92
2774.91
2654.96
2507.27
2344.34
2182.82
2039.51
1927.11
1851.48
1811.12
1798.85
1804.66
1818.66
1833.19
1843.71
1848.6
1848.45
1845.07
1840.55
1836.45
1833.3
1830.68
1828.05
1825.25
1823.48
1819.6
1786.24
1788.04
1789.71
1792.34
1794.88
1797.02
1799.15
1801.89
1805.4
1809.28
1812.88
1815.84
1818.38
1821.1
1824.19
1826.43
1824.94
1816.59
1800.96
1783.59
1777.08
1798.36
1862.65
1976.45
2133.43
2315.34
2497.93
2658.8
2783.62
2867.87
2914.11
2926.95
2908.73
2858.32
2773.26
2653.66
2505.52
2341.53
2178.8
2034.61
1921.97
1846.75
1807.23
1795.89
1802.47
1816.98
1831.83
1842.64
1847.94
1848.31
1845.39
1841.07
1836.88
1833.6
1831.14
1828.87
1826.39
1823.84
1822.38
1819.21
1786.91
1789.01
1790.89
1793.91
1797.01
1799.71
1802.24
1805.15
1808.63
1812.36
1815.78
1818.68
1821.3
1823.85
1825.42
1823.47
1814.88
1798.98
1780.92
1773.18
1793.1
1856.58
1970.7
2129.17
2313.19
2497.56
2659.17
2783.47
2866.4
2911.28
2923.4
2905.34
2855.7
2771.46
2652.16
2503.59
2338.55
2174.61
2029.52
1916.64
1841.86
1803.25
1792.94
1800.35
1815.35
1830.39
1841.27
1846.72
1847.45
1845.05
1841.23
1837.34
1834.13
1831.72
1829.66
1827.38
1824.77
1822.24
1820.82
1818.1
1788.23
1790.92
1793.1
1796.5
1800.06
1803.18
1805.89
1808.61
1811.53
1814.53
1817.41
1820.19
1822.85
1824.45
1822.5
1813.84
1797.52
1778.41
1769.03
1787.23
1849.73
1964.26
2124.54
2311.11
2497.73
2660.43
2784.43
2866.09
2909.57
2920.87
2902.83
2853.8
2770.17
2650.98
2501.78
2335.56
2170.3
2024.24
1911.05
1836.66
1798.93
1789.68
1798
1813.58
1828.88
1839.8
1845.28
1846.18
1844.12
1840.77
1837.33
1834.45
1832.27
1830.47
1828.54
1826.08
1823.28
1820.66
1819.16
1816.58
1790.54
1793.9
1796.28
1799.87
1803.57
1806.75
1809.27
1811.36
1813.27
1815.23
1817.51
1820.17
1822.24
1821.08
1813.15
1796.98
1777
1765.76
1781.75
1842.73
1957.29
2119.29
2308.55
2497.7
2661.77
2785.68
2866.22
2908.43
2919.03
2901.14
2852.82
2769.83
2650.67
2500.69
2333.09
2166.33
2019.17
1905.55
1831.41
1794.41
1786.05
1795.16
1811.3
1826.9
1837.97
1843.57
1844.65
1842.88
1839.88
1836.8
1834.27
1832.4
1830.94
1829.46
1827.51
1824.89
1821.97
1819.3
1817.67
1814.98
1793.83
1797.65
1799.96
1803.37
1806.77
1809.57
1811.47
1812.59
1813.35
1814.4
1816.27
1818.37
1818.15
1811.64
1796.53
1776.47
1763.78
1777.54
1836.63
1950.73
2114.02
2305.74
2497.33
2662.76
2786.6
2866.07
2907.09
2917.16
2899.67
2852.32
2770.2
2651.21
2500.48
2331.45
2163.12
2014.78
1900.66
1826.7
1790.28
1782.58
1792.2
1808.6
1824.3
1835.43
1841.19
1842.58
1841.23
1838.66
1835.95
1833.68
1832.04
1830.86
1829.78
1828.41
1826.42
1823.77
1820.87
1818.23
1816.5
1813.54
1797.67
1801.48
1803.35
1806.17
1808.84
1810.87
1811.83
1811.92
1811.83
1812.46
1813.84
1813.92
1808.69
1795.08
1775.71
1762.33
1774.35
1831.77
1945.35
2109.72
2303.57
2497.23
2663.67
2787.12
2865.3
2905.05
2914.69
2897.8
2851.69
2770.72
2652.12
2500.79
2330.43
2160.59
2011.13
1896.6
1822.9
1787.11
1780
1789.91
1806.23
1821.6
1832.42
1838.07
1839.66
1838.8
1836.83
1834.65
1832.75
1831.3
1830.28
1829.46
1828.53
1827.18
1825.21
1822.66
1819.95
1817.44
1815.67
1812.37
1801.34
1804.52
1805.62
1807.49
1809.16
1810.17
1810.18
1809.59
1809.32
1809.83
1809.65
1805.05
1792.59
1774
1760.33
1771.13
1827.35
1940.84
2106.6
2302.72
2498.32
2665.36
2787.86
2864.2
2902.32
2911.38
2895.17
2850.51
2770.92
2652.91
2501.13
2329.54
2158.3
2007.85
1893.06
1819.82
1784.86
1778.54
1788.83
1804.99
1819.78
1829.85
1834.9
1836.25
1835.58
1834.15
1832.61
1831.25
1830.14
1829.28
1828.61
1827.94
1827.04
1825.72
1823.85
1821.52
1819.11
1816.82
1815.11
1811.54
1803.96
1805.96
1806.12
1806.88
1807.45
1807.5
1806.9
1806.36
1806.48
1806.18
1801.98
1790.17
1771.85
1757.55
1767.07
1822.3
1936.13
2103.9
2302.89
2500.82
2668.48
2789.68
2863.62
2899.52
2907.58
2891.87
2848.66
2770.55
2653.27
2501.14
2328.42
2155.86
2004.5
1889.59
1816.95
1783.03
1777.74
1788.69
1804.96
1819.31
1828.56
1832.71
1833.36
1832.36
1831.02
1829.9
1829.06
1828.4
1827.82
1827.3
1826.78
1826.14
1825.25
1823.97
1822.26
1820.23
1818.19
1816.22
1814.69
1810.98
1804.85
1805.35
1804.6
1804.3
1803.93
1803.37
1802.91
1803.13
1803.23
1799.84
1788.81
1770.45
1754.88
1762.39
1816.17
1930.34
2100.52
2303.07
2504.01
2672.75
2792.78
2864.14
2897.46
2904.13
2888.56
2846.55
2769.77
2653.11
2500.61
2326.78
2152.98
2000.85
1885.92
1813.99
1781.17
1777.01
1788.8
1805.46
1819.73
1828.52
1831.95
1831.81
1830.14
1828.4
1827.22
1826.59
1826.24
1825.95
1825.62
1825.23
1824.73
1824.06
1823.14
1821.92
1820.37
1818.65
1817.04
1815.48
1814.22
1810.6
1803.72
1802.73
1801.3
1800.15
1799.19
1798.76
1799.26
1800.1
1798.06
1788.44
1770.42
1753.39
1758.15
1809.54
1923.42
2095.95
2302.42
2506.92
2677.24
2796.45
2865.44
2896.29
2901.57
2886.05
2845.02
2769.24
2652.85
2499.66
2324.53
2149.47
1996.66
1881.9
1810.82
1779.17
1776.12
1788.71
1805.81
1820.21
1828.92
1832.08
1831.52
1829.33
1827.05
1825.44
1824.58
1824.21
1824.03
1823.85
1823.58
1823.17
1822.58
1821.8
1820.8
1819.57
1818.14
1816.71
1815.53
1814.42
1813.54
1810.28
1800.77
1798.61
1796.79
1795.15
1794.24
1794.78
1796.39
1795.97
1788.33
1771.37
1753.31
1755.12
1803.39
1916.15
2090.49
2300.81
2509.1
2681.26
2799.85
2866.64
2895.3
2899.57
2884.48
2844.64
2769.79
2653.31
2498.93
2322.02
2145.36
1991.79
1877.3
1807.29
1776.99
1775.09
1788.41
1805.81
1820.27
1828.99
1832.21
1831.69
1829.42
1826.9
1824.89
1823.6
1822.89
1822.53
1822.33
1822.12
1821.81
1821.29
1820.52
1819.53
1818.36
1817.03
1815.62
1814.4
1813.62
1812.99
1812.54
1809.87
1796.6
1793.8
1791.88
1790.23
1790.18
1792.08
1793.24
1787.93
1772.61
1754.06
1753.15
1798.12
1909.28
2084.96
2298.82
2510.72
2684.64
2802.51
2867.09
2893.67
2897.31
2883.19
2845.11
2771.56
2655.05
2499.2
2320
2141.23
1986.53
1872.16
1803.25
1774.45
1773.85
1787.93
1805.55
1819.92
1828.53
1831.81
1831.54
1829.59
1827.25
1825.21
1823.64
1822.52
1821.76
1821.3
1821.03
1820.8
1820.42
1819.74
1818.73
1817.46
1816.03
1814.48
1812.99
1811.88
1811.4
1811.2
1811.17
1809.28
1792.01
1789.11
1787.39
1786.45
1787.82
1789.92
1786.98
1773.75
1755.11
1751.62
1793.26
1902.82
2079.88
2297.24
2512.55
2687.81
2804.52
2866.54
2890.98
2894.18
2881.46
2845.68
2773.97
2657.81
2500.6
2319
2137.8
1981.57
1866.98
1798.96
1771.58
1772.3
1787.18
1805.02
1819.24
1827.62
1830.86
1830.82
1829.29
1827.43
1825.7
1824.2
1822.87
1821.72
1820.85
1820.31
1820.04
1819.83
1819.4
1818.56
1817.31
1815.75
1814.01
1812.18
1810.5
1809.38
1809.08
1809.22
1809.53
1808.45
1787.78
1785.24
1784.15
1784.59
1786.75
1785.62
1774.66
1756.3
1750.23
1788.26
1896.13
2074.96
2296.37
2515.3
2691.58
2806.42
2865.21
2887.14
2889.93
2878.92
2845.86
2776.38
2660.89
2502.59
2318.74
2135.17
1977.37
1862.41
1795.06
1768.86
1770.69
1786.22
1804.19
1818.19
1826.28
1829.4
1829.52
1828.41
1827.09
1825.9
1824.75
1823.52
1822.19
1820.93
1819.97
1819.43
1819.22
1819.07
1818.63
1817.69
1816.26
1814.48
1812.47
1810.34
1808.43
1807.2
1806.94
1807.26
1807.79
1807.4
1784.41
1782.67
1782.79
1784.55
1784.55
1775.6
1757.67
1748.96
1782.93
1888.77
2069.6
2295.83
2519.11
2696.51
2808.93
2863.66
2882.43
2884.6
2875.47
2845.46
2778.52
2663.88
2504.58
2318.58
2132.82
1973.66
1858.53
1791.95
1766.88
1769.62
1785.53
1803.35
1816.9
1824.54
1827.44
1827.65
1826.91
1826.15
1825.56
1824.94
1824.07
1822.85
1821.42
1820.06
1819.08
1818.59
1818.46
1818.37
1817.94
1817
1815.53
1813.65
1811.46
1809.1
1806.97
1805.59
1805.25
1805.59
1806.16
1806.23
1782.16
1781.7
1783.39
1784.34
1777.25
1759.62
1747.95
1777.27
1880.62
2063.55
2295.27
2523.67
2702.61
2812.44
2862.5
2877.45
2878.54
2871.19
2844.42
2780.26
2666.64
2506.35
2318.15
2130.19
1969.83
1854.82
1789.36
1765.7
1769.47
1785.68
1803.13
1815.92
1822.79
1825.18
1825.26
1824.76
1824.49
1824.52
1824.54
1824.21
1823.36
1822.05
1820.53
1819.15
1818.2
1817.77
1817.68
1817.61
1817.24
1816.37
1815
1813.17
1810.94
1808.47
1806.18
1804.64
1804.15
1804.36
1804.83
1805.07
1781.07
1782.49
1784.61
1779.91
1762.88
1747.67
1771.26
1871.43
2056.67
2294.66
2528.92
2709.69
2816.83
2861.93
2872.71
2872.42
2866.61
2842.95
2781.58
2669.04
2507.8
2317.36
2127.13
1965.55
1850.78
1786.69
1764.78
1769.91
1786.68
1803.85
1815.82
1821.71
1823.26
1822.85
1822.23
1822.18
1822.67
1823.31
1823.63
1823.37
1822.48
1821.12
1819.61
1818.29
1817.4
1816.98
1816.87
1816.79
1816.48
1815.77
1814.61
1812.96
1810.82
1808.34
1805.99
1804.33
1803.64
1803.62
1803.88
1804.02
1781.17
1784.43
1782.94
1767.8
1748.93
1765.22
1860.87
2048.51
2293.89
2534.99
2717.81
2821.93
2861.73
2868.27
2866.69
2862.43
2841.7
2782.83
2671.11
2508.78
2316.06
2123.56
1960.78
1846.28
1783.63
1763.6
1770.32
1787.95
1805.18
1816.61
1821.66
1822.35
1821.19
1820.05
1819.74
1820.27
1821.23
1822.11
1822.52
1822.28
1821.41
1820.13
1818.74
1817.53
1816.71
1816.28
1816.1
1815.98
1815.72
1815.21
1814.31
1812.9
1810.94
1808.56
1806.22
1804.49
1803.6
1803.29
1803.28
1803.14
1782.48
1785.21
1773.89
1752.37
1759.83
1848.87
2038.48
2292.5
2541.82
2727.06
2827.68
2861.64
2863.87
2861.34
2859.05
2841.39
2784.8
2673.41
2509.48
2314.13
2119.29
1955.4
1841.32
1780.2
1762.07
1770.37
1788.91
1806.4
1817.64
1822.28
1822.44
1820.71
1818.95
1818.05
1818.12
1818.86
1819.85
1820.69
1821.1
1820.93
1820.21
1819.12
1817.95
1816.93
1816.2
1815.74
1815.46
1815.27
1815.06
1814.72
1814.07
1812.92
1811.16
1808.93
1806.67
1804.89
1803.81
1803.22
1802.92
1802.42
1784.43
1780.37
1758.21
1755.8
1835.65
2026.33
2290.13
2549.1
2737.2
2833.84
2861.38
2859.18
2856.07
2856.33
2842.24
2788.09
2676.78
2510.66
2312.05
2114.39
1949.27
1835.74
1776.37
1760.25
1770.09
1789.43
1807.12
1818.29
1822.82
1822.91
1821.06
1819.02
1817.61
1817.02
1817.12
1817.66
1818.39
1819.07
1819.45
1819.4
1818.91
1818.14
1817.28
1816.5
1815.89
1815.41
1815.05
1814.77
1814.56
1814.33
1813.88
1812.95
1811.38
1809.31
1807.15
1805.35
1804.1
1803.23
1802.66
1801.79
1784.63
1766.98
1753.66
1821.22
2011.96
2287
2557.02
2747.96
2839.81
2860.38
2853.8
2850.56
2853.91
2843.9
2792.62
2681.58
2513.09
2310.67
2109.56
1942.72
1829.56
1772.01
1758.06
1769.51
1789.59
1807.35
1818.35
1822.83
1823.09
1821.51
1819.64
1818.13
1817.11
1816.54
1816.37
1816.53
1816.94
1817.41
1817.75
1817.83
1817.62
1817.22
1816.73
1816.24
1815.78
1815.31
1814.86
1814.49
1814.24
1814.06
1813.72
1812.93
1811.52
1809.61
1807.56
1805.75
1804.33
1803.19
1802.37
1801.15
1778.63
1755.23
1804.83
1994.56
2283.71
2566.76
2759.76
2845.05
2857.81
2847.17
2844.49
2851.45
2845.88
2797.79
2687.39
2516.76
2310.51
2105.62
1936.59
1823.39
1767.41
1755.53
1768.59
1789.4
1807.16
1817.91
1822.27
1822.71
1821.55
1820.13
1818.9
1817.85
1816.93
1816.18
1815.69
1815.53
1815.65
1815.93
1816.21
1816.39
1816.45
1816.41
1816.3
1816.11
1815.81
1815.37
1814.87
1814.4
1814.08
1813.86
1813.55
1812.84
1811.55
1809.78
1807.84
1806.03
1804.45
1803.06
1801.98
1800.42
1765.31
1786.38
1971.42
2280.36
2580.28
2773.94
2849.55
2853.02
2838.75
2837.6
2848.76
2847.8
2803.04
2693.49
2521.01
2311.17
2102.65
1931.45
1818.05
1763.32
1753.15
1767.51
1788.85
1806.56
1817.03
1821.27
1821.88
1821.13
1820.21
1819.39
1818.56
1817.62
1816.61
1815.7
1815.05
1814.72
1814.68
1814.81
1815.03
1815.26
1815.52
1815.78
1815.98
1816.03
1815.87
1815.48
1814.94
1814.41
1813.99
1813.7
1813.35
1812.66
1811.47
1809.84
1808.02
1806.2
1804.47
1802.82
1801.5
1799.59
1766.54
1937.21
2275.95
2600.14
2792.27
2853.53
2845.73
2828.39
2829.87
2845.77
2849.51
2808.08
2699.44
2525.17
2311.83
2099.92
1926.93
1813.69
1760.36
1751.69
1766.89
1788.3
1805.63
1815.75
1819.9
1820.75
1820.44
1819.98
1819.56
1818.98
1818.13
1817.07
1815.98
1815.08
1814.47
1814.17
1814.09
1814.16
1814.33
1814.6
1814.97
1815.39
1815.75
1815.93
1815.83
1815.47
1814.94
1814.38
1813.91
1813.54
1813.11
1812.41
1811.28
1809.79
1808.1
1806.3
1804.43
1802.53
1800.95
1798.67
1863.5
2267.88
2631.14
2816.34
2856.13
2835.64
2816.68
2821.83
2842.54
2850.84
2812.83
2705.26
2529.14
2312.07
2096.67
1922.15
1809.67
1758.31
1751.39
1767.27
1788.28
1804.76
1814.2
1818.2
1819.37
1819.61
1819.7
1819.65
1819.27
1818.46
1817.34
1816.15
1815.11
1814.38
1813.99
1813.85
1813.87
1813.99
1814.18
1814.47
1814.85
1815.26
1815.59
1815.73
1815.6
1815.24
1814.74
1814.21
1813.74
1813.33
1812.83
1812.09
1811.01
1809.65
1808.1
1806.34
1804.36
1802.23
1800.4
1797.74
2211.56
2685.72
2846.4
2852.92
2821.37
2804.96
2814.84
2839.33
2851.42
2817.04
2711.05
2533.19
2312.02
2092.69
1916.58
1805.22
1756.43
1751.8
1768.56
1789.04
1804.3
1812.69
1816.29
1817.72
1818.62
1819.4
1819.87
1819.74
1818.96
1817.71
1816.3
1815.05
1814.16
1813.69
1813.58
1813.71
1813.95
1814.22
1814.5
1814.82
1815.13
1815.39
1815.51
1815.42
1815.14
1814.73
1814.26
1813.82
1813.43
1813.03
1812.49
1811.71
1810.67
1809.44
1808.05
1806.36
1804.3
1801.97
1799.92
1796.87
2855.96
2864.11
2827.32
2800.6
2795.85
2810.92
2836.57
2850.85
2820.31
2716.75
2537.53
2311.97
2088.22
1910.27
1800.17
1754.31
1752.32
1770.22
1790.27
1804.27
1811.41
1814.35
1815.83
1817.29
1818.85
1820.05
1820.42
1819.85
1818.55
1816.9
1815.3
1814.05
1813.31
1813.09
1813.26
1813.68
1814.19
1814.7
1815.15
1815.51
1815.72
1815.72
1815.49
1815.06
1814.51
1813.96
1813.5
1813.16
1812.9
1812.59
1812.07
1811.28
1810.28
1809.18
1807.94
1806.35
1804.26
1801.79
1799.57
1796.15
2791.3
2788.35
2790.08
2797.14
2811.24
2833.65
2848.76
2822.57
2722.35
2542.11
2311.88
2083.32
1903.44
1794.79
1752.11
1752.87
1771.89
1791.53
1804.32
1810.29
1812.51
1813.85
1815.62
1817.81
1819.76
1820.87
1820.88
1819.88
1818.22
1816.33
1814.62
1813.37
1812.72
1812.65
1813.04
1813.71
1814.49
1815.26
1815.92
1816.35
1816.45
1816.18
1815.56
1814.7
1813.8
1813.02
1812.5
1812.24
1812.13
1811.96
1811.53
1810.79
1809.85
1808.87
1807.79
1806.33
1804.28
1801.72
1799.36
1795.61
2799.18
2803.4
2803.47
2809.61
2827.76
2845.02
2824.67
2728.42
2546.88
2311.35
2077.6
1895.96
1789.27
1750.17
1753.75
1773.7
1792.67
1804.19
1809.09
1810.75
1811.95
1813.86
1816.35
1818.8
1820.59
1821.38
1821.08
1819.88
1818.1
1816.15
1814.4
1813.14
1812.5
1812.48
1812.95
1813.78
1814.78
1815.79
1816.64
1817.15
1817.19
1816.69
1815.71
1814.43
1813.12
1812.04
1811.36
1811.09
1811.1
1811.1
1810.83
1810.2
1809.38
1808.54
1807.63
1806.32
1804.34
1801.74
1799.3
1795.24
2799.64
2800.33
2802.99
2819.97
2841.05
2827.76
2735.84
2552.18
2310.05
2070.41
1887.3
1783.41
1748.61
1755.22
1775.88
1793.83
1803.86
1807.7
1808.96
1810.19
1812.24
1814.85
1817.45
1819.58
1820.96
1821.45
1821.05
1819.88
1818.18
1816.3
1814.58
1813.31
1812.64
1812.59
1813.07
1813.95
1815.08
1816.25
1817.24
1817.83
1817.82
1817.14
1815.88
1814.25
1812.56
1811.13
1810.2
1809.82
1809.86
1810
1809.92
1809.5
1808.85
1808.19
1807.45
1806.29
1804.42
1801.82
1799.34
1794.98
2799.46
2800.68
2813.3
2836.62
2831.11
2744.79
2558.7
2308.31
2061.45
1876.85
1776.71
1747.17
1757.22
1778.46
1795.11
1803.44
1806.17
1807.1
1808.5
1810.81
1813.57
1816.2
1818.37
1819.95
1820.93
1821.24
1820.85
1819.8
1818.26
1816.54
1814.93
1813.71
1813.05
1812.97
1813.43
1814.33
1815.5
1816.74
1817.78
1818.37
1818.29
1817.48
1816.01
1814.12
1812.11
1810.35
1809.11
1808.52
1808.48
1808.69
1808.79
1808.62
1808.23
1807.79
1807.23
1806.23
1804.49
1801.92
1799.41
1794.78
2798.5
2806.02
2829.28
2833.31
2755.34
2567.42
2307.02
2051.02
1864.44
1768.81
1745.49
1759.41
1781.19
1796.33
1802.87
1804.52
1805.19
1806.8
1809.45
1812.47
1815.21
1817.4
1819
1820.11
1820.74
1820.88
1820.46
1819.5
1818.14
1816.6
1815.18
1814.1
1813.52
1813.5
1814.01
1814.95
1816.14
1817.37
1818.36
1818.85
1818.64
1817.68
1816.05
1813.96
1811.71
1809.67
1808.13
1807.28
1807.06
1807.23
1807.46
1807.55
1807.48
1807.32
1806.96
1806.13
1804.55
1802.05
1799.54
1794.7
2799.18
2819.79
2834.1
2768.07
2579.21
2306.8
2039.54
1850.48
1760.04
1743.64
1761.58
1783.69
1797.15
1801.93
1802.66
1803.21
1805.07
1808.04
1811.31
1814.27
1816.63
1818.36
1819.53
1820.24
1820.53
1820.4
1819.84
1818.89
1817.65
1816.31
1815.11
1814.25
1813.87
1814.04
1814.71
1815.77
1817.02
1818.21
1819.07
1819.37
1818.96
1817.79
1815.97
1813.71
1811.28
1809.02
1807.24
1806.14
1805.71
1805.77
1806.06
1806.38
1806.65
1806.82
1806.72
1806.09
1804.68
1802.33
1799.88
1794.91
2806.09
2832.02
2783.36
2595.12
2307.81
2026.87
1835.49
1751.48
1742.53
1764.1
1785.88
1797.36
1800.49
1800.56
1801.18
1803.34
1806.55
1810.01
1813.17
1815.79
1817.79
1819.19
1820.02
1820.34
1820.23
1819.74
1818.95
1817.92
1816.75
1815.6
1814.64
1814.06
1813.97
1814.42
1815.35
1816.62
1817.97
1819.16
1819.89
1819.98
1819.32
1817.92
1815.89
1813.43
1810.83
1808.41
1806.48
1805.2
1804.61
1804.55
1804.84
1805.34
1805.94
1806.47
1806.67
1806.26
1805.07
1802.91
1800.58
1795.58
2820.32
2801.58
2617.54
2310.15
2011.79
1819.22
1744.24
1743.63
1767.87
1788.08
1797.05
1798.68
1798.46
1799.36
1801.84
1805.21
1808.74
1812
1814.83
1817.13
1818.86
1819.94
1820.4
1820.27
1819.7
1818.8
1817.72
1816.56
1815.44
1814.46
1813.76
1813.49
1813.73
1814.52
1815.77
1817.3
1818.82
1820.05
1820.72
1820.67
1819.83
1818.23
1816.01
1813.38
1810.62
1808.08
1806.04
1804.67
1803.98
1803.84
1804.12
1804.75
1805.6
1806.45
1806.94
1806.77
1805.81
1803.85
1801.68
1796.69
2819.76
2651.5
2313.97
1991.35
1800.09
1738.82
1748.09
1773.74
1790.67
1796.39
1796.72
1796.68
1798.15
1800.98
1804.42
1807.91
1811.18
1814.12
1816.62
1818.61
1819.96
1820.63
1820.6
1819.97
1818.89
1817.56
1816.16
1814.85
1813.74
1812.93
1812.51
1812.57
1813.19
1814.34
1815.93
1817.73
1819.45
1820.79
1821.51
1821.45
1820.58
1818.93
1816.63
1813.91
1811.05
1808.41
1806.28
1804.83
1804.06
1803.86
1804.11
1804.79
1805.78
1806.83
1807.53
1807.53
1806.73
1804.92
1802.9
1797.9
2722.84
2321.23
1959.44
1775.53
1735.65
1756.42
1781.55
1793.36
1795.26
1794.57
1795.17
1797.54
1800.84
1804.36
1807.8
1811.06
1814.07
1816.71
1818.85
1820.38
1821.22
1821.34
1820.76
1819.58
1817.98
1816.19
1814.45
1812.96
1811.85
1811.2
1811.07
1811.52
1812.54
1814.1
1816.04
1818.12
1820.05
1821.54
1822.38
1822.44
1821.68
1820.14
1817.92
1815.23
1812.36
1809.65
1807.4
1805.81
1804.88
1804.54
1804.69
1805.31
1806.3
1807.37
1808.12
1808.17
1807.43
1805.7
1803.76
1798.72
2373.99
1903.08
1743.92
1737.95
1769.24
1789.79
1794.78
1793.16
1792.06
1793.58
1796.91
1800.78
1804.55
1808.09
1811.45
1814.6
1817.41
1819.71
1821.38
1822.37
1822.64
1822.19
1821.07
1819.37
1817.29
1815.09
1813.03
1811.36
1810.24
1809.77
1809.98
1810.85
1812.34
1814.32
1816.6
1818.92
1821.01
1822.61
1823.55
1823.73
1823.12
1821.74
1819.68
1817.1
1814.27
1811.52
1809.15
1807.34
1806.15
1805.53
1805.46
1805.91
1806.76
1807.71
1808.36
1808.34
1807.55
1805.82
1803.93
1798.86
1728.1
1723.52
1761.31
1787.97
1795.26
1792.79
1789.64
1789.35
1791.76
1795.59
1799.81
1803.95
1807.86
1811.55
1814.99
1818.07
1820.63
1822.56
1823.78
1824.28
1824.06
1823.15
1821.61
1819.54
1817.13
1814.65
1812.39
1810.62
1809.56
1809.32
1809.91
1811.25
1813.23
1815.62
1818.18
1820.64
1822.74
1824.3
1825.19
1825.33
1824.72
1823.36
1821.34
1818.81
1816.01
1813.24
1810.77
1808.78
1807.32
1806.4
1806.05
1806.27
1806.93
1807.69
1808.15
1807.99
1807.1
1805.31
1803.41
1798.37
1790.89
1797.21
1795.55
1789.94
1786.07
1785.47
1787.19
1790.06
1793.55
1797.54
1801.89
1806.32
1810.56
1814.46
1817.92
1820.87
1823.2
1824.84
1825.73
1825.9
1825.36
1824.16
1822.37
1820.12
1817.57
1814.98
1812.67
1810.93
1810.02
1810.06
1811.07
1812.91
1815.36
1818.12
1820.88
1823.36
1825.33
1826.66
1827.28
1827.15
1826.29
1824.71
1822.5
1819.83
1816.94
1814.11
1811.59
1809.52
1807.94
1806.88
1806.39
1806.48
1806.98
1807.57
1807.84
1807.47
1806.4
1804.48
1802.48
1797.42
1780.81
1779.09
1779.27
1780.89
1783.47
1786.09
1788.55
1791.23
1794.59
1798.79
1803.52
1808.32
1812.8
1816.78
1820.2
1823.04
1825.22
1826.69
1827.39
1827.34
1826.59
1825.2
1823.27
1820.92
1818.31
1815.7
1813.38
1811.71
1810.95
1811.27
1812.68
1815
1817.91
1821.03
1823.97
1826.44
1828.25
1829.31
1829.59
1829.11
1827.88
1825.94
1823.4
1820.45
1817.35
1814.39
1811.79
1809.69
1808.12
1807.1
1806.67
1806.8
1807.29
1807.77
1807.83
1807.21
1805.83
1803.59
1801.28
1796.03
1777.27
1778.27
1780.2
1782.15
1784.25
1786.47
1788.99
1792.06
1795.89
1800.49
1805.53
1810.55
1815.18
1819.2
1822.59
1825.31
1827.32
1828.57
1829.02
1828.71
1827.68
1826.04
1823.89
1821.36
1818.62
1815.92
1813.55
1811.87
1811.21
1811.75
1813.51
1816.26
1819.61
1823.09
1826.27
1828.84
1830.63
1831.57
1831.69
1831.01
1829.56
1827.4
1824.63
1821.46
1818.16
1815.03
1812.29
1810.1
1808.49
1807.51
1807.17
1807.41
1807.95
1808.37
1808.24
1807.28
1805.46
1802.68
1799.76
1793.99
1772.93
1774.97
1777.72
1780.54
1783.6
1786.77
1790.07
1793.7
1797.92
1802.82
1808.14
1813.41
1818.2
1822.28
1825.57
1828.08
1829.8
1830.69
1830.74
1830
1828.54
1826.49
1823.97
1821.13
1818.13
1815.21
1812.69
1810.93
1810.29
1811
1813.05
1816.2
1819.99
1823.87
1827.38
1830.17
1832.09
1833.1
1833.25
1832.59
1831.15
1828.98
1826.2
1822.99
1819.64
1816.44
1813.62
1811.33
1809.65
1808.65
1808.35
1808.65
1809.21
1809.54
1809.17
1807.82
1805.44
1801.93
1798.04
1791.27
1767.44
1771.47
1775.88
1780.02
1784.16
1788.2
1792.2
1796.37
1801.01
1806.24
1811.82
1817.27
1822.1
1825.99
1828.87
1830.8
1831.83
1831.98
1831.3
1829.84
1827.73
1825.09
1822.07
1818.84
1815.57
1812.5
1809.96
1808.31
1807.91
1808.98
1811.48
1815.14
1819.45
1823.82
1827.73
1830.81
1832.91
1834.01
1834.15
1833.43
1831.9
1829.64
1826.78
1823.53
1820.15
1816.92
1814.07
1811.77
1810.14
1809.28
1809.24
1809.85
1810.67
1811.11
1810.63
1808.9
1805.83
1801.35
1796
1787.61
)
;

boundaryField
{
    bottomwall
    {
        type            calculated;
        value           nonuniform List<scalar> 
60
(
1783.34
1797.3
1805.37
1810.47
1813.89
1816.25
1817.98
1819.32
1820.44
1821.46
1822.5
1823.59
1824.68
1825.68
1826.58
1827.38
1828.15
1828.94
1829.8
1830.71
1831.66
1832.6
1833.42
1834.03
1834.37
1834.57
1834.96
1835.97
1837.85
1840.14
1841.47
1839.62
1832.58
1820.02
1804.99
1794.73
1800.01
1832.8
1902.79
2013.99
2162.81
2338.23
2524.18
2703.14
2859.52
2981.84
3063.22
3100.51
3093
3041.61
2948.86
2819.62
2661.96
2487.25
2309.29
2142.28
1998.09
1884.61
1802.51
1741.42
)
;
    }
    topwall
    {
        type            calculated;