/*--------------------------------*- C++ -*----------------------------------*\
| =========                 |                                                 |
| \\      /  F ield         | OpenFOAM: The Open Source CFD Toolbox           |
|  \\    /   O peration     | Version:  2406                                  |
|   \\  /    A nd           | Website:  www.openfoam.com                      |
|    \\/     M anipulation  |                                                 |
\*---------------------------------------------------------------------------*/
FoamFile
{
    version     2.0;
    format      ascii;
    arch        "LSB;label=32;scalar=64";
    class       volScalarField;
    location    "20000";
    object      ILambda_1_0;
}
// * * * * * * * * * * * * * * * * * * * * * * * * * * * * * * * * * * * * * //

dimensions      [1 0 -3 0 0 0 0];

internalField   nonuniform List<scalar> 
3600
(
141.867
145.051
146.57
147.401
147.949
148.337
148.619
148.831
148.999
149.14
149.267
149.385
149.499
149.607
149.712
149.814
149.915
150.017
150.122
150.23
150.342
150.455
150.569
150.682
150.793
150.904
151.023
151.16
151.322
151.504
151.683
151.814
151.852
151.778
151.641
151.571
151.786
152.536
154.042
156.415
159.607
163.405
167.469
171.412
174.873
177.576
179.346
180.103
179.832
178.56
176.347
173.302
169.591
165.443
161.133
156.943
153.098
149.71
146.703
143.106
140.126
143.487
145.841
147.062
147.723
148.162
148.486
148.73
148.918
149.071
149.204
149.326
149.441
149.552
149.659
149.762
149.864
149.965
150.069
150.175
150.285
150.397
150.511
150.625
150.736
150.847
150.961
151.088
151.237
151.41
151.594
151.753
151.841
151.824
151.712
151.593
151.642
152.096
153.199
155.123
157.905
161.415
165.376
169.418
173.159
176.275
178.538
179.821
180.077
179.312
177.571
174.938
171.548
167.598
163.343
159.066
155.026
151.392
148.303
144.205
139.31
141.828
144.662
146.503
147.454
147.979
148.339
148.615
148.828
148.998
149.139
149.265
149.383
149.496
149.605
149.71
149.812
149.913
150.016
150.12
150.228
150.34
150.453
150.567
150.68
150.79
150.902
151.022
151.159
151.32
151.501
151.676
151.805
151.843
151.775
151.646
151.588
151.81
152.558
154.049
156.395
159.552
163.317
167.358
171.294
174.763
177.486
179.283
180.068
179.822
178.572
176.382
173.359
169.669
165.54
161.243
157.057
153.184
149.978
145.455
139.032
140.499
143.219
145.609
147.037
147.767
148.186
148.488
148.726
148.916
149.07
149.203
149.324
149.44
149.55
149.657
149.76
149.862
149.963
150.067
150.173
150.283
150.395
150.509
150.622
150.734
150.845
150.959
151.087
151.236
151.408
151.59
151.747
151.834
151.819
151.712
151.599
151.653
152.107
153.199
155.102
157.857
161.339
165.278
169.311
173.057
176.191
178.48
179.791
180.072
179.33
177.609
174.995
171.623
167.689
163.445
159.175
155.092
151.743
146.838
139.019
139.635
141.797
144.414
146.369
147.459
148.016
148.356
148.615
148.825
148.995
149.138
149.264
149.382
149.495
149.603
149.708
149.81
149.912
150.014
150.119
150.226
150.338
150.451
150.565
150.677
150.788
150.9
151.02
151.157
151.318
151.498
151.672
151.799
151.837
151.772
151.648
151.595
151.818
152.561
154.037
156.359
159.489
163.23
167.257
171.191
174.673
177.418
179.242
180.054
179.833
178.604
176.432
173.427
169.753
165.635
161.353
157.107
153.606
148.344
139.121
139.189
140.618
143.072
145.417
146.969
147.788
148.217
148.499
148.725
148.913
149.068
149.202
149.323
149.438
149.548
149.655
149.758
149.86
149.962
150.065
150.171
150.281
150.393
150.507
150.62
150.732
150.842
150.957
151.085
151.234
151.406
151.586
151.741
151.828
151.814
151.71
151.603
151.661
152.112
153.194
155.078
157.807
161.264
165.183
169.208
172.961
176.112
178.426
179.764
180.071
179.352
177.651
175.054
171.698
167.777
163.555
159.21
155.571
149.965
139.264
139.044
139.785
141.776
144.24
146.235
147.434
148.044
148.38
148.62
148.822
148.992
149.136
149.263
149.38
149.493
149.601
149.706
149.808
149.91
150.012
150.117
150.225
150.335
150.449
150.562
150.675
150.786
150.898
151.018
151.156
151.317
151.495
151.667
151.793
151.831
151.768
151.649
151.601
151.825
152.562
154.023
156.323
159.427
163.144
167.157
171.09
174.584
177.351
179.202
180.04
179.843
178.636
176.483
173.495
169.834
165.745
161.372
157.632
151.7
139.392
139.084
139.301
140.683
142.969
145.258
146.886
147.79
148.245
148.515
148.727
148.909
149.065
149.2
149.322
149.436
149.546
149.653
149.756
149.858
149.96
150.063
150.169
150.279
150.391
150.504
150.617
150.729
150.84
150.955
151.083
151.233
151.404
151.582
151.736
151.822
151.809
151.709
151.606
151.667
152.117
153.189
155.055
157.759
161.19
165.09
169.106
172.864
176.033
178.371
179.737
180.07
179.373
177.692
175.114
171.771
167.884
163.56
159.771
153.544
139.451
139.206
139.103
139.884
141.755
144.104
146.11
147.392
148.061
148.404
148.631
148.821
148.989
149.134
149.261
149.379
149.491
149.599
149.704
149.806
149.908
150.01
150.115
150.223
150.333
150.446
150.56
150.672
150.783
150.896
151.016
151.154
151.315
151.492
151.663
151.787
151.825
151.764
151.65
151.606
151.832
152.563
154.01
156.287
159.366
163.06
167.058
170.99
174.495
177.283
179.16
180.026
179.854
178.667
176.534
173.558
169.937
165.735
161.964
155.49
139.419
139.326
139.098
139.392
140.726
142.887
145.122
146.799
147.777
148.267
148.535
148.732
148.907
149.062
149.198
149.32
149.435
149.544
149.651
149.754
149.856
149.958
150.061
150.167
150.277
150.389
150.502
150.615
150.727
150.838
150.954
151.082
151.231
151.401
151.579
151.731
151.816
151.803
151.707
151.61
151.674
152.122
153.184
155.031
157.711
161.116
164.997
169.005
172.768
175.953
178.316
179.708
180.068
179.394
177.734
175.169
171.87
167.861
164.177
157.524
139.319
139.387
139.186
139.164
139.958
141.736
143.99
145.994
147.34
148.067
148.428
148.645
148.823
148.985
149.13
149.259
149.377
149.489
149.597
149.702
149.805
149.906
150.008
150.113
150.221
150.331
150.444
150.558
150.67
150.781
150.894
151.015
151.153
151.313
151.489
151.658
151.781
151.819
151.761
151.65
151.611
151.838
152.564
153.997
156.252
159.305
162.976
166.96
170.89
174.405
177.214
179.118
180.011
179.863
178.699
176.579
173.651
169.9
166.373
159.626
139.204
139.374
139.283
139.121
139.467
140.757
142.819
145.002
146.711
147.753
148.284
148.556
148.741
148.906
149.058
149.195
149.318
149.433
149.543
149.649
149.753
149.854
149.956
150.059
150.165
150.275
150.386
150.5
150.613
150.724
150.836
150.952
151.08
151.229
151.399
151.575
151.725
151.81
151.799
151.706
151.613
151.68
152.127
153.179
155.008
157.663
161.044
164.905
168.905
172.671
175.873
178.26
179.679
180.065
179.416
177.769
175.255
171.819
168.515
161.77
139.121
139.307
139.337
139.174
139.218
140.017
141.718
143.892
145.886
147.282
148.064
148.448
148.661
148.828
148.983
149.127
149.257
149.376
149.487
149.595
149.7
149.803
149.904
150.007
150.111
150.219
150.329
150.442
150.555
150.667
150.779
150.891
151.013
151.151
151.311
151.486
151.654
151.775
151.814
151.757
151.651
151.616
151.844
152.565
153.983
156.217
159.245
162.893
166.863
170.79
174.316
177.145
179.074
179.994
179.873
178.724
176.658
173.588
170.565
163.925
139.087
139.222
139.334
139.247
139.143
139.529
140.781
142.759
144.895
146.625
147.723
148.294
148.576
148.753
148.907
149.055
149.192
149.316
149.431
149.541
149.647
149.751
149.853
149.954
150.058
150.163
150.272
150.384
150.497
150.61
150.722
150.833
150.95
151.079
151.228
151.397
151.571
151.72
151.804
151.794
151.704
151.616
151.686
152.131
153.174
154.985
157.616
160.973
164.815
168.805
172.575
175.792
178.203
179.649
180.062
179.429
177.84
175.178
172.487
166.058
139.09
139.153
139.288
139.294
139.165
139.263
140.064
141.701
143.806
145.785
147.221
148.054
148.465
148.679
148.835
148.982
149.124
149.254
149.374
149.486
149.593
149.698
149.801
149.902
150.005
150.109
150.217
150.327
150.44
150.553
150.665
150.776
150.889
151.011
151.149
151.309
151.483
151.649
151.77
151.808
151.754
151.652
151.621
151.85
152.565
153.97
156.183
159.186
162.812
166.766
170.69
174.226
177.075
179.03
179.978
179.874
178.785
176.569
174.251
168.136
139.109
139.114
139.225
139.3
139.218
139.163
139.579
140.799
142.706
144.797
146.541
147.686
148.299
148.595
148.766
148.91
149.053
149.189
149.314
149.43
149.539
149.645
149.749
149.851
149.952
150.056
150.162
150.27
150.382
150.495
150.608
150.719
150.831
150.948
151.077
151.226
151.394
151.568
151.715
151.798
151.789
151.703
151.619
151.692
152.135
153.168
154.962
157.57
160.902
164.725
168.706
172.479
175.711
178.144
179.619
180.05
179.48
177.74
175.829
170.125
139.128
139.103
139.169
139.27
139.26
139.16
139.302
140.102
141.685
143.728
145.69
147.159
148.038
148.479
148.696
148.843
148.982
149.12
149.251
149.371
149.484
149.592
149.696
149.799
149.901
150.003
150.107
150.215
150.325
150.437
150.551
150.663
150.774
150.887
151.009
151.148
151.307
151.48
151.645
151.764
151.803
151.751
151.653
151.625
151.855
152.565
153.957
156.149
159.128
162.731
166.67
170.591
174.136
177.004
178.986
179.953
179.914
178.676
177.197
171.993
139.144
139.108
139.131
139.224
139.272
139.196
139.18
139.621
140.813
142.659
144.708
146.459
147.646
148.299
148.612
148.78
148.915
149.051
149.185
149.311
149.428
149.537
149.643
149.747
149.849
149.951
150.054
150.16
150.268
150.38
150.493
150.606
150.717
150.829
150.946
151.075
151.224
151.392
151.564
151.71
151.792
151.785
151.701
151.621
151.697
152.138
153.163
154.939
157.524
160.832
164.635
168.607
172.383
175.629
178.087
179.579
180.078
179.362
178.337
173.711
139.162
139.122
139.113
139.178
139.255
139.232
139.157
139.334
140.134
141.669
143.658
145.601
147.095
148.018
148.488
148.713
148.854
148.984
149.117
149.247
149.369
149.482
149.59
149.694
149.797
149.899
150.001
150.105
150.213
150.323
150.435
150.548
150.66
150.772
150.885
151.007
151.146
151.305
151.477
151.64
151.759
151.797
151.748
151.653
151.63
151.861
152.565
153.944
156.116
159.071
162.651
166.575
170.492
174.046
176.935
178.933
179.966
179.788
179.23
175.254
139.189
139.139
139.111
139.142
139.221
139.248
139.18
139.196
139.657
140.824
142.615
144.625
146.379
147.602
148.294
148.627
148.795
148.922
149.05
149.182
149.308
149.425
149.536
149.642
149.745
149.847
149.949
150.052
150.158
150.266
150.378
150.491
150.603
150.715
150.827
150.944
151.073
151.222
151.389
151.56
151.705
151.787
151.78
151.7
151.624
151.703
152.142
153.157
154.917
157.479
160.763
164.547
168.509
172.287
175.549
178.02
179.578
179.945
179.866
176.597
139.233
139.162
139.119
139.121
139.182
139.24
139.211
139.157
139.362
140.16
141.654
143.593
145.517
147.032
147.993
148.495
148.73
148.865
148.987
149.115
149.244
149.366
149.48
149.588
149.693
149.795
149.897
149.999
150.104
150.211
150.321
150.433
150.546
150.658
150.769
150.883
151.006
151.144
151.303
151.474
151.636
151.753
151.792
151.744
151.654
151.634
151.866
152.565
153.931
156.083
159.014
162.571
166.481
170.394
173.957
176.856
178.916
179.828
180.232
177.722
139.293
139.196
139.136
139.113
139.149
139.215
139.228
139.168
139.211
139.687
140.831
142.575
144.548
146.303
147.557
148.285
148.639
148.81
148.929
149.05
149.178
149.304
149.423
149.534
149.64
149.743
149.845
149.947
150.05
150.156
150.264
150.376
150.488
150.601
150.712
150.824
150.942
151.072
151.221
151.387
151.557
151.7
151.781
151.776
151.698
151.627
151.708
152.145
153.152
154.894
157.435
160.695
164.459
168.411
172.193
175.46
177.988
179.437
180.322
178.61
139.363
139.242
139.162
139.118
139.126
139.183
139.227
139.193
139.158
139.386
140.181
141.638
143.533
145.437
146.968
147.966
148.497
148.745
148.878
148.991
149.113
149.24
149.363
149.478
149.586
149.691
149.793
149.895
149.997
150.102
150.209
150.319
150.431
150.543
150.655
150.767
150.881
151.004
151.143
151.301
151.471
151.632
151.748
151.787
151.741
151.654
151.638
151.871
152.565
153.918
156.05
158.957
162.493
166.387
170.297
173.86
176.81
178.773
180.132
179.249
139.429
139.301
139.199
139.135
139.116
139.153
139.209
139.211
139.158
139.225
139.712
140.836
142.537
144.476
146.228
147.51
148.273
148.65
148.826
148.938
149.052
149.175
149.301
149.42
149.532
149.638
149.741
149.843
149.945
150.048
150.154
150.262
150.374
150.486
150.598
150.71
150.822
150.94
151.07
151.219
151.385
151.553
151.695
151.776
151.771
151.697
151.629
151.713
152.148
153.146
154.872
157.391
160.628
164.372
168.315
172.091
175.401
177.845
179.662
179.626
139.477
139.365
139.25
139.163
139.119
139.13
139.182
139.214
139.178
139.16
139.408
140.199
141.623
143.476
145.361
146.905
147.935
148.497
148.759
148.891
148.997
149.112
149.237
149.36
149.476
149.584
149.689
149.791
149.893
149.995
150.1
150.207
150.317
150.429
150.541
150.653
150.765
150.879
151.002
151.141
151.299
151.468
151.627
151.743
151.782
151.738
151.655
151.642
151.875
152.564
153.905
156.018
158.902
162.415
166.296
170.194
173.79
176.669
178.915
179.735
139.493
139.424
139.31
139.205
139.136
139.119
139.154
139.201
139.196
139.151
139.238
139.734
140.839
142.501
144.408
146.157
147.462
148.258
148.658
148.84
148.948
149.054
149.173
149.297
149.417
149.53
149.636
149.739
149.841
149.943
150.046
150.152
150.26
150.371
150.484
150.596
150.708
150.82
150.938
151.068
151.217
151.382
151.549
151.69
151.77
151.767
151.696
151.631
151.718
152.151
153.14
154.851
157.347
160.56
164.288
168.214
172.013
175.266
177.903
179.57
139.473
139.465
139.372
139.258
139.167
139.122
139.133
139.179
139.202
139.166
139.163
139.427
140.214
141.608
143.423
145.289
146.843
147.903
148.494
148.772
148.904
149.003
149.112
149.234
149.356
149.473
149.583
149.687
149.79
149.891
149.994
150.098
150.205
150.315
150.426
150.539
150.651
150.762
150.877
151
151.139
151.297
151.465
151.623
151.737
151.777
151.735
151.656
151.646
151.88
152.564
153.892
155.986
158.847
162.34
166.199
170.11
173.665
176.641
179.132
139.419
139.477
139.426
139.318
139.211
139.14
139.122
139.155
139.193
139.183
139.146
139.249
139.753
140.841
142.467
144.343
146.087
147.413
148.24
148.664
148.854
148.959
149.058
149.171
149.294
149.414
149.527
149.634
149.738
149.84
149.941
150.045
150.15
150.258
150.369
150.481
150.594
150.705
150.818
150.936
151.067
151.215
151.379
151.546
151.685
151.765
151.763
151.694
151.634
151.722
152.153
153.134
154.829
157.304
160.496
164.199
168.128
171.9
175.153
178.427
139.341
139.457
139.461
139.378
139.266
139.172
139.126
139.135
139.175
139.19
139.156
139.166
139.444
140.226
141.592
143.373
145.219
146.782
147.869
148.489
148.783
148.918
149.011
149.113
149.231
149.353
149.47
149.58
149.686
149.788
149.889
149.992
150.096
150.203
150.313
150.424
150.537
150.648
150.76
150.875
150.998
151.137
151.295
151.462
151.619
151.732
151.772
151.733
151.656
151.65
151.884
152.563
153.879
155.954
158.793
162.261
166.113
170.013
173.468
177.464
139.253
139.407
139.469
139.427
139.326
139.218
139.144
139.126
139.154
139.185
139.171
139.142
139.26
139.769
140.841
142.434
144.282
146.019
147.364
148.22
148.667
148.868
148.97
149.062
149.17
149.29
149.41
149.525
149.633
149.736
149.838
149.94
150.043
150.148
150.256
150.367
150.479
150.591
150.703
150.816
150.934
151.065
151.213
151.377
151.542
151.681
151.76
151.759
151.693
151.636
151.726
152.156
153.128
154.807
157.262
160.429
164.116
168.05
171.626
176.262
139.171
139.335
139.446
139.457
139.383
139.273
139.178
139.13
139.137
139.171
139.18
139.147
139.17
139.459
140.236
141.577
143.325
145.153
146.722
147.833
148.481
148.792
148.931
149.019
149.115
149.228
149.349
149.467
149.578
149.684
149.786
149.888
149.99
150.094
150.201
150.31
150.422
150.534
150.646
150.758
150.873
150.996
151.136
151.293
151.459
151.615
151.727
151.767
151.73
151.656
151.653
151.888
152.562
153.866
155.923
158.739
162.183
166.057
169.667
174.844
139.105
139.255
139.396
139.46
139.428
139.332
139.224
139.149
139.129
139.153
139.177
139.161
139.139
139.27
139.783
140.839
142.402
144.223
145.954
147.314
148.198
148.669
148.88
148.982
149.067
149.17
149.287
149.407
149.522
149.631
149.734
149.836
149.938
150.041
150.146
150.254
150.365
150.477
150.589
150.701
150.813
150.932
151.063
151.211
151.374
151.538
151.676
151.755
151.755
151.692
151.638
151.731
152.158
153.122
154.786
157.22
160.358
164.084
167.639
173.24
139.06
139.178
139.328
139.435
139.452
139.386
139.279
139.184
139.134
139.138
139.166
139.17
139.14
139.173
139.472
140.244
141.561
143.279
145.089
146.662
147.797
148.471
148.8
148.944
149.028
149.117
149.226
149.345
149.464
149.576
149.682
149.784
149.886
149.988
150.092
150.199
150.308
150.42
150.532
150.644
150.755
150.871
150.995
151.134
151.29
151.456
151.61
151.722
151.763
151.727
151.657
151.657
151.891
152.561
153.853
155.893
158.675
162.176
165.591
171.487
139.038
139.114
139.251
139.386
139.452
139.427
139.337
139.231
139.155
139.132
139.152
139.17
139.151
139.137
139.279
139.796
140.837
142.372
144.167
145.89
147.265
148.174
148.668
148.892
148.994
149.073
149.17
149.284
149.403
149.519
149.628
149.733
149.834
149.936
150.039
150.144
150.252
150.363
150.475
150.587
150.698
150.811
150.93
151.061
151.209
151.372
151.535
151.671
151.75
151.751
151.691
151.64
151.735
152.16
153.116
154.767
157.164
160.376
163.574
169.625
139.035
139.07
139.178
139.32
139.426
139.448
139.388
139.285
139.19
139.139
139.139
139.161
139.161
139.134
139.177
139.484
140.251
141.546
143.235
145.027
146.604
147.759
148.459
148.807
148.956
149.038
149.121
149.224
149.342
149.46
149.573
149.68
149.783
149.884
149.986
150.09
150.197
150.306
150.418
150.53
150.641
150.753
150.868
150.993
151.132
151.288
151.453
151.606
151.717
151.758
151.724
151.657
151.66
151.895
152.559
153.844
155.844
158.717
161.633
167.699
139.045
139.045
139.118
139.248
139.377
139.444
139.425
139.341
139.237
139.161
139.136
139.15
139.162
139.143
139.135
139.288
139.806
140.834
142.342
144.113
145.828
147.215
148.149
148.666
148.902
149.006
149.08
149.171
149.281
149.4
149.516
149.626
149.731
149.833
149.934
150.037
150.142
150.25
150.361
150.472
150.584
150.696
150.809
150.928
151.059
151.207
151.369
151.531
151.667
151.745
151.747
151.689
151.642
151.739
152.161
153.114
154.725
157.229
159.811
165.754
139.063
139.039
139.074
139.178
139.313
139.417
139.443
139.389
139.291
139.197
139.144
139.14
139.157
139.152
139.128
139.181
139.495
140.256
141.53
143.193
144.968
146.546
147.72
148.445
148.812
148.969
149.047
149.124
149.223
149.338
149.457
149.571
149.678
149.781
149.882
149.984
150.088
150.195
150.304
150.415
150.527
150.639
150.751
150.866
150.991
151.13
151.286
151.45
151.602
151.712
151.754
151.722
151.658
151.663
151.898
152.562
153.807
155.928
158.143
163.836
139.087
139.046
139.05
139.12
139.244
139.369
139.437
139.423
139.344
139.244
139.167
139.139
139.148
139.155
139.135
139.134
139.296
139.816
140.83
142.314
144.061
145.768
147.166
148.122
148.662
148.912
149.018
149.088
149.172
149.278
149.396
149.513
149.624
149.729
149.831
149.932
150.035
150.14
150.248
150.359
150.47
150.582
150.694
150.807
150.926
151.057
151.205
151.367
151.528
151.662
151.74
151.744
151.688
151.644
151.741
152.168
153.082
154.825
156.657
161.988
139.113
139.063
139.042
139.078
139.178
139.307
139.409
139.438
139.39
139.296
139.203
139.149
139.141
139.152
139.144
139.123
139.184
139.505
140.26
141.514
143.152
144.91
146.49
147.681
148.43
148.815
148.98
149.058
149.129
149.223
149.335
149.453
149.568
149.676
149.779
149.881
149.983
150.087
150.193
150.302
150.413
150.525
150.637
150.749
150.864
150.989
151.128
151.284
151.447
151.598
151.707
151.749
151.719
151.658
151.665
151.907
152.533
153.918
155.37
160.248
139.142
139.087
139.048
139.053
139.122
139.241
139.361
139.43
139.421
139.347
139.25
139.173
139.142
139.146
139.148
139.128
139.133
139.303
139.824
140.825
142.286
144.011
145.709
147.116
148.094
148.656
148.92
149.029
149.095
149.174
149.276
149.392
149.51
149.621
149.727
149.829
149.931
150.033
150.138
150.246
150.356
150.468
150.58
150.691
150.805
150.924
151.056
151.203
151.364
151.524
151.658
151.735
151.74
151.687
151.644
151.751
152.141
153.199
154.291
158.647
139.173
139.113
139.064
139.045
139.081
139.177
139.302
139.401
139.433
139.39
139.301
139.21
139.154
139.142
139.147
139.136
139.119
139.188
139.513
140.263
141.499
143.113
144.854
146.434
147.642
148.413
148.817
148.991
149.068
149.134
149.223
149.332
149.45
149.565
149.674
149.778
149.879
149.981
150.085
150.191
150.3
150.411
150.523
150.634
150.746
150.862
150.987
151.126
151.281
151.444
151.594
151.703
151.745
151.717
151.657
151.675
151.881
152.653
153.417
157.209
139.205
139.143
139.087
139.05
139.056
139.124
139.238
139.354
139.424
139.419
139.35
139.256
139.179
139.145
139.144
139.142
139.122
139.133
139.31
139.831
140.82
142.258
143.962
145.652
147.067
148.065
148.649
148.927
149.041
149.104
149.177
149.275
149.389
149.506
149.619
149.725
149.828
149.929
150.032
150.137
150.244
150.354
150.466
150.577
150.689
150.803
150.922
151.054
151.201
151.361
151.52
151.653
151.731
151.736
151.684
151.653
151.726
152.26
152.738
155.951
139.239
139.174
139.114
139.065
139.047
139.084
139.177
139.297
139.394
139.429
139.39
139.305
139.216
139.159
139.143
139.143
139.129
139.115
139.191
139.521
140.265
141.483
143.074
144.8
146.379
147.602
148.395
148.818
149.001
149.079
149.14
149.223
149.329
149.446
149.562
149.671
149.776
149.877
149.979
150.083
150.189
150.298
150.409
150.52
150.632
150.744
150.86
150.985
151.125
151.279
151.441
151.59
151.698
151.741
151.713
151.664
151.65
151.994
152.238
154.879
139.273
139.207
139.143
139.087
139.051
139.059
139.125
139.235
139.348
139.418
139.416
139.352
139.261
139.185
139.149
139.142
139.136
139.116
139.132
139.316
139.837
140.814
142.231
143.915
145.596
147.019
148.036
148.641
148.933
149.052
149.113
149.18
149.274
149.385
149.503
149.616
149.723
149.826
149.927
150.03
150.135
150.242
150.352
150.463
150.575
150.687
150.8
150.92
151.052
151.199
151.359
151.517
151.649
151.726
151.731
151.69
151.628
151.83
151.893
153.994
139.304
139.24
139.175
139.114
139.066
139.05
139.086
139.176
139.292
139.388
139.424
139.39
139.309
139.222
139.164
139.144
139.139
139.123
139.111
139.194
139.528
140.266
141.468
143.037
144.747
146.325
147.561
148.375
148.817
149.011
149.09
149.147
149.224
149.327
149.442
149.558
149.669
149.774
149.876
149.977
150.081
150.187
150.296
150.407
150.518
150.63
150.742
150.858
150.983
151.123
151.277
151.438
151.586
151.694
151.735
151.716
151.64
151.743
151.677
153.286
139.33
139.273
139.209
139.144
139.088
139.053
139.062
139.125
139.232
139.342
139.412
139.414
139.354
139.267
139.191
139.152
139.141
139.13
139.11
139.132
139.322
139.842
140.808
142.205
143.869
145.541
146.97
148.005
148.631
148.938
149.063
149.122
149.184
149.273
149.382
149.499
149.613
149.721
149.824
149.926
150.028
150.133
150.24
150.35
150.461
150.573
150.684
150.798
150.918
151.05
151.197
151.356
151.513
151.645
151.72
151.734
151.666
151.71
151.563
152.74
139.348
139.303
139.242
139.177
139.115
139.067
139.052
139.088
139.175
139.287
139.381
139.419
139.39
139.313
139.228
139.169
139.145
139.135
139.117
139.108
139.197
139.534
140.267
141.452
143.001
144.696
146.272
147.521
148.355
148.815
149.02
149.1
149.154
149.226
149.325
149.439
149.555
149.666
149.772
149.874
149.976
150.079
150.185
150.294
150.404
150.516
150.627
150.74
150.856
150.981
151.121
151.274
151.435
151.582
151.688
151.736
151.694
151.709
151.524
152.339
139.358
139.328
139.275
139.211
139.146
139.089
139.055
139.064
139.126
139.229
139.337
139.406
139.411
139.356
139.272
139.197
139.155
139.139
139.125
139.105
139.132
139.327
139.847
140.802
142.18
143.825
145.488
146.922
147.974
148.619
148.942
149.074
149.131
149.188
149.272
149.379
149.495
149.61
149.719
149.822
149.924
150.026
150.131
150.238
150.348
150.459
150.57
150.682
150.796
150.916
151.048
151.195
151.353
151.51
151.639
151.721
151.713
151.722
151.535
152.06
139.361
139.345
139.304
139.245
139.179
139.116
139.068
139.054
139.089
139.174
139.283
139.376
139.415
139.389
139.316
139.234
139.174
139.146
139.131
139.112
139.105
139.2
139.54
140.267
141.437
142.966
144.646
146.22
147.48
148.333
148.812
149.028
149.111
149.161
149.228
149.323
149.435
149.551
149.664
149.77
149.872
149.974
150.077
150.183
150.292
150.402
150.514
150.625
150.737
150.854
150.979
151.119
151.272
151.432
151.577
151.687
151.717
151.738
151.573
151.879
139.36
139.355
139.327
139.276
139.213
139.147
139.09
139.057
139.066
139.126
139.226
139.331
139.401
139.408
139.357
139.276
139.202
139.158
139.138
139.12
139.101
139.131
139.331
139.85
140.795
142.155
143.782
145.435
146.874
147.942
148.607
148.945
149.084
149.141
149.193
149.272
149.376
149.492
149.607
149.716
149.82
149.922
150.025
150.129
150.236
150.346
150.457
150.568
150.68
150.794
150.914
151.046
151.193
151.351
151.505
151.638
151.704
151.746
151.621
151.773
139.357
139.36
139.344
139.304
139.247
139.181
139.117
139.07
139.056
139.09
139.173
139.279
139.37
139.411
139.388
139.32
139.239
139.178
139.147
139.128
139.106
139.102
139.202
139.545
140.266
141.421
142.931
144.597
146.169
147.439
148.311
148.807
149.035
149.121
149.168
149.231
149.321
149.432
149.548
149.661
149.768
149.871
149.972
150.076
150.181
150.29
150.4
150.511
150.623
150.735
150.852
150.978
151.117
151.27
151.428
151.576
151.673
151.741
151.666
151.72
139.353
139.36
139.354
139.327
139.278
139.215
139.149
139.091
139.058
139.068
139.127
139.224
139.326
139.395
139.406
139.358
139.281
139.208
139.161
139.137
139.116
139.097
139.131
139.336
139.854
140.788
142.13
143.739
145.384
146.827
147.909
148.594
148.947
149.093
149.15
149.199
149.273
149.374
149.488
149.603
149.714
149.819
149.921
150.023
150.127
150.234
150.344
150.454
150.566
150.678
150.792
150.912
151.044
151.191
151.347
151.504
151.626
151.72
151.697
151.702
139.341
139.358
139.36
139.343
139.305
139.248
139.183
139.119
139.072
139.058
139.092
139.172
139.275
139.365
139.406
139.388
139.323
139.244
139.183
139.148
139.125
139.102
139.1
139.204
139.549
140.265
141.406
142.898
144.549
146.118
147.398
148.287
148.802
149.041
149.132
149.176
149.234
149.32
149.428
149.544
149.658
149.766
149.869
149.971
150.074
150.179
150.288
150.398
150.509
150.62
150.733
150.85
150.976
151.115
151.267
151.427
151.566
151.683
151.709
151.702
139.315
139.351
139.362
139.354
139.326
139.279
139.217
139.151
139.093
139.06
139.069
139.127
139.221
139.322
139.391
139.403
139.359
139.285
139.213
139.164
139.136
139.111
139.093
139.131
139.339
139.856
140.78
142.106
143.698
145.334
146.78
147.877
148.579
148.948
149.102
149.16
149.204
149.274
149.371
149.484
149.6
149.711
149.817
149.919
150.021
150.125
150.232
150.341
150.452
150.563
150.675
150.79
150.91
151.042
151.188
151.346
151.497
151.631
151.7
151.708
139.274
139.335
139.36
139.361
139.343
139.305
139.249
139.184
139.121
139.073
139.06
139.093
139.171
139.271
139.36
139.402
139.387
139.325
139.249
139.187
139.149
139.122
139.098
139.098
139.206
139.553
140.264
141.391
142.865
144.503
146.068
147.357
148.263
148.796
149.047
149.142
149.185
149.237
149.319
149.425
149.541
149.655
149.763
149.867
149.969
150.072
150.177
150.286
150.396
150.507
150.618
150.731
150.848
150.974
151.112
151.266
151.421
151.568
151.671
151.709
139.22
139.307
139.351
139.364
139.355
139.327
139.279
139.218
139.152
139.095
139.062
139.071
139.127
139.219
139.317
139.386
139.4
139.36
139.289
139.218
139.167
139.135
139.108
139.089
139.131
139.343
139.858
140.772
142.082
143.658
145.284
146.733
147.842
148.562
148.947
149.11
149.169
149.21
149.275
149.369
149.481
149.597
149.708
149.815
149.917
150.019
150.123
150.23
150.339
150.45
150.561
150.673
150.787
150.908
151.04
151.187
151.342
151.496
151.624
151.701
139.159
139.267
139.333
139.361
139.363
139.344
139.306
139.251
139.186
139.122
139.075
139.061
139.093
139.169
139.268
139.355
139.399
139.386
139.328
139.254
139.191
139.15
139.12
139.093
139.096
139.208
139.556
140.262
141.376
142.834
144.46
146.023
147.321
148.244
148.792
149.056
149.154
149.195
149.242
149.319
149.422
149.537
149.652
149.761
149.866
149.968
150.071
150.176
150.284
150.394
150.505
150.616
150.729
150.846
150.972
151.111
151.263
151.42
151.563
151.681
139.094
139.213
139.301
139.349
139.364
139.356
139.327
139.28
139.22
139.155
139.097
139.065
139.073
139.127
139.216
139.312
139.38
139.396
139.36
139.293
139.223
139.17
139.135
139.105
139.087
139.132
139.346
139.858
140.76
142.049
143.604
145.217
146.665
147.787
148.528
148.933
149.109
149.174
149.215
149.276
149.367
149.476
149.592
149.704
149.811
149.914
150.016
150.12
150.227
150.336
150.446
150.557
150.669
150.784
150.905
151.037
151.182
151.338
151.488
151.645
139.029
139.166
139.271
139.336
139.365
139.365
139.344
139.305
139.249
139.184
139.12
139.073
139.061
139.094
139.171
139.269
139.356
139.399
139.387
139.329
139.255
139.191
139.147
139.115
139.088
139.093
139.212
139.569
140.284
141.407
142.871
144.5
146.067
147.366
148.288
148.832
149.087
149.176
149.207
149.247
149.321
149.424
149.539
149.655
149.765
149.87
149.972
150.075
150.18
150.288
150.398
150.509
150.62
150.733
150.85
150.977
151.116
151.269
151.42
151.608
138.908
139.054
139.182
139.278
139.337
139.362
139.36
139.336
139.293
139.236
139.172
139.112
139.074
139.071
139.113
139.192
139.285
139.36
139.391
139.37
139.313
139.244
139.186
139.144
139.109
139.085
139.114
139.287
139.723
140.522
141.706
143.186
144.781
146.275
147.491
148.342
148.843
149.083
149.175
149.217
149.266
149.344
149.446
149.56
149.674
149.783
149.887
149.99
150.094
150.199
150.307
150.417
150.528
150.64
150.754
150.873
151.002
151.146
151.288
151.508
)
;

boundaryField
{
    bottomwall
    {
        type            opaque;
        refValue        nonuniform List<scalar> 
60
(
143.314
145.512
146.765
147.544
148.059
148.417
148.677
148.876
149.037
149.173
149.297
149.414
149.527
149.634
149.738
149.84
149.941
150.044
150.149
150.259
150.371
150.484
150.598
150.71
150.821
150.933
151.055
151.198
151.367
151.552
151.724
151.836
151.845
151.746
151.606
151.582
151.904
152.828
154.551
157.149
160.529
164.437
168.513
172.368
175.658
178.133
179.647
180.14
179.609
178.088
175.649
172.413
168.563
164.342
160.034
155.913
152.182
148.911
145.93
142.629
)
;
        refGradient     uniform 0;
        valueFraction   uniform 1;