/*--------------------------------*- C++ -*----------------------------------*\
| =========                 |                                                 |
| \\      /  F ield         | OpenFOAM: The Open Source CFD Toolbox           |
|  \\    /   O peration     | Version:  2406                                  |
|   \\  /    A nd           | Website:  www.openfoam.com                      |
|    \\/     M anipulation  |                                                 |
\*---------------------------------------------------------------------------*/
FoamFile
{
    version     2.0;
    format      ascii;
    arch        "LSB;label=32;scalar=64";
    class       volScalarField;
    location    "20000";
    object      ILambda_18_0;
}
// * * * * * * * * * * * * * * * * * * * * * * * * * * * * * * * * * * * * * //

dimensions      [1 0 -3 0 0 0 0];

internalField   nonuniform List<scalar> 
3600
(
143.669
145.901
146.992
147.692
148.161
148.49
148.732
148.92
149.073
149.206
149.328
149.443
149.554
149.661
149.764
149.865
149.967
150.07
150.177
150.287
150.4
150.514
150.627
150.738
150.849
150.963
151.09
151.24
151.415
151.6
151.76
151.847
151.824
151.703
151.574
151.618
152.076
153.194
155.145
157.96
161.502
165.486
169.536
173.27
176.368
178.606
179.862
180.092
179.302
177.538
174.882
171.47
167.502
163.235
158.954
154.927
151.339
148.203
145.129
141.181
144.397
146.572
147.374
147.948
148.339
148.62
148.832
149
149.142
149.269
149.387
149.5
149.609
149.714
149.816
149.917
150.019
150.124
150.233
150.344
150.458
150.571
150.684
150.794
150.905
151.025
151.164
151.329
151.512
151.688
151.813
151.842
151.759
151.617
151.554
151.787
152.566
154.106
156.509
159.72
163.522
167.576
171.498
174.933
177.608
179.352
180.085
179.791
178.496
176.263
173.201
169.48
165.332
161.033
156.87
153.081
149.743
146.6
143.117
139.473
145.109
147.116
147.682
148.164
148.492
148.734
148.922
149.075
149.208
149.33
149.445
149.556
149.663
149.766
149.867
149.969
150.072
150.179
150.289
150.402
150.516
150.629
150.74
150.85
150.965
151.094
151.247
151.423
151.607
151.761
151.837
151.804
151.677
151.553
151.615
152.103
153.257
155.239
158.074
161.621
165.593
169.621
173.329
176.4
178.614
179.847
180.055
179.243
177.457
174.783
171.36
167.39
163.134
158.882
154.907
151.359
148.108
144.753
141.248
138.897
145.769
147.542
147.933
148.347
148.623
148.835
149.003
149.145
149.271
149.39
149.502
149.611
149.716
149.817
149.919
150.021
150.127
150.235
150.346
150.46
150.573
150.685
150.795
150.907
151.028
151.17
151.336
151.52
151.693
151.81
151.828
151.737
151.593
151.539
151.792
152.6
154.17
156.598
159.824
163.627
167.671
171.576
174.989
177.642
179.366
180.078
179.762
178.443
176.188
173.109
169.378
165.23
160.948
156.825
153.071
149.674
146.345
142.884
139.936
138.887
146.353
147.87
148.14
148.501
148.737
148.924
149.077
149.211
149.332
149.448
149.558
149.665
149.768
149.869
149.971
150.075
150.181
150.292
150.404
150.518
150.63
150.741
150.851
150.967
151.098
151.253
151.431
151.614
151.762
151.829
151.786
151.653
151.532
151.608
152.12
153.303
155.314
158.169
161.724
165.692
169.707
173.397
176.448
178.641
179.854
180.041
179.206
177.398
174.703
171.265
167.289
163.042
158.82
154.882
151.313
147.939
144.512
141.274
139.236
139.126
146.855
148.123
148.315
148.634
148.837
149.006
149.147
149.274
149.392
149.504
149.613
149.717
149.819
149.921
150.023
150.129
150.237
150.349
150.462
150.575
150.686
150.796
150.908
151.031
151.175
151.344
151.528
151.697
151.807
151.815
151.716
151.57
151.524
151.796
152.631
154.231
156.684
159.924
163.729
167.764
171.653
175.047
177.68
179.383
180.075
179.736
178.395
176.118
173.021
169.279
165.133
160.873
156.784
153.035
149.563
146.14
142.771
140.101
139.022
139.427
147.274
148.319
148.466
148.749
148.926
149.08
149.213
149.335
149.45
149.56
149.666
149.769
149.871
149.973
150.077
150.184
150.294
150.406
150.52
150.632
150.742
150.852
150.969
151.102
151.26
151.439
151.62
151.763
151.821
151.768
151.63
151.512
151.602
152.138
153.35
155.388
158.263
161.826
165.79
169.793
173.464
176.496
178.669
179.862
180.027
179.17
177.338
174.623
171.17
167.19
162.957
158.765
154.845
151.237
147.778
144.351
141.296
139.411
139.114
139.69
147.62
148.475
148.598
148.849
149.007
149.15
149.276
149.394
149.507
149.615
149.719
149.821
149.923
150.025
150.131
150.24
150.351
150.464
150.577
150.688
150.797
150.91
151.035
151.181
151.352
151.535
151.701
151.802
151.801
151.694
151.547
151.51
151.802
152.664
154.292
156.769
160.023
163.83
167.857
171.729
175.105
177.718
179.401
180.072
179.711
178.347
176.048
172.932
169.181
165.041
160.805
156.74
152.978
149.441
145.975
142.699
140.207
139.139
139.346
139.856
147.902
148.604
148.715
148.938
149.081
149.216
149.337
149.452
149.562
149.668
149.771
149.873
149.975
150.079
150.186
150.296
150.409
150.522
150.633
150.743
150.854
150.972
151.107
151.267
151.447
151.626
151.762
151.811
151.749
151.607
151.493
151.597
152.157
153.398
155.462
158.356
161.927
165.888
169.878
173.532
176.543
178.697
179.869
180.012
179.132
177.278
174.542
171.075
167.094
162.877
158.711
154.796
151.146
147.63
144.229
141.314
139.536
139.158
139.59
139.908
148.134
148.714
148.819
149.018
149.15
149.279
149.396
149.509
149.617
149.721
149.823
149.925
150.027
150.133
150.242
150.353
150.466
150.579
150.689
150.798
150.912
151.038
151.187
151.359
151.543
151.704
151.798
151.787
151.672
151.525
151.497
151.809
152.698
154.354
156.854
160.121
163.93
167.949
171.806
175.162
177.756
179.418
180.068
179.685
178.298
175.976
172.843
169.084
164.953
160.739
156.69
152.907
149.318
145.836
142.645
140.284
139.236
139.332
139.767
139.867
148.325
148.811
148.912
149.092
149.216
149.34
149.454
149.564
149.67
149.773
149.875
149.977
150.081
150.188
150.299
150.411
150.524
150.635
150.744
150.855
150.974
151.112
151.274
151.455
151.631
151.762
151.802
151.731
151.584
151.474
151.594
152.177
153.446
155.537
158.449
162.028
165.985
169.962
173.599
176.591
178.724
179.875
179.997
179.094
177.217
174.46
170.98
167.001
162.801
158.655
154.736
151.047
147.496
144.129
141.328
139.631
139.207
139.542
139.847
139.775
148.484
148.898
148.997
149.16
149.279
149.399
149.511
149.618
149.723
149.825
149.926
150.029
150.135
150.244
150.356
150.468
150.58
150.69
150.8
150.914
151.042
151.193
151.367
151.549
151.706
151.792
151.772
151.651
151.503
151.485
151.816
152.732
154.416
156.939
160.22
164.03
168.04
171.882
175.219
177.793
179.435
180.063
179.658
178.247
175.904
172.753
168.989
164.868
160.674
156.634
152.827
149.198
145.715
142.602
140.343
139.314
139.332
139.708
139.841
139.679
148.619
148.977
149.075
149.225
149.34
149.457
149.566
149.672
149.775
149.877
149.979
150.083
150.19
150.301
150.413
150.526
150.636
150.745
150.856
150.977
151.117
151.281
151.463
151.636
151.76
151.791
151.712
151.561
151.456
151.591
152.198
153.495
155.612
158.543
162.128
166.081
170.046
173.665
176.638
178.751
179.882
179.981
179.055
177.155
174.378
170.887
166.91
162.727
158.596
154.668
150.945
147.371
144.045
141.339
139.706
139.25
139.508
139.796
139.78
139.607
148.736
149.051
149.147
149.287
149.4
149.513
149.62
149.725
149.827
149.928
150.032
150.137
150.246
150.358
150.47
150.582
150.692
150.801
150.916
151.046
151.199
151.375
151.556
151.709
151.787
151.757
151.629
151.482
151.474
151.825
152.768
154.48
157.025
160.318
164.13
168.131
171.958
175.276
177.83
179.452
180.059
179.63
178.196
175.83
172.664
168.896
164.786
160.609
156.571
152.741
149.082
145.608
142.566
140.391
139.378
139.337
139.66
139.809
139.702
139.572
148.838
149.12
149.214
149.347
149.457
149.568
149.674
149.777
149.878
149.981
150.085
150.193
150.303
150.415
150.527
150.638
150.747
150.858
150.98
151.122
151.288
151.47
151.641
151.759
151.78
151.692
151.538
151.439
151.589
152.22
153.545
155.687
158.636
162.228
166.178
170.13
173.732
176.685
178.778
179.887
179.965
179.016
177.091
174.295
170.794
166.823
162.654
158.533
154.593
150.841
147.257
143.972
141.347
139.767
139.287
139.484
139.752
139.771
139.636
139.563
148.929
149.185
149.278
149.405
149.514
149.622
149.726
149.829
149.93
150.034
150.14
150.249
150.36
150.472
150.584
150.693
150.802
150.918
151.05
151.205
151.382
151.563
151.71
151.78
151.741
151.607
151.461
151.463
151.835
152.804
154.543
157.11
160.416
164.229
168.222
172.033
175.333
177.867
179.468
180.053
179.602
178.144
175.756
172.576
168.805
164.706
160.542
156.503
152.651
148.97
145.512
142.534
140.43
139.432
139.344
139.622
139.78
139.71
139.593
139.565
149.011
149.248
149.34
149.462
149.569
149.676
149.778
149.88
149.983
150.087
150.195
150.305
150.417
150.529
150.639
150.748
150.86
150.983
151.127
151.295
151.478
151.645
151.756
151.769
151.673
151.516
151.422
151.588
152.243
153.596
155.763
158.729
162.328
166.273
170.214
173.798
176.731
178.804
179.893
179.948
178.975
177.027
174.213
170.704
166.737
162.581
158.466
154.514
150.738
147.15
143.907
141.353
139.818
139.32
139.466
139.715
139.759
139.652
139.572
139.564
149.087
149.309
149.4
149.518
149.624
149.728
149.83
149.932
150.036
150.142
150.251
150.362
150.474
150.585
150.694
150.804
150.921
151.054
151.212
151.39
151.569
151.711
151.773
151.725
151.585
151.44
151.454
151.846
152.841
154.607
157.196
160.514
164.328
168.312
172.108
175.39
177.903
179.484
180.047
179.572
178.091
175.682
172.488
168.717
164.627
160.473
156.43
152.559
148.862
145.424
142.506
140.462
139.477
139.352
139.592
139.753
139.714
139.609
139.563
139.553
149.158
149.367
149.458
149.573
149.677
149.78
149.882
149.985
150.089
150.197
150.308
150.42
150.531
150.64
150.749
150.862
150.987
151.133
151.303
151.485
151.649
151.753
151.757
151.653
151.494
151.406
151.588
152.267
153.647
155.839
158.822
162.427
166.369
170.297
173.864
176.778
178.83
179.897
179.929
178.933
176.962
174.13
170.614
166.653
162.508
158.396
154.431
150.636
147.049
143.848
141.357
139.86
139.348
139.454
139.684
139.747
139.664
139.582
139.555
139.529
149.225
149.425
149.514
149.627
149.73
149.832
149.934
150.038
150.144
150.253
150.365
150.476
150.587
150.695
150.805
150.923
151.059
151.219
151.398
151.575
151.712
151.765
151.709
151.564
151.42
151.445
151.857
152.879
154.672
157.282
160.611
164.426
168.402
172.183
175.446
177.939
179.499
180.04
179.542
178.036
175.607
172.401
168.63
164.549
160.402
156.354
152.465
148.759
145.343
142.479
140.489
139.516
139.36
139.568
139.73
139.714
139.622
139.565
139.542
139.498
149.288
149.481
149.57
149.68
149.782
149.884
149.987
150.092
150.2
150.31
150.422
150.533
150.642
150.75
150.863
150.99
151.139
151.31
151.492
151.653
151.75
151.745
151.634
151.472
151.391
151.589
152.292
153.699
155.915
158.915
162.526
166.464
170.38
173.93
176.824
178.855
179.901
179.911
178.89
176.897
174.048
170.527
166.57
162.434
158.323
154.345
150.535
146.955
143.794
141.36
139.897
139.373
139.445
139.658
139.735
139.672
139.59
139.552
139.522
139.463
149.35
149.536
149.624
149.733
149.834
149.936
150.04
150.146
150.256
150.367
150.478
150.588
150.696
150.807
150.926
151.064
151.225
151.405
151.58
151.712
151.757
151.692
151.542
151.4
151.437
151.87
152.918
154.737
157.368
160.708
164.524
168.491
172.257
175.502
177.975
179.513
180.032
179.511
177.981
175.532
172.315
168.544
164.471
160.33
156.274
152.37
148.659
145.267
142.455
140.511
139.549
139.369
139.549
139.71
139.712
139.631
139.568
139.536
139.494
139.431
149.409
149.59
149.677
149.785
149.886
149.989
150.094
150.202
150.312
150.424
150.534
150.643
150.751
150.866
150.994
151.144
151.318
151.499
151.656
151.746
151.732
151.614
151.45
151.376
151.591
152.318
153.751
155.992
159.008
162.625
166.558
170.462
173.995
176.87
178.881
179.905
179.891
178.846
176.831
173.967
170.44
166.489
162.359
158.247
154.257
150.436
146.865
143.744
141.361
139.928
139.396
139.439
139.636
139.723
139.676
139.598
139.55
139.515
139.463
139.403
149.466
149.644
149.73
149.837
149.938
150.042
150.149
150.258
150.369
150.48
150.589
150.697
150.808
150.929
151.069
151.232
151.413
151.586
151.712
151.749
151.676
151.52
151.381
151.43
151.884
152.957
154.802
157.453
160.805
164.622
168.581
172.332
175.557
178.011
179.528
180.024
179.478
177.926
175.458
172.23
168.459
164.393
160.255
156.192
152.275
148.562
145.196
142.432
140.53
139.578
139.377
139.533
139.691
139.709
139.638
139.571
139.532
139.49
139.433
139.382
149.522
149.696
149.782
149.889
149.991
150.096
150.204
150.314
150.426
150.536
150.644
150.753
150.868
150.998
151.151
151.325
151.506
151.659
151.741
151.719
151.594
151.429
151.362
151.594
152.345
153.805
156.069
159.1
162.724
166.653
170.544
174.06
176.916
178.905
179.907
179.87
178.801
176.765
173.886
170.355
166.407
162.284
158.169
154.168
150.339
146.78
143.697
141.361
139.954
139.416
139.435
139.618
139.712
139.679
139.604
139.55
139.51
139.461
139.406
139.366
149.577
149.749
149.835
149.941
150.044
150.151
150.26
150.371
150.482
150.591
150.699
150.81
150.932
151.074
151.239
151.42
151.591
151.711
151.74
151.658
151.499
151.363
151.424
151.898
152.998
154.868
157.539
160.902
164.719
168.669
172.406
175.613
178.046
179.541
180.015
179.445
177.869
175.383
172.146
168.376
164.315
160.178
156.108
152.18
148.469
145.13
142.409
140.546
139.604
139.386
139.521
139.675
139.704
139.643
139.575
139.529
139.485
139.433
139.384
139.354
149.631
149.801
149.887
149.994
150.098
150.206
150.317
150.428
150.537
150.645
150.754
150.87
151.002
151.157
151.332
151.512
151.661
151.736
151.705
151.574
151.408
151.349
151.597
152.372
153.858
156.146
159.193
162.822
166.746
170.626
174.125
176.961
178.93
179.909
179.848
178.756
176.698
173.806
170.27
166.327
162.206
158.089
154.078
150.243
146.699
143.653
141.36
139.978
139.435
139.432
139.602
139.7
139.679
139.608
139.55
139.506
139.459
139.407
139.368
139.345
149.685
149.852
149.939
150.047
150.153
150.262
150.373
150.483
150.592
150.7
150.812
150.935
151.079
151.246
151.427
151.595
151.71
151.73
151.641
151.477
151.345
151.418
151.914
153.039
154.934
157.625
160.999
164.816
168.758
172.479
175.668
178.081
179.554
180.005
179.411
177.813
175.309
172.063
168.293
164.236
160.1
156.022
152.086
148.379
145.066
142.388
140.56
139.627
139.394
139.511
139.66
139.699
139.646
139.577
139.526
139.482
139.432
139.386
139.355
139.335
149.738
149.904
149.992
150.101
150.208
150.319
150.429
150.539
150.647
150.756
150.872
151.006
151.163
151.34
151.518
151.663
151.731
151.692
151.553
151.387
151.337
151.602
152.401
153.913
156.223
159.285
162.92
166.84
170.707
174.189
177.006
178.954
179.911
179.826
178.71
176.632
173.726
170.187
166.246
162.128
158.006
153.987
150.149
146.621
143.611
141.358
139.998
139.451
139.431
139.589
139.69
139.678
139.612
139.55
139.503
139.456
139.408
139.369
139.344
139.322
149.79
149.956
150.045
150.156
150.265
150.375
150.485
150.593
150.701
150.813
150.938
151.084
151.253
151.434
151.6
151.708
151.72
151.623
151.456
151.327
151.414
151.93
153.081
155.001
157.712
161.095
164.913
168.846
172.552
175.723
178.115
179.567
179.994
179.376
177.755
175.235
171.981
168.211
164.157
160.019
155.935
151.992
148.292
145.006
142.367
140.571
139.647
139.402
139.502
139.647
139.693
139.648
139.58
139.525
139.479
139.431
139.387
139.355
139.333
139.307
149.842
150.009
150.1
150.212
150.321
150.431
150.54
150.648
150.757
150.875
151.011
151.169
151.347
151.524
151.664
151.725
151.677
151.533
151.367
151.325
151.607
152.43
153.968
156.301
159.378
163.017
166.933
170.789
174.254
177.051
178.977
179.911
179.803
178.663
176.565
173.647
170.104
166.165
162.049
157.922
153.895
150.057
146.546
143.57
141.355
140.016
139.467
139.43
139.577
139.68
139.677
139.615
139.551
139.501
139.454
139.408
139.37
139.343
139.32
139.289
149.895
150.063
150.155
150.268
150.377
150.487
150.595
150.702
150.815
150.942
151.09
151.26
151.441
151.603
151.706
151.71
151.605
151.435
151.311
151.41
151.947
153.123
155.068
157.798
161.191
165.009
168.934
172.625
175.777
178.149
179.579
179.982
179.341
177.698
175.161
171.899
168.129
164.077
159.938
155.847
151.899
148.207
144.948
142.346
140.581
139.666
139.41
139.495
139.636
139.687
139.649
139.582
139.524
139.476
139.43
139.388
139.356
139.331
139.305
139.271
149.947
150.117
150.21
150.324
150.433
150.542
150.649
150.759
150.878
151.015
151.176
151.355
151.53
151.665
151.718
151.663
151.513
151.347
151.314
151.614
152.46
154.024
156.378
159.47
163.115
167.026
170.869
174.318
177.095
179
179.911
179.778
178.615
176.499
173.569
170.022
166.084
161.968
157.837
153.803
149.967
146.474
143.532
141.351
140.032
139.481
139.43
139.567
139.67
139.674
139.617
139.551
139.499
139.452
139.408
139.371
139.343
139.318
139.288
139.253
150.001
150.172
150.266
150.38
150.488
150.596
150.704
150.817
150.946
151.095
151.267
151.448
151.607
151.703
151.699
151.587
151.414
151.294
151.407
151.966
153.167
155.136
157.884
161.287
165.105
169.021
172.698
175.832
178.183
179.59
179.97
179.304
177.64
175.087
171.818
168.047
163.996
159.855
155.758
151.807
148.125
144.892
142.326
140.589
139.682
139.417
139.49
139.625
139.681
139.649
139.584
139.523
139.474
139.429
139.388
139.356
139.33
139.303
139.27
139.238
150.054
150.228
150.322
150.436
150.543
150.65
150.76
150.881
151.02
151.182
151.362
151.536
151.666
151.711
151.648
151.492
151.328
151.303
151.621
152.491
154.08
156.456
159.563
163.212
167.118
170.95
174.381
177.139
179.022
179.91
179.754
178.568
176.432
173.491
169.94
166.003
161.886
157.751
153.712
149.879
146.404
143.494
141.346
140.046
139.494
139.431
139.558
139.662
139.671
139.618
139.552
139.497
139.451
139.408
139.371
139.343
139.316
139.286
139.254
139.226
150.109
150.284
150.378
150.491
150.597
150.705
150.82
150.949
151.101
151.275
151.455
151.61
151.7
151.688
151.569
151.393
151.278
151.405
151.985
153.211
155.204
157.97
161.383
165.201
169.108
172.77
175.886
178.216
179.601
179.956
179.267
177.582
175.014
171.738
167.965
163.915
159.771
155.668
151.716
148.045
144.838
142.306
140.595
139.697
139.424
139.485
139.615
139.675
139.649
139.585
139.523
139.473
139.428
139.389
139.356
139.329
139.301
139.269
139.239
139.218
150.164
150.34
150.434
150.545
150.651
150.762
150.884
151.025
151.189
151.369
151.541
151.666
151.704
151.632
151.472
151.308
151.294
151.629
152.523
154.136
156.534
159.655
163.308
167.21
171.03
174.445
177.182
179.044
179.909
179.728
178.519
176.366
173.413
169.859
165.921
161.803
157.663
153.62
149.792
146.336
143.458
141.341
140.058
139.506
139.432
139.55
139.653
139.668
139.619
139.553
139.496
139.449
139.408
139.372
139.342
139.315
139.285
139.253
139.228
139.212
150.219
150.396
150.489
150.599
150.706
150.822
150.953
151.107
151.282
151.461
151.613
151.696
151.676
151.55
151.372
151.263
151.404
152.004
153.255
155.272
158.057
161.479
165.296
169.195
172.843
175.939
178.248
179.611
179.942
179.229
177.524
174.942
171.658
167.883
163.833
159.685
155.578
151.625
147.966
144.786
142.286
140.6
139.711
139.431
139.481
139.607
139.669
139.648
139.586
139.523
139.471
139.427
139.389
139.356
139.328
139.3
139.269
139.24
139.219
139.205
150.275
150.451
150.543
150.653
150.764
150.887
151.03
151.196
151.376
151.546
151.666
151.696
151.617
151.452
151.29
151.285
151.638
152.555
154.194
156.613
159.747
163.405
167.302
171.11
174.508
177.225
179.065
179.906
179.702
178.471
176.299
173.336
169.777
165.839
161.719
157.575
153.529
149.706
146.271
143.423
141.336
140.069
139.517
139.433
139.543
139.645
139.665
139.619
139.553
139.495
139.448
139.407
139.372
139.342
139.314
139.284
139.253
139.228
139.211
139.197
150.33
150.506
150.597
150.709
150.824
150.957
151.113
151.289
151.468
151.616
151.692
151.664
151.532
151.352
151.248
151.403
152.025
153.301
155.341
158.143
161.574
165.391
169.281
172.914
175.992
178.28
179.62
179.928
179.191
177.465
174.869
171.578
167.802
163.75
159.599
155.487
151.536
147.89
144.736
142.267
140.605
139.723
139.438
139.478
139.599
139.663
139.646
139.587
139.523
139.47
139.426
139.389
139.356
139.327
139.298
139.268
139.24
139.219
139.204
139.186
150.386
150.56
150.651
150.766
150.89
151.035
151.203
151.383
151.55
151.665
151.688
151.601
151.431
151.271
151.276
151.648
152.589
154.251
156.692
159.839
163.501
167.394
171.189
174.57
177.268
179.086
179.903
179.675
178.421
176.233
173.259
169.696
165.757
161.635
157.486
153.438
149.622
146.207
143.388
141.329
140.079
139.527
139.435
139.537
139.638
139.661
139.619
139.554
139.495
139.447
139.407
139.372
139.341
139.312
139.283
139.253
139.229
139.211
139.195
139.174
150.44
150.614
150.706
150.828
150.962
151.119
151.296
151.474
151.618
151.688
151.651
151.513
151.332
151.234
151.403
152.046
153.347
155.41
158.229
161.669
165.486
169.367
172.986
176.045
178.312
179.628
179.912
179.153
177.407
174.797
171.499
167.72
163.666
159.512
155.397
151.448
147.815
144.687
142.248
140.608
139.734
139.444
139.475
139.591
139.657
139.644
139.587
139.523
139.469
139.426
139.388
139.356
139.326
139.297
139.267
139.241
139.22
139.203
139.185
139.16
150.495
150.668
150.765
150.894
151.04
151.21
151.39
151.555
151.664
151.679
151.585
151.411
151.253
151.269
151.658
152.623
154.31
156.77
159.931
163.597
167.485
171.269
174.633
177.31
179.106
179.9
179.647
178.372
176.167
173.183
169.615
165.674
161.549
157.397
153.348
149.54
146.145
143.355
141.323
140.088
139.536
139.437
139.531
139.631
139.657
139.618
139.554
139.495
139.446
139.406
139.371
139.34
139.311
139.282
139.253
139.23
139.211
139.194
139.172
139.146
150.548
150.724
150.827
150.967
151.126
151.304
151.48
151.62
151.683
151.639
151.494
151.312
151.22
151.404
152.069
153.393
155.48
158.316
161.765
165.58
169.453
173.057
176.098
178.343
179.636
179.896
179.113
177.348
174.725
171.419
167.638
163.582
159.424
155.306
151.36
147.743
144.639
142.229
140.61
139.744
139.45
139.473
139.585
139.651
139.642
139.587
139.523
139.469
139.425
139.388
139.355
139.325
139.296
139.267
139.241
139.22
139.203
139.183
139.159
139.134
150.603
150.782
150.894
151.046
151.216
151.397
151.559
151.662
151.67
151.568
151.391
151.235
151.262
151.67
152.657
154.369
156.849
160.023
163.693
167.576
171.348
174.695
177.352
179.125
179.895
179.619
178.323
176.101
173.107
169.534
165.591
161.463
157.307
153.258
149.459
146.084
143.322
141.316
140.095
139.545
139.439
139.527
139.624
139.653
139.617
139.555
139.494
139.445
139.405
139.371
139.34
139.31
139.281
139.253
139.23
139.211
139.193
139.171
139.146
139.124
150.658
150.845
150.968
151.133
151.31
151.486
151.621
151.677
151.626
151.475
151.292
151.207
151.406
152.092
153.441
155.55
158.403
161.859
165.675
169.539
173.128
176.15
178.374
179.643
179.879
179.074
177.29
174.653
171.34
167.555
163.497
159.336
155.215
151.274
147.671
144.593
142.21
140.612
139.754
139.456
139.471
139.579
139.646
139.64
139.587
139.523
139.468
139.424
139.387
139.355
139.324
139.295
139.267
139.241
139.22
139.202
139.182
139.158
139.135
139.116
150.715
150.914
151.048
151.224
151.404
151.563
151.661
151.661
151.552
151.371
151.218
151.255
151.682
152.693
154.428
156.929
160.115
163.788
167.666
171.426
174.756
177.394
179.144
179.89
179.59
178.273
176.035
173.031
169.453
165.507
161.376
157.217
153.168
149.379
146.025
143.29
141.309
140.102
139.554
139.441
139.522
139.618
139.649
139.616
139.555
139.494
139.445
139.405
139.37
139.339
139.309
139.28
139.253
139.23
139.211
139.192
139.17
139.146
139.125
139.11
150.776
150.989
151.135
151.318
151.491
151.622
151.671
151.612
151.456
151.272
151.195
151.408
152.116
153.488
155.62
158.489
161.954
165.769
169.624
173.198
176.201
178.404
179.65
179.862
179.034
177.231
174.581
171.261
167.473
163.411
159.246
155.125
151.188
147.601
144.548
142.191
140.613
139.762
139.461
139.47
139.573
139.64
139.637
139.587
139.523
139.468
139.423
139.387
139.354
139.324
139.294
139.266
139.241
139.22
139.201
139.181
139.158
139.135
139.117
139.105
150.841
151.071
151.227
151.411
151.566
151.658
151.651
151.535
151.351
151.201
151.25
151.695
152.729
154.488
157.008
160.207
163.884
167.757
171.504
174.818
177.434
179.162
179.884
179.561
178.223
175.969
172.955
169.372
165.422
161.288
157.126
153.079
149.301
145.967
143.259
141.301
140.108
139.561
139.443
139.518
139.612
139.645
139.615
139.555
139.494
139.444
139.404
139.37
139.338
139.308
139.28
139.253
139.23
139.21
139.191
139.169
139.146
139.125
139.11
139.102
150.912
151.16
151.322
151.497
151.623
151.665
151.598
151.437
151.253
151.183
151.412
152.14
153.537
155.69
158.576
162.049
165.862
169.709
173.268
176.252
178.433
179.656
179.844
178.993
177.172
174.51
171.182
167.39
163.325
159.157
155.034
151.104
147.532
144.503
142.173
140.614
139.77
139.466
139.469
139.568
139.635
139.635
139.586
139.523
139.468
139.423
139.386
139.353
139.323
139.294
139.266
139.241
139.22
139.2
139.18
139.157
139.135
139.116
139.105
139.106
150.989
151.253
151.413
151.57
151.655
151.64
151.518
151.331
151.185
151.245
151.709
152.766
154.548
157.088
160.298
163.979
167.847
171.582
174.879
177.475
179.179
179.878
179.531
178.172
175.903
172.879
169.291
165.338
161.2
157.036
152.991
149.223
145.911
143.228
141.293
140.114
139.568
139.445
139.515
139.607
139.641
139.613
139.555
139.494
139.444
139.403
139.369
139.338
139.308
139.279
139.253
139.23
139.21
139.19
139.168
139.145
139.124
139.109
139.104
139.118
151.073
151.349
151.498
151.624
151.658
151.584
151.418
151.234
151.172
151.416
152.166
153.586
155.761
158.663
162.143
165.956
169.793
173.338
176.303
178.462
179.661
179.825
178.953
177.113
174.438
171.104
167.307
163.238
159.067
154.944
151.02
147.465
144.46
142.154
140.614
139.777
139.471
139.468
139.563
139.63
139.632
139.585
139.523
139.467
139.422
139.385
139.353
139.322
139.293
139.265
139.241
139.22
139.2
139.179
139.156
139.134
139.115
139.104
139.11
139.138
151.162
151.441
151.569
151.653
151.63
151.501
151.311
151.169
151.241
151.723
152.803
154.608
157.168
160.39
164.074
167.936
171.66
174.939
177.514
179.196
179.871
179.501
178.122
175.837
172.803
169.21
165.252
161.111
156.945
152.903
149.147
145.855
143.198
141.285
140.118
139.575
139.447
139.512
139.602
139.637
139.612
139.555
139.494
139.443
139.403
139.368
139.337
139.307
139.279
139.253
139.23
139.209
139.189
139.167
139.144
139.123
139.108
139.105
139.122
139.159
151.253
151.525
151.619
151.652
151.57
151.399
151.216
151.161
151.421
152.192
153.636
155.832
158.75
162.238
166.049
169.877
173.407
176.353
178.49
179.665
179.806
178.912
177.054
174.367
171.025
167.223
163.151
158.976
154.854
150.937
147.399
144.417
142.136
140.613
139.784
139.476
139.467
139.558
139.625
139.629
139.585
139.523
139.467
139.422
139.385
139.352
139.321
139.292
139.265
139.241
139.219
139.199
139.178
139.155
139.133
139.114
139.105
139.113
139.14
139.174
151.344
151.595
151.644
151.62
151.483
151.291
151.153
151.237
151.738
152.841
154.669
157.247
160.481
164.168
168.026
171.737
174.999
177.554
179.213
179.863
179.47
178.072
175.772
172.728
169.129
165.167
161.022
156.854
152.816
149.072
145.801
143.168
141.277
140.122
139.582
139.449
139.509
139.597
139.633
139.61
139.554
139.494
139.443
139.402
139.368
139.336
139.306
139.278
139.252
139.23
139.209
139.189
139.167
139.143
139.122
139.108
139.107
139.126
139.157
139.178
151.43
151.643
151.64
151.557
151.38
151.199
151.153
151.429
152.221
153.689
155.907
158.839
162.334
166.143
169.962
173.476
176.402
178.516
179.667
179.783
178.867
176.992
174.292
170.942
167.136
163.06
158.884
154.762
150.854
147.333
144.375
142.118
140.612
139.79
139.481
139.467
139.554
139.621
139.626
139.584
139.523
139.467
139.421
139.384
139.351
139.321
139.292
139.265
139.241
139.219
139.199
139.177
139.154
139.132
139.113
139.106
139.116
139.142
139.169
139.171
151.506
151.665
151.603
151.466
151.268
151.133
151.227
151.745
152.869
154.719
157.315
160.562
164.253
168.108
171.811
175.058
177.596
179.234
179.864
179.45
178.033
175.719
172.666
169.06
165.093
160.944
156.773
152.736
149.003
145.75
143.14
141.268
140.126
139.587
139.451
139.506
139.592
139.629
139.608
139.554
139.494
139.443
139.401
139.367
139.336
139.306
139.278
139.252
139.23
139.209
139.188
139.166
139.142
139.121
139.108
139.11
139.13
139.158
139.173
139.155
151.562
151.651
151.535
151.364
151.188
151.159
151.461
152.285
153.784
156.028
158.977
162.477
166.278
170.078
173.565
176.458
178.536
179.65
179.731
178.784
176.885
174.168
170.808
166.996
162.918
158.744
154.63
150.74
147.246
144.32
142.093
140.609
139.796
139.486
139.467
139.55
139.616
139.623
139.582
139.523
139.466
139.42
139.383
139.35
139.32
139.291
139.264
139.24
139.218
139.198
139.176
139.153
139.131
139.113
139.108
139.119
139.144
139.167
139.165
139.127
151.607
151.623
151.453
151.25
151.096
151.17
151.666
152.77
154.604
157.191
160.435
164.133
168.004
171.731
175.01
177.582
179.257
179.92
179.537
178.145
175.851
172.811
169.212
165.245
161.087
156.9
152.843
149.088
145.815
143.186
141.299
140.143
139.593
139.449
139.501
139.588
139.628
139.61
139.557
139.496
139.444
139.403
139.368
139.336
139.307
139.279
139.253
139.231
139.21
139.189
139.166
139.142
139.12
139.108
139.111
139.131
139.159
139.175
139.157
139.091
151.597
151.485
151.289
151.149
151.202
151.642
152.648
154.352
156.792
159.897
163.486
167.297
171.024
174.362
177.045
178.872
179.714
179.521
178.319
176.199
173.308
169.823
165.934
161.821
157.651
153.588
149.797
146.455
143.719
141.694
140.391
139.711
139.476
139.483
139.562
139.615
139.612
139.567
139.509
139.455
139.41
139.374
139.342
139.312
139.284
139.258
139.235
139.213
139.192
139.17
139.146
139.125
139.112
139.112
139.128
139.152
139.168
139.154
139.098
139
)
;

boundaryField
{
    bottomwall
    {
        type            opaque;
        refValue        nonuniform List<scalar> 
60
(
143.314
145.512
146.765
147.544
148.059
148.417
148.677
148.876
149.037
149.173
149.297
149.414
149.527
149.634
149.738
149.84
149.941
150.044
150.149
150.259
150.371
150.484
150.598
150.71
150.821
150.933
151.055
151.198
151.367
151.552
151.724
151.836
151.845
151.746
151.606
151.582
151.904
152.828
154.551
157.149
160.529
164.437
168.513
172.368
175.658
178.133
179.647
180.14
179.609
178.088
175.649
172.413
168.563
164.342
160.034
155.913
152.182
148.911
145.93
142.629
)
;
        refGradient     uniform 0;
        valueFraction   uniform 1;