/*--------------------------------*- C++ -*----------------------------------*\
| =========                 |                                                 |
| \\      /  F ield         | OpenFOAM: The Open Source CFD Toolbox           |
|  \\    /   O peration     | Version:  2406                                  |
|   \\  /    A nd           | Website:  www.openfoam.com                      |
|    \\/     M anipulation  |                                                 |
\*---------------------------------------------------------------------------*/
FoamFile
{
    version     2.0;
    format      ascii;
    arch        "LSB;label=32;scalar=64";
    class       volScalarField;
    location    "20000";
    object      ILambda_8_0;
}
// * * * * * * * * * * * * * * * * * * * * * * * * * * * * * * * * * * * * * //

dimensions      [1 0 -3 0 0 0 0];

internalField   nonuniform List<scalar> 
3600
(
139.046
139.168
139.292
139.358
139.327
139.231
139.143
139.111
139.143
139.22
139.311
139.383
139.406
139.37
139.287
139.188
139.107
139.067
139.073
139.116
139.18
139.248
139.306
139.341
139.345
139.312
139.252
139.195
139.191
139.296
139.56
140.001
140.601
141.307
142.049
142.76
143.397
143.938
144.39
144.768
145.091
145.371
145.612
145.813
145.972
146.085
146.153
146.18
146.169
146.128
146.061
145.976
145.878
145.773
145.67
145.575
145.498
145.452
145.421
145.496
139.141
139.27
139.37
139.361
139.257
139.145
139.097
139.122
139.199
139.296
139.379
139.417
139.392
139.311
139.205
139.112
139.061
139.061
139.102
139.166
139.237
139.299
139.342
139.353
139.327
139.268
139.201
139.173
139.244
139.471
139.88
140.462
141.166
141.92
142.652
143.308
143.867
144.331
144.716
145.044
145.329
145.577
145.787
145.954
146.075
146.151
146.184
146.179
146.141
146.078
145.994
145.897
145.792
145.687
145.589
145.507
145.449
145.431
145.429
145.555
139.19
139.324
139.381
139.314
139.194
139.113
139.106
139.159
139.246
139.337
139.401
139.41
139.356
139.26
139.158
139.085
139.059
139.08
139.132
139.199
139.266
139.32
139.349
139.343
139.301
139.235
139.181
139.194
139.333
139.642
140.133
140.774
141.504
142.249
142.946
143.556
144.069
144.496
144.857
145.167
145.437
145.669
145.861
146.008
146.109
146.166
146.181
146.162
146.113
146.041
145.951
145.851
145.746
145.643
145.552
145.481
145.437
145.437
145.453
145.603
139.252
139.38
139.369
139.251
139.138
139.096
139.126
139.201
139.295
139.378
139.417
139.392
139.311
139.204
139.112
139.063
139.063
139.103
139.166
139.236
139.297
139.34
139.352
139.327
139.269
139.202
139.173
139.242
139.464
139.87
140.448
141.149
141.9
142.629
143.284
143.843
144.308
144.696
145.027
145.315
145.566
145.777
145.946
146.069
146.146
146.18
146.177
146.14
146.078
145.996
145.9
145.796
145.691
145.593
145.51
145.453
145.428
145.448
145.485
145.663
139.329
139.404
139.315
139.179
139.101
139.104
139.162
139.249
139.341
139.406
139.414
139.357
139.256
139.152
139.079
139.056
139.08
139.134
139.203
139.269
139.322
139.351
139.345
139.301
139.234
139.178
139.19
139.33
139.645
140.144
140.794
141.531
142.279
142.974
143.58
144.088
144.51
144.868
145.176
145.446
145.677
145.868
146.014
146.113
146.168
146.182
146.161
146.111
146.038
145.948
145.847
145.742
145.639
145.548
145.477
145.436
145.431
145.472
145.529
145.729
139.406
139.381
139.237
139.122
139.092
139.129
139.205
139.298
139.381
139.421
139.394
139.309
139.199
139.107
139.06
139.063
139.105
139.169
139.238
139.299
139.341
139.353
139.328
139.269
139.2
139.17
139.239
139.465
139.876
140.46
141.166
141.919
142.646
143.298
143.852
144.313
144.699
145.03
145.318
145.569
145.78
145.948
146.07
146.147
146.18
146.176
146.139
146.076
145.994
145.898
145.794
145.689
145.591
145.509
145.452
145.428
145.444
145.507
145.583
145.8
139.443
139.309
139.158
139.092
139.106
139.166
139.252
139.344
139.411
139.418
139.357
139.252
139.146
139.075
139.055
139.081
139.137
139.205
139.271
139.324
139.352
139.346
139.302
139.233
139.175
139.186
139.328
139.648
140.153
140.81
141.551
142.3
142.993
143.594
144.098
144.517
144.872
145.181
145.45
145.681
145.871
146.016
146.115
146.169
146.182
146.16
146.11
146.036
145.946
145.845
145.74
145.637
145.546
145.475
145.435
145.431
145.468
145.551
145.646
145.875
139.406
139.215
139.105
139.092
139.134
139.208
139.3
139.385
139.425
139.396
139.306
139.194
139.101
139.057
139.063
139.107
139.172
139.24
139.301
139.342
139.354
139.329
139.269
139.198
139.166
139.236
139.464
139.881
140.473
141.184
141.939
142.666
143.314
143.863
144.32
144.704
145.034
145.322
145.573
145.784
145.951
146.073
146.148
146.18
146.175
146.138
146.075
145.992
145.895
145.791
145.686
145.588
145.507
145.45
145.427
145.445
145.503
145.605
145.715
145.95
139.306
139.135
139.087
139.112
139.17
139.253
139.347
139.416
139.422
139.356
139.247
139.14
139.07
139.053
139.082
139.14
139.208
139.273
139.325
139.353
139.347
139.302
139.232
139.172
139.182
139.326
139.65
140.162
140.826
141.571
142.32
143.011
143.608
144.107
144.523
144.877
145.185
145.454
145.686
145.875
146.019
146.117
146.169
146.182
146.159
146.108
146.034
145.944
145.843
145.737
145.635
145.544
145.474
145.433
145.431
145.47
145.549
145.668
145.79
146.025
139.19
139.094
139.098
139.141
139.209
139.3
139.389
139.431
139.398
139.303
139.187
139.096
139.054
139.063
139.11
139.175
139.243
139.302
139.344
139.356
139.33
139.269
139.197
139.163
139.232
139.464
139.887
140.485
141.202
141.96
142.686
143.33
143.874
144.328
144.709
145.038
145.326
145.577
145.788
145.955
146.075
146.149
146.18
146.174
146.136
146.073
145.99
145.893
145.789
145.684
145.586
145.505
145.449
145.427
145.445
145.505
145.604
145.737
145.869
146.097
139.109
139.091
139.121
139.172
139.252
139.349
139.421
139.426
139.356
139.242
139.133
139.066
139.052
139.084
139.143
139.21
139.275
139.327
139.355
139.348
139.303
139.231
139.17
139.179
139.324
139.653
140.172
140.842
141.591
142.341
143.029
143.621
144.116
144.529
144.881
145.189
145.458
145.69
145.879
146.022
146.118
146.17
146.181
146.158
146.106
146.032
145.942
145.84
145.735
145.632
145.542
145.472
145.432
145.43
145.47
145.551
145.667
145.811
145.948
146.165
139.081
139.108
139.146
139.207
139.3
139.394
139.437
139.4
139.3
139.181
139.09
139.051
139.064
139.112
139.178
139.245
139.304
139.345
139.357
139.331
139.269
139.195
139.159
139.229
139.464
139.893
140.498
141.221
141.981
142.705
143.345
143.885
144.335
144.714
145.042
145.33
145.581
145.792
145.958
146.077
146.15
146.18
146.173
146.135
146.071
145.988
145.891
145.787
145.682
145.584
145.503
145.447
145.426
145.445
145.506
145.607
145.737
145.887
146.027
146.227
139.092
139.128
139.171
139.25
139.352
139.428
139.431
139.355
139.236
139.126
139.061
139.052
139.086
139.145
139.213
139.277
139.328
139.356
139.35
139.304
139.23
139.167
139.175
139.322
139.655
140.181
140.858
141.612
142.362
143.046
143.634
144.124
144.534
144.885
145.193
145.463
145.694
145.882
146.025
146.12
146.17
146.181
146.157
146.105
146.031
145.94
145.838
145.732
145.63
145.54
145.47
145.431
145.43
145.471
145.553
145.67
145.812
145.965
146.103
146.281
139.115
139.147
139.203
139.3
139.4
139.444
139.402
139.296
139.174
139.084
139.049
139.065
139.115
139.18
139.247
139.305
139.346
139.358
139.332
139.269
139.193
139.155
139.225
139.463
139.899
140.512
141.24
142.003
142.725
143.361
143.896
144.341
144.718
145.046
145.334
145.585
145.796
145.961
146.079
146.151
146.18
146.172
146.133
146.069
145.986
145.889
145.784
145.679
145.582
145.501
145.446
145.425
145.445
145.507
145.609
145.741
145.889
146.041
146.173
146.328
139.133
139.167
139.246
139.355
139.436
139.436
139.354
139.23
139.119
139.057
139.051
139.088
139.148
139.215
139.279
139.329
139.357
139.351
139.304
139.229
139.164
139.171
139.319
139.658
140.191
140.875
141.633
142.383
143.064
143.647
144.133
144.54
144.89
145.197
145.467
145.698
145.886
146.027
146.121
146.171
146.18
146.156
146.103
146.029
145.937
145.836
145.73
145.628
145.538
145.468
145.43
145.429
145.471
145.555
145.673
145.816
145.968
146.114
146.238
146.365
139.146
139.197
139.3
139.407
139.451
139.404
139.291
139.166
139.078
139.047
139.066
139.118
139.183
139.249
139.307
139.347
139.359
139.333
139.269
139.191
139.152
139.221
139.463
139.905
140.525
141.26
142.024
142.745
143.376
143.906
144.348
144.723
145.05
145.339
145.59
145.8
145.964
146.081
146.152
146.18
146.171
146.132
146.067
145.984
145.886
145.782
145.677
145.58
145.499
145.444
145.424
145.445
145.509
145.611
145.744
145.893
146.045
146.182
146.295
146.393
139.161
139.242
139.36
139.445
139.442
139.352
139.223
139.112
139.053
139.051
139.091
139.151
139.218
139.28
139.33
139.358
139.352
139.305
139.228
139.161
139.166
139.316
139.66
140.201
140.892
141.654
142.404
143.082
143.659
144.141
144.545
144.894
145.201
145.471
145.702
145.89
146.03
146.123
146.171
146.18
146.155
146.102
146.027
145.935
145.833
145.728
145.626
145.535
145.467
145.429
145.429
145.472
145.556
145.676
145.819
145.971
146.118
146.243
146.343
146.411
139.188
139.3
139.415
139.46
139.406
139.285
139.158
139.072
139.045
139.068
139.121
139.186
139.251
139.308
139.348
139.361
139.334
139.269
139.189
139.148
139.217
139.462
139.911
140.539
141.28
142.046
142.764
143.391
143.916
144.354
144.727
145.054
145.343
145.594
145.804
145.967
146.083
146.153
146.18
146.171
146.131
146.066
145.982
145.884
145.78
145.675
145.577
145.497
145.443
145.423
145.445
145.51
145.614
145.747
145.897
146.048
146.186
146.297
146.381
146.42
139.234
139.365
139.455
139.447
139.349
139.215
139.104
139.05
139.052
139.093
139.154
139.22
139.282
139.331
139.359
139.353
139.306
139.228
139.158
139.162
139.313
139.663
140.211
140.91
141.676
142.426
143.099
143.672
144.148
144.55
144.898
145.205
145.476
145.707
145.893
146.033
146.124
146.171
146.179
146.153
146.1
146.025
145.933
145.831
145.725
145.623
145.533
145.465
145.428
145.429
145.473
145.558
145.679
145.823
145.976
146.121
146.248
146.342
146.41
146.419
139.296
139.424
139.469
139.407
139.279
139.149
139.067
139.044
139.07
139.124
139.188
139.253
139.309
139.349
139.362
139.336
139.269
139.187
139.144
139.213
139.461
139.917
140.554
141.3
142.068
142.784
143.405
143.926
144.36
144.732
145.058
145.348
145.599
145.808
145.97
146.085
146.154
146.18
146.17
146.129
146.064
145.979
145.882
145.777
145.672
145.575
145.495
145.441
145.423
145.445
145.511
145.616
145.75
145.901
146.052
146.189
146.302
146.378
146.429
146.41
139.368
139.466
139.453
139.345
139.206
139.097
139.047
139.053
139.096
139.157
139.222
139.283
139.332
139.36
139.355
139.307
139.227
139.154
139.157
139.31
139.665
140.222
140.928
141.698
142.447
143.116
143.683
144.156
144.555
144.902
145.21
145.48
145.711
145.897
146.035
146.126
146.172
146.179
146.152
146.098
146.023
145.931
145.829
145.723
145.621
145.531
145.463
145.426
145.428
145.473
145.56
145.682
145.826
145.979
146.125
146.25
146.347
146.404
146.439
146.391
139.434
139.478
139.407
139.271
139.14
139.061
139.044
139.072
139.127
139.191
139.254
139.31
139.35
139.363
139.337
139.27
139.185
139.139
139.208
139.461
139.923
140.568
141.321
142.091
142.804
143.42
143.935
144.366
144.736
145.063
145.352
145.603
145.812
145.974
146.087
146.154
146.18
146.169
146.128
146.062
145.977
145.88
145.775
145.67
145.573
145.493
145.44
145.422
145.445
145.512
145.618
145.754
145.905
146.056
146.193
146.304
146.382
146.42
146.438
146.365
139.48
139.458
139.34
139.196
139.089
139.044
139.054
139.099
139.16
139.224
139.284
139.333
139.361
139.356
139.308
139.227
139.151
139.152
139.307
139.667
140.232
140.946
141.72
142.468
143.133
143.695
144.163
144.56
144.907
145.214
145.485
145.716
145.901
146.038
146.127
146.172
146.178
146.151
146.097
146.021
145.929
145.827
145.721
145.619
145.529
145.462
145.425
145.428
145.474
145.562
145.685
145.83
145.983
146.129
146.254
146.348
146.408
146.427
146.429
146.331
139.494
139.407
139.262
139.131
139.057
139.044
139.075
139.13
139.193
139.256
139.311
139.351
139.364
139.338
139.27
139.183
139.135
139.203
139.459
139.93
140.584
141.342
142.113
142.823
143.434
143.944
144.372
144.741
145.067
145.357
145.608
145.816
145.977
146.089
146.155
146.18
146.168
146.126
146.06
145.975
145.877
145.772
145.668
145.571
145.491
145.438
145.421
145.446
145.514
145.621
145.757
145.909
146.06
146.196
146.307
146.383
146.425
146.425
146.41
146.29
139.471
139.335
139.186
139.082
139.042
139.056
139.102
139.162
139.226
139.286
139.334
139.362
139.358
139.31
139.226
139.148
139.147
139.303
139.67
140.244
140.965
141.743
142.49
143.15
143.706
144.17
144.565
144.911
145.219
145.49
145.72
145.904
146.04
146.128
146.172
146.178
146.15
146.095
146.019
145.927
145.824
145.718
145.616
145.527
145.46
145.424
145.428
145.475
145.564
145.687
145.834
145.987
146.133
146.257
146.351
146.409
146.431
146.413
146.384
146.243
139.414
139.254
139.122
139.052
139.044
139.078
139.132
139.195
139.258
139.312
139.352
139.366
139.34
139.271
139.182
139.13
139.198
139.458
139.937
140.599
141.364
142.136
142.842
143.448
143.952
144.377
144.745
145.072
145.362
145.613
145.82
145.98
146.091
146.156
146.179
146.167
146.125
146.058
145.973
145.875
145.77
145.665
145.569
145.489
145.437
145.42
145.446
145.515
145.623
145.76
145.913
146.064
146.2
146.309
146.385
146.424
146.429
146.393
146.349
146.19
139.335
139.177
139.076
139.041
139.058
139.105
139.165
139.228
139.287
139.335
139.363
139.359
139.311
139.226
139.145
139.141
139.299
139.672
140.255
140.985
141.766
142.511
143.166
143.717
144.177
144.57
144.915
145.224
145.495
145.724
145.908
146.042
146.129
146.173
146.177
146.149
146.093
146.017
145.924
145.822
145.716
145.614
145.525
145.458
145.423
145.427
145.475
145.566
145.69
145.838
145.992
146.137
146.26
146.353
146.41
146.43
146.417
146.365
146.308
146.133
139.248
139.114
139.049
139.046
139.08
139.135
139.197
139.259
139.314
139.353
139.367
139.341
139.272
139.18
139.126
139.193
139.457
139.944
140.615
141.386
142.159
142.861
143.461
143.961
144.383
144.75
145.076
145.366
145.617
145.824
145.983
146.093
146.156
146.179
146.166
146.123
146.057
145.971
145.873
145.768
145.663
145.566
145.487
145.435
145.419
145.446
145.516
145.626
145.764
145.917
146.068
146.204
146.312
146.387
146.425
146.427
146.397
146.33
146.26
146.072
139.167
139.07
139.041
139.061
139.107
139.167
139.23
139.289
139.336
139.364
139.36
139.312
139.226
139.142
139.136
139.295
139.674
140.267
141.005
141.79
142.533
143.183
143.727
144.183
144.574
144.92
145.228
145.5
145.729
145.911
146.045
146.131
146.173
146.176
146.148
146.092
146.015
145.922
145.82
145.714
145.612
145.523
145.456
145.422
145.427
145.476
145.567
145.693
145.841
145.996
146.141
146.263
146.355
146.411
146.431
146.415
146.368
146.288
146.206
146.008
139.103
139.047
139.048
139.083
139.137
139.199
139.261
139.315
139.354
139.368
139.343
139.273
139.179
139.121
139.187
139.455
139.951
140.632
141.409
142.182
142.88
143.474
143.969
144.388
144.754
145.081
145.371
145.622
145.828
145.986
146.094
146.157
146.179
146.165
146.122
146.055
145.969
145.871
145.765
145.661
145.564
145.485
145.434
145.419
145.446
145.517
145.628
145.767
145.921
146.072
146.207
146.315
146.388
146.426
146.427
146.395
146.333
146.239
146.148
145.941
139.061
139.041
139.064
139.11
139.169
139.232
139.29
139.337
139.365
139.362
139.314
139.226
139.138
139.129
139.29
139.677
140.279
141.026
141.814
142.554
143.198
143.737
144.189
144.579
144.924
145.233
145.505
145.733
145.915
146.047
146.132
146.173
146.176
146.146
146.09
146.013
145.92
145.817
145.711
145.61
145.521
145.455
145.421
145.427
145.477
145.569
145.697
145.845
146
146.144
146.266
146.357
146.412
146.431
146.415
146.366
146.29
146.185
146.085
145.874
139.04
139.049
139.086
139.139
139.201
139.263
139.316
139.354
139.368
139.345
139.274
139.177
139.115
139.18
139.453
139.958
140.65
141.433
142.206
142.899
143.486
143.976
144.393
144.759
145.086
145.376
145.627
145.832
145.989
146.096
146.158
146.179
146.164
146.121
146.053
145.967
145.868
145.763
145.658
145.562
145.483
145.432
145.418
145.446
145.519
145.631
145.771
145.925
146.076
146.211
146.317
146.39
146.426
146.427
146.394
146.33
146.241
146.126
146.019
145.806
139.038
139.066
139.112
139.17
139.233
139.292
139.338
139.365
139.363
139.316
139.227
139.135
139.123
139.285
139.679
140.292
141.047
141.838
142.576
143.214
143.747
144.195
144.583
144.929
145.238
145.51
145.738
145.918
146.049
146.133
146.173
146.175
146.145
146.089
146.011
145.918
145.815
145.709
145.607
145.519
145.453
145.42
145.426
145.478
145.571
145.7
145.849
146.004
146.148
146.269
146.359
146.413
146.431
146.414
146.365
146.287
146.187
146.064
145.951
145.739
139.047
139.088
139.141
139.203
139.264
139.317
139.355
139.369
139.346
139.276
139.176
139.11
139.174
139.451
139.965
140.668
141.457
142.229
142.917
143.498
143.984
144.398
144.763
145.09
145.381
145.632
145.836
145.991
146.098
146.158
146.178
146.163
146.119
146.051
145.965
145.866
145.761
145.656
145.56
145.481
145.431
145.417
145.447
145.52
145.633
145.774
145.929
146.08
146.214
146.32
146.391
146.427
146.427
146.393
146.329
146.238
146.128
145.998
145.882
145.673
139.065
139.113
139.172
139.235
139.293
139.339
139.366
139.364
139.318
139.228
139.132
139.116
139.279
139.681
140.306
141.069
141.863
142.597
143.228
143.756
144.201
144.588
144.934
145.243
145.515
145.742
145.922
146.052
146.134
146.173
146.174
146.144
146.087
146.009
145.916
145.813
145.707
145.605
145.517
145.451
145.418
145.426
145.478
145.573
145.703
145.853
146.008
146.152
146.273
146.361
146.414
146.431
146.413
146.364
146.286
146.183
146.065
145.931
145.813
145.608
139.088
139.142
139.204
139.266
139.319
139.355
139.369
139.348
139.278
139.176
139.105
139.166
139.448
139.973
140.686
141.481
142.253
142.935
143.51
143.991
144.403
144.768
145.095
145.387
145.637
145.84
145.994
146.099
146.159
146.178
146.162
146.118
146.049
145.963
145.864
145.758
145.654
145.558
145.48
145.429
145.416
145.447
145.522
145.636
145.778
145.933
146.084
146.218
146.322
146.393
146.427
146.426
146.392
146.327
146.236
146.124
145.999
145.862
145.745
145.545
139.113
139.172
139.237
139.295
139.34
139.366
139.365
139.32
139.229
139.129
139.109
139.273
139.683
140.32
141.092
141.888
142.618
143.243
143.765
144.207
144.593
144.939
145.248
145.52
145.747
145.925
146.054
146.135
146.173
146.174
146.143
146.085
146.007
145.913
145.81
145.704
145.603
145.515
145.45
145.417
145.426
145.479
145.575
145.706
145.857
146.012
146.156
146.276
146.363
146.415
146.431
146.413
146.362
146.284
146.181
146.061
145.932
145.793
145.679
145.485
139.141
139.205
139.268
139.321
139.356
139.37
139.349
139.281
139.175
139.099
139.158
139.445
139.982
140.706
141.507
142.277
142.953
143.521
143.997
144.408
144.773
145.101
145.392
145.641
145.844
145.997
146.101
146.159
146.178
146.161
146.116
146.047
145.961
145.861
145.756
145.651
145.555
145.478
145.428
145.416
145.447
145.523
145.638
145.782
145.937
146.088
146.221
146.325
146.394
146.428
146.426
146.391
146.325
146.234
146.122
145.995
145.863
145.725
145.615
145.426
139.172
139.238
139.298
139.341
139.366
139.365
139.323
139.231
139.126
139.101
139.266
139.685
140.334
141.116
141.914
142.639
143.257
143.773
144.212
144.597
144.944
145.254
145.525
145.751
145.929
146.056
146.136
146.173
146.173
146.141
146.084
146.005
145.911
145.808
145.702
145.601
145.513
145.448
145.416
145.426
145.48
145.577
145.709
145.861
146.016
146.16
146.279
146.365
146.416
146.431
146.412
146.361
146.282
146.179
146.059
145.927
145.795
145.659
145.553
145.368
139.205
139.271
139.323
139.356
139.369
139.351
139.284
139.175
139.093
139.149
139.441
139.99
140.727
141.533
142.3
142.97
143.531
144.004
144.413
144.777
145.106
145.397
145.646
145.848
146
146.102
146.16
146.177
146.16
146.115
146.046
145.959
145.859
145.754
145.649
145.553
145.476
145.427
145.415
145.447
145.525
145.641
145.785
145.941
146.092
146.224
146.327
146.396
146.428
146.425
146.39
146.324
146.232
146.119
145.993
145.859
145.727
145.594
145.495
145.31
139.239
139.3
139.342
139.365
139.365
139.325
139.233
139.123
139.092
139.258
139.687
140.35
141.141
141.94
142.659
143.27
143.781
144.217
144.602
144.949
145.259
145.53
145.756
145.932
146.058
146.137
146.173
146.172
146.14
146.082
146.003
145.909
145.806
145.7
145.598
145.511
145.446
145.415
145.425
145.481
145.58
145.712
145.865
146.02
146.163
146.282
146.367
146.417
146.431
146.411
146.36
146.28
146.177
146.056
145.925
145.79
145.661
145.531
145.44
145.251
139.273
139.325
139.356
139.368
139.352
139.287
139.176
139.087
139.139
139.437
139.999
140.749
141.56
142.324
142.986
143.541
144.01
144.418
144.782
145.111
145.402
145.651
145.852
146.003
146.104
146.16
146.177
146.159
146.113
146.044
145.956
145.857
145.751
145.647
145.551
145.474
145.425
145.414
145.448
145.526
145.644
145.789
145.945
146.096
146.228
146.33
146.397
146.429
146.425
146.389
146.322
146.23
146.117
145.989
145.856
145.722
145.597
145.471
145.386
145.188
139.304
139.344
139.364
139.365
139.328
139.236
139.12
139.082
139.249
139.689
140.367
141.167
141.966
142.679
143.282
143.788
144.223
144.607
144.954
145.264
145.535
145.76
145.935
146.06
146.138
146.173
146.172
146.139
146.08
146.001
145.907
145.803
145.697
145.596
145.509
145.445
145.414
145.425
145.482
145.582
145.716
145.869
146.025
146.167
146.284
146.369
146.418
146.431
146.41
146.358
146.278
146.174
146.053
145.921
145.788
145.656
145.536
145.412
145.335
145.119
139.329
139.356
139.366
139.353
139.291
139.177
139.08
139.128
139.432
140.009
140.772
141.587
142.348
143.002
143.55
144.016
144.423
144.788
145.117
145.408
145.656
145.856
146.005
146.105
146.161
146.176
146.158
146.112
146.042
145.954
145.855
145.749
145.644
145.549
145.472
145.424
145.414
145.448
145.528
145.647
145.793
145.95
146.101
146.231
146.332
146.399
146.429
146.425
146.387
146.321
146.228
146.114
145.987
145.853
145.72
145.592
145.477
145.355
145.283
145.041
139.347
139.362
139.364
139.332
139.241
139.118
139.072
139.239
139.691
140.384
141.195
141.992
142.699
143.294
143.795
144.228
144.612
144.959
145.27
145.54
145.765
145.939
146.062
146.139
146.173
146.171
146.138
146.079
145.999
145.904
145.801
145.695
145.594
145.507
145.443
145.413
145.425
145.483
145.584
145.719
145.873
146.029
146.171
146.287
146.371
146.419
146.431
146.41
146.357
146.276
146.172
146.05
145.918
145.784
145.654
145.53
145.42
145.298
145.229
144.951
139.357
139.364
139.354
139.297
139.18
139.073
139.115
139.426
140.02
140.796
141.616
142.371
143.017
143.559
144.022
144.428
144.793
145.122
145.413
145.661
145.86
146.008
146.107
146.161
146.176
146.157
146.11
146.04
145.952
145.852
145.747
145.642
145.547
145.47
145.422
145.413
145.448
145.529
145.649
145.796
145.954
146.105
146.235
146.335
146.4
146.429
146.424
146.386
146.319
146.225
146.111
145.984
145.85
145.716
145.59
145.47
145.365
145.241
145.171
144.844
139.361
139.362
139.336
139.247
139.117
139.06
139.227
139.693
140.404
141.224
142.019
142.717
143.305
143.802
144.233
144.618
144.965
145.275
145.546
145.769
145.942
146.064
146.139
146.173
146.17
146.137
146.077
145.997
145.902
145.799
145.693
145.592
145.505
145.441
145.412
145.425
145.484
145.586
145.722
145.877
146.033
146.175
146.29
146.373
146.419
146.431
146.409
146.355
146.274
146.169
146.047
145.915
145.781
145.651
145.528
145.413
145.31
145.18
145.105
144.717
139.361
139.355
139.303
139.184
139.066
139.101
139.419
140.031
140.823
141.645
142.393
143.031
143.567
144.027
144.433
144.798
145.127
145.419
145.666
145.864
146.01
146.108
146.161
146.176
146.156
146.109
146.038
145.95
145.85
145.744
145.64
145.545
145.468
145.421
145.412
145.449
145.531
145.652
145.8
145.958
146.109
146.238
146.337
146.401
146.43
146.424
146.385
146.317
146.223
146.109
145.98
145.846
145.713
145.587
145.469
145.358
145.255
145.113
145.027
144.565
139.36
139.34
139.254
139.116
139.047
139.213
139.695
140.425
141.254
142.046
142.735
143.315
143.809
144.239
144.623
144.97
145.281
145.551
145.773
145.945
146.066
146.14
146.173
146.17
146.135
146.075
145.995
145.9
145.796
145.69
145.59
145.503
145.439
145.411
145.424
145.485
145.588
145.726
145.881
146.037
146.179
146.293
146.374
146.42
146.431
146.408
146.354
146.272
146.167
146.044
145.912
145.778
145.648
145.525
145.412
145.303
145.196
145.037
144.933
144.384
139.356
139.31
139.189
139.058
139.084
139.411
140.044
140.852
141.675
142.415
143.044
143.575
144.033
144.439
144.804
145.133
145.424
145.671
145.868
146.013
146.109
146.161
146.175
146.156
146.108
146.037
145.948
145.848
145.742
145.638
145.543
145.466
145.419
145.411
145.449
145.532
145.655
145.804
145.962
146.113
146.241
146.339
146.402
146.43
146.423
146.384
146.316
146.221
146.106
145.977
145.843
145.71
145.584
145.466
145.357
145.247
145.132
144.949
144.819
144.17
139.345
139.263
139.116
139.032
139.197
139.697
140.449
141.286
142.072
142.751
143.325
143.815
144.245
144.629
144.975
145.286
145.556
145.778
145.948
146.068
146.141
146.173
146.169
146.134
146.074
145.993
145.898
145.794
145.688
145.587
145.501
145.438
145.41
145.424
145.486
145.591
145.729
145.885
146.042
146.182
146.296
146.376
146.421
146.43
146.407
146.353
146.27
146.164
146.041
145.909
145.775
145.645
145.523
145.409
145.302
145.188
145.059
144.844
144.679
143.919
139.319
139.197
139.051
139.064
139.401
140.059
140.883
141.706
142.436
143.056
143.583
144.04
144.444
144.809
145.138
145.429
145.676
145.871
146.015
146.11
146.162
146.175
146.155
146.106
146.035
145.946
145.845
145.74
145.635
145.541
145.465
145.418
145.411
145.449
145.534
145.658
145.808
145.967
146.117
146.245
146.342
146.403
146.43
146.423
146.383
146.314
146.219
146.103
145.974
145.84
145.707
145.581
145.464
145.354
145.246
145.124
144.973
144.719
144.51
143.63
139.275
139.121
139.016
139.177
139.699
140.476
141.32
142.098
142.766
143.334
143.822
144.251
144.634
144.981
145.292
145.561
145.782
145.951
146.07
146.141
146.173
146.168
146.133
146.072
145.991
145.895
145.792
145.686
145.585
145.499
145.436
145.408
145.424
145.487
145.593
145.733
145.889
146.046
146.186
146.299
146.378
146.421
146.43
146.406
146.351
146.269
146.162
146.039
145.906
145.772
145.642
145.52
145.407
145.299
145.187
145.051
144.87
144.569
144.304
143.301
139.213
139.048
139.04
139.389
140.077
140.918
141.737
142.455
143.066
143.59
144.046
144.45
144.815
145.144
145.435
145.681
145.875
146.018
146.112
146.162
146.174
146.154
146.105
146.033
145.944
145.843
145.737
145.633
145.538
145.463
145.417
145.41
145.45
145.536
145.661
145.812
145.971
146.121
146.248
146.344
146.405
146.43
146.422
146.382
146.312
146.217
146.101
145.971
145.837
145.704
145.578
145.461
145.352
145.244
145.123
144.965
144.744
144.389
144.059
142.932
139.137
139
139.15
139.702
140.508
141.355
142.121
142.779
143.342
143.829
144.257
144.64
144.986
145.297
145.567
145.787
145.955
146.071
146.142
146.172
146.167
146.132
146.07
145.989
145.893
145.789
145.683
145.583
145.497
145.434
145.407
145.424
145.488
145.595
145.736
145.894
146.05
146.19
146.302
146.379
146.422
146.43
146.405
146.35
146.267
146.16
146.036
145.903
145.768
145.639
145.517
145.404
145.297
145.185
145.05
144.862
144.592
144.177
143.769
142.527
139.057
139.008
139.371
140.1
140.957
141.767
142.471
143.076
143.598
144.053
144.456
144.82
145.149
145.44
145.686
145.879
146.02
146.113
146.162
146.174
146.153
146.103
146.031
145.941
145.841
145.735
145.631
145.536
145.461
145.415
145.409
145.45
145.537
145.664
145.816
145.975
146.125
146.251
146.346
146.406
146.43
146.421
146.381
146.311
146.215
146.098
145.968
145.834
145.701
145.576
145.459
145.349
145.241
145.121
144.964
144.737
144.41
143.93
143.431
142.093
138.986
139.111
139.707
140.548
141.393
142.142
142.79
143.35
143.837
144.263
144.645
144.992
145.303
145.572
145.791
145.958
146.073
146.143
146.172
146.167
146.131
146.069
145.987
145.891
145.787
145.681
145.581
145.495
145.433
145.406
145.424
145.489
145.598
145.74
145.898
146.055
146.194
146.304
146.381
146.423
146.43
146.405
146.349
146.265
146.157
146.033
145.899
145.765
145.636
145.515
145.402
145.294
145.183
145.048
144.86
144.585
144.193
143.643
143.043
141.639
138.955
139.347
140.135
141.002
141.794
142.484
143.085
143.606
144.06
144.462
144.825
145.155
145.446
145.691
145.883
146.022
146.114
146.162
146.173
146.152
146.102
146.029
145.939
145.838
145.733
145.629
145.534
145.459
145.414
145.409
145.45
145.539
145.667
145.82
145.98
146.129
146.255
146.348
146.407
146.43
146.421
146.38
146.309
146.213
146.095
145.965
145.83
145.698
145.573
145.456
145.347
145.239
145.119
144.962
144.735
144.403
143.94
143.315
142.605
141.183
139.022
139.725
140.602
141.428
142.159
142.801
143.36
143.845
144.27
144.651
144.997
145.309
145.578
145.796
145.961
146.075
146.143
146.172
146.166
146.13
146.067
145.985
145.889
145.784
145.679
145.578
145.492
145.431
145.405
145.423
145.489
145.6
145.743
145.902
146.059
146.198
146.307
146.383
146.423
146.43
146.404
146.347
146.263
146.155
146.03
145.896
145.762
145.633
145.512
145.399
145.292
145.181
145.046
144.859
144.583
144.187
143.646
142.944
142.122
140.744
139.282
140.196
141.049
141.814
142.497
143.097
143.617
144.068
144.468
144.831
145.161
145.453
145.697
145.888
146.026
146.115
146.163
146.174
146.151
146.101
146.027
145.937
145.836
145.73
145.626
145.532
145.456
145.411
145.407
145.45
145.54
145.67
145.824
145.985
146.134
146.259
146.351
146.408
146.431
146.421
146.379
146.308
146.211
146.093
145.962
145.827
145.695
145.57
145.453
145.344
145.237
145.118
144.962
144.735
144.402
143.935
143.314
142.531
141.603
140.344
)
;

boundaryField
{
    bottomwall
    {
        type            opaque;
        refValue        uniform 0;
        refGradient     uniform 0;
        valueFraction   uniform 0;
        source          uniform 0;
        value           nonuniform List<scalar> 
60
(
139.046
139.168
139.292
139.358
139.327
139.231
139.143
139.111
139.143
139.22
139.311
139.383
139.406
139.37
139.287
139.188
139.107
139.067
139.073
139.116
139.18
139.248
139.306
139.341
139.345
139.312
139.252
139.195
139.191
139.296
139.56
140.001
140.601
141.307
142.049
142.76
143.397
143.938
144.39
144.768
145.091
145.371
145.612
145.813
145.972
146.085
146.153
146.18
146.169
146.128
146.061
145.976
145.878
145.773
145.67