/*--------------------------------*- C++ -*----------------------------------*\
| =========                 |                                                 |
| \\      /  F ield         | OpenFOAM: The Open Source CFD Toolbox           |
|  \\    /   O peration     | Version:  2406                                  |
|   \\  /    A nd           | Website:  www.openfoam.com                      |
|    \\/     M anipulation  |                                                 |
\*---------------------------------------------------------------------------*/
FoamFile
{
    version     2.0;
    format      ascii;
    arch        "LSB;label=32;scalar=64";
    class       volScalarField;
    location    "20000";
    object      ILambda_12_0;
}
// * * * * * * * * * * * * * * * * * * * * * * * * * * * * * * * * * * * * * //

dimensions      [1 0 -3 0 0 0 0];

internalField   nonuniform List<scalar> 
3600
(
140.346
139.513
139.284
139.064
138.982
138.97
139.004
139.054
139.099
139.128
139.139
139.137
139.129
139.12
139.115
139.116
139.122
139.133
139.145
139.158
139.171
139.182
139.193
139.202
139.212
139.221
139.232
139.244
139.257
139.272
139.287
139.303
139.317
139.331
139.343
139.356
139.371
139.389
139.411
139.437
139.466
139.495
139.521
139.541
139.554
139.563
139.573
139.594
139.632
139.69
139.759
139.821
139.852
139.825
139.725
139.55
139.309
139.025
138.734
138.498
141.319
140.224
139.792
139.37
139.119
138.987
138.954
138.981
139.033
139.086
139.123
139.141
139.141
139.132
139.121
139.113
139.111
139.116
139.125
139.138
139.151
139.164
139.176
139.187
139.197
139.205
139.214
139.224
139.235
139.248
139.262
139.278
139.294
139.309
139.323
139.335
139.347
139.359
139.374
139.394
139.419
139.448
139.48
139.51
139.534
139.549
139.555
139.557
139.566
139.593
139.646
139.725
139.812
139.881
139.899
139.843
139.704
139.487
139.195
138.825
141.971
140.828
140.291
139.747
139.365
139.117
138.992
138.96
138.986
139.038
139.089
139.124
139.141
139.141
139.132
139.121
139.114
139.113
139.118
139.127
139.139
139.153
139.165
139.178
139.188
139.198
139.207
139.216
139.226
139.237
139.25
139.264
139.28
139.296
139.311
139.325
139.338
139.35
139.363
139.378
139.398
139.422
139.451
139.482
139.512
139.537
139.554
139.561
139.565
139.574
139.598
139.646
139.718
139.798
139.859
139.869
139.804
139.663
139.462
139.223
142.7
141.551
140.926
140.268
139.747
139.359
139.113
138.989
138.96
138.988
139.04
139.091
139.126
139.142
139.141
139.131
139.12
139.113
139.112
139.117
139.127
139.139
139.152
139.165
139.177
139.188
139.198
139.207
139.216
139.225
139.236
139.249
139.264
139.28
139.296
139.311
139.325
139.337
139.349
139.362
139.377
139.396
139.421
139.45
139.481
139.512
139.537
139.553
139.561
139.564
139.571
139.596
139.645
139.72
139.805
139.872
139.884
139.815
139.659
139.439
143.371
142.299
141.635
140.905
140.267
139.742
139.355
139.11
138.988
138.961
138.99
139.043
139.094
139.128
139.142
139.141
139.131
139.12
139.113
139.112
139.117
139.127
139.139
139.152
139.165
139.177
139.188
139.198
139.207
139.216
139.225
139.236
139.249
139.264
139.28
139.296
139.311
139.325
139.338
139.349
139.362
139.377
139.396
139.421
139.45
139.482
139.512
139.538
139.555
139.562
139.564
139.57
139.592
139.64
139.715
139.802
139.874
139.891
139.825
139.668
143.963
143.025
142.373
141.62
140.905
140.262
139.737
139.35
139.106
138.987
138.961
138.992
139.046
139.096
139.13
139.143
139.141
139.13
139.119
139.112
139.112
139.117
139.127
139.139
139.153
139.166
139.178
139.188
139.198
139.207
139.216
139.225
139.236
139.249
139.264
139.28
139.296
139.311
139.325
139.338
139.35
139.362
139.377
139.396
139.42
139.449
139.481
139.512
139.539
139.556
139.563
139.565
139.57
139.59
139.637
139.711
139.801
139.876
139.897
139.834
144.448
143.681
143.085
142.363
141.622
140.902
140.258
139.731
139.346
139.103
138.986
138.962
138.994
139.048
139.099
139.131
139.144
139.141
139.13
139.118
139.112
139.111
139.117
139.127
139.139
139.153
139.166
139.178
139.188
139.198
139.207
139.216
139.225
139.236
139.249
139.264
139.28
139.296
139.311
139.326
139.338
139.35
139.362
139.377
139.396
139.42
139.449
139.481
139.513
139.539
139.557
139.565
139.566
139.569
139.587
139.633
139.707
139.8
139.88
139.912
144.822
144.231
143.727
143.081
142.367
141.621
140.899
140.253
139.726
139.341
139.1
138.985
138.963
138.997
139.051
139.101
139.133
139.145
139.141
139.129
139.118
139.111
139.111
139.117
139.127
139.14
139.153
139.166
139.178
139.188
139.198
139.207
139.216
139.225
139.236
139.249
139.264
139.28
139.296
139.312
139.326
139.338
139.35
139.362
139.376
139.395
139.419
139.449
139.481
139.513
139.54
139.558
139.566
139.566
139.568
139.585
139.628
139.703
139.799
139.889
145.093
144.662
144.266
143.726
143.086
142.368
141.621
140.896
140.249
139.721
139.337
139.097
138.984
138.964
138.999
139.054
139.103
139.135
139.145
139.141
139.129
139.117
139.111
139.111
139.117
139.127
139.14
139.153
139.166
139.178
139.189
139.198
139.207
139.216
139.225
139.236
139.249
139.264
139.28
139.296
139.312
139.326
139.338
139.35
139.362
139.376
139.395
139.419
139.448
139.481
139.513
139.541
139.56
139.568
139.567
139.568
139.582
139.625
139.7
139.801
145.282
144.978
144.688
144.266
143.731
143.089
142.37
141.62
140.893
140.244
139.716
139.332
139.094
138.983
138.965
139.001
139.057
139.106
139.136
139.146
139.14
139.128
139.117
139.11
139.111
139.117
139.127
139.14
139.153
139.166
139.178
139.189
139.198
139.207
139.216
139.225
139.236
139.249
139.263
139.28
139.296
139.312
139.326
139.338
139.35
139.362
139.376
139.395
139.419
139.448
139.48
139.513
139.542
139.561
139.569
139.568
139.568
139.58
139.621
139.697
145.417
145.198
144.997
144.688
144.271
143.736
143.093
142.372
141.62
140.891
140.24
139.71
139.327
139.091
138.982
138.966
139.004
139.06
139.108
139.138
139.146
139.14
139.127
139.116
139.11
139.11
139.117
139.127
139.14
139.153
139.166
139.178
139.189
139.198
139.207
139.216
139.225
139.236
139.248
139.263
139.28
139.296
139.312
139.326
139.339
139.35
139.362
139.376
139.394
139.418
139.447
139.48
139.513
139.542
139.562
139.571
139.57
139.567
139.578
139.615
145.521
145.348
145.213
144.996
144.692
144.275
143.741
143.097
142.374
141.619
140.888
140.235
139.705
139.322
139.088
138.981
138.967
139.006
139.062
139.111
139.139
139.147
139.14
139.127
139.115
139.109
139.11
139.117
139.127
139.14
139.153
139.166
139.178
139.189
139.198
139.207
139.216
139.225
139.235
139.248
139.263
139.28
139.296
139.312
139.327
139.339
139.35
139.362
139.376
139.394
139.418
139.447
139.48
139.513
139.543
139.563
139.572
139.571
139.567
139.573
145.617
145.457
145.362
145.21
144.998
144.695
144.28
143.745
143.101
142.376
141.619
140.885
140.23
139.699
139.317
139.084
138.98
138.968
139.009
139.065
139.113
139.141
139.147
139.14
139.126
139.115
139.109
139.11
139.117
139.127
139.14
139.153
139.166
139.178
139.189
139.199
139.207
139.216
139.225
139.235
139.248
139.263
139.28
139.297
139.313
139.327
139.339
139.35
139.362
139.376
139.394
139.417
139.446
139.48
139.513
139.543
139.565
139.574
139.572
139.565
145.715
145.551
145.471
145.357
145.211
145
144.698
144.284
143.75
143.105
142.379
141.618
140.881
140.225
139.693
139.312
139.081
138.979
138.969
139.011
139.068
139.116
139.142
139.148
139.139
139.125
139.114
139.108
139.11
139.117
139.128
139.14
139.153
139.166
139.178
139.189
139.199
139.207
139.216
139.225
139.235
139.248
139.263
139.28
139.297
139.313
139.327
139.339
139.35
139.362
139.375
139.393
139.417
139.446
139.479
139.513
139.544
139.566
139.575
139.572
145.822
145.646
145.565
145.466
145.357
145.211
145.002
144.702
144.289
143.755
143.109
142.381
141.618
140.878
140.22
139.688
139.307
139.078
138.978
138.971
139.014
139.072
139.118
139.144
139.148
139.139
139.125
139.113
139.108
139.11
139.117
139.128
139.14
139.153
139.166
139.178
139.189
139.199
139.207
139.216
139.224
139.235
139.248
139.263
139.28
139.297
139.313
139.327
139.339
139.35
139.362
139.375
139.393
139.417
139.446
139.479
139.513
139.544
139.567
139.577
145.937
145.75
145.661
145.56
145.465
145.355
145.211
145.003
144.705
144.294
143.76
143.113
142.383
141.617
140.875
140.214
139.682
139.302
139.075
138.977
138.972
139.017
139.075
139.121
139.145
139.149
139.138
139.124
139.113
139.108
139.11
139.117
139.128
139.14
139.153
139.166
139.178
139.189
139.199
139.207
139.216
139.224
139.235
139.248
139.263
139.28
139.297
139.313
139.327
139.34
139.35
139.362
139.375
139.393
139.416
139.445
139.479
139.513
139.545
139.568
146.053
145.866
145.765
145.656
145.559
145.463
145.354
145.211
145.005
144.708
144.298
143.765
143.117
142.385
141.617
140.872
140.209
139.676
139.296
139.071
138.977
138.974
139.02
139.078
139.124
139.147
139.149
139.138
139.123
139.112
139.107
139.109
139.117
139.128
139.14
139.153
139.166
139.178
139.189
139.199
139.207
139.215
139.224
139.235
139.247
139.263
139.28
139.297
139.313
139.328
139.34
139.35
139.361
139.375
139.392
139.416
139.445
139.478
139.513
139.546
146.164
145.987
145.879
145.761
145.655
145.557
145.461
145.353
145.211
145.006
144.712
144.303
143.77
143.122
142.388
141.617
140.869
140.204
139.669
139.291
139.068
138.976
138.975
139.023
139.081
139.126
139.148
139.149
139.137
139.123
139.111
139.107
139.109
139.117
139.128
139.14
139.153
139.166
139.178
139.189
139.199
139.207
139.215
139.224
139.234
139.247
139.263
139.28
139.297
139.314
139.328
139.34
139.351
139.361
139.375
139.392
139.415
139.444
139.478
139.514
146.261
146.107
145.998
145.876
145.76
145.653
145.555
145.459
145.352
145.211
145.008
144.715
144.308
143.775
143.126
142.39
141.616
140.865
140.198
139.663
139.286
139.065
138.975
138.977
139.026
139.084
139.129
139.15
139.149
139.137
139.122
139.111
139.106
139.109
139.117
139.128
139.14
139.153
139.166
139.179
139.19
139.199
139.208
139.215
139.224
139.234
139.247
139.262
139.28
139.297
139.314
139.328
139.34
139.351
139.361
139.374
139.392
139.415
139.444
139.478
146.337
146.218
146.115
145.997
145.876
145.759
145.651
145.553
145.457
145.35
145.21
145.01
144.718
144.312
143.781
143.131
142.393
141.616
140.862
140.193
139.657
139.28
139.061
138.975
138.979
139.029
139.088
139.131
139.151
139.149
139.136
139.121
139.11
139.106
139.109
139.117
139.128
139.141
139.153
139.166
139.179
139.19
139.199
139.208
139.215
139.224
139.234
139.247
139.262
139.28
139.297
139.314
139.328
139.34
139.351
139.361
139.374
139.392
139.415
139.444
146.385
146.311
146.221
146.115
145.996
145.875
145.758
145.65
145.551
145.455
145.349
145.21
145.011
144.722
144.317
143.786
143.135
142.395
141.615
140.858
140.187
139.65
139.274
139.058
138.974
138.981
139.032
139.091
139.134
139.152
139.15
139.136
139.12
139.109
139.106
139.109
139.117
139.128
139.141
139.154
139.166
139.179
139.19
139.199
139.208
139.215
139.224
139.234
139.247
139.262
139.28
139.297
139.314
139.329
139.341
139.351
139.361
139.374
139.391
139.414
146.402
146.379
146.309
146.223
146.115
145.996
145.874
145.757
145.648
145.549
145.453
145.347
145.21
145.013
144.725
144.322
143.792
143.14
142.398
141.615
140.855
140.181
139.644
139.269
139.055
138.974
138.983
139.036
139.095
139.136
139.153
139.15
139.135
139.119
139.109
139.106
139.109
139.117
139.128
139.141
139.154
139.166
139.179
139.19
139.2
139.208
139.215
139.224
139.234
139.247
139.262
139.28
139.298
139.314
139.329
139.341
139.351
139.361
139.374
139.391
146.384
146.417
146.373
146.312
146.222
146.115
145.996
145.874
145.756
145.646
145.547
145.451
145.346
145.21
145.014
144.728
144.327
143.797
143.145
142.401
141.615
140.851
140.175
139.637
139.263
139.051
138.973
138.985
139.039
139.098
139.139
139.154
139.149
139.134
139.118
139.108
139.105
139.109
139.117
139.128
139.141
139.154
139.166
139.179
139.19
139.2
139.208
139.215
139.224
139.234
139.246
139.262
139.28
139.298
139.315
139.329
139.341
139.351
139.361
139.373
146.332
146.42
146.406
146.377
146.312
146.223
146.115
145.996
145.873
145.755
145.645
145.545
145.449
145.344
145.209
145.015
144.732
144.332
143.803
143.15
142.403
141.614
140.848
140.169
139.63
139.257
139.048
138.973
138.987
139.043
139.102
139.141
139.155
139.149
139.133
139.118
139.108
139.105
139.109
139.118
139.128
139.141
139.153
139.166
139.179
139.19
139.2
139.208
139.215
139.223
139.233
139.246
139.262
139.28
139.298
139.315
139.329
139.341
139.351
139.361
146.247
146.387
146.405
146.41
146.376
146.312
146.223
146.115
145.996
145.873
145.753
145.643
145.543
145.447
145.343
145.209
145.017
144.735
144.337
143.809
143.155
142.406
141.614
140.844
140.163
139.623
139.251
139.044
138.973
138.989
139.047
139.105
139.144
139.156
139.149
139.133
139.117
139.107
139.105
139.109
139.118
139.129
139.141
139.153
139.166
139.179
139.19
139.2
139.208
139.215
139.223
139.233
139.246
139.262
139.28
139.298
139.315
139.33
139.341
139.351
146.136
146.317
146.369
146.41
146.41
146.377
146.313
146.223
146.115
145.995
145.872
145.752
145.641
145.541
145.445
145.341
145.208
145.018
144.738
144.342
143.814
143.16
142.409
141.614
140.84
140.156
139.615
139.245
139.041
138.972
138.992
139.05
139.109
139.146
139.157
139.149
139.132
139.116
139.107
139.105
139.109
139.118
139.129
139.141
139.153
139.166
139.179
139.19
139.2
139.208
139.215
139.223
139.233
139.246
139.261
139.28
139.298
139.315
139.33
139.341
146.006
146.216
146.299
146.374
146.41
146.411
146.377
146.313
146.223
146.115
145.995
145.872
145.751
145.64
145.538
145.443
145.339
145.208
145.019
144.742
144.347
143.82
143.166
142.412
141.613
140.836
140.15
139.608
139.239
139.038
138.972
138.995
139.054
139.113
139.149
139.158
139.148
139.131
139.115
139.106
139.105
139.109
139.118
139.129
139.141
139.153
139.167
139.179
139.191
139.2
139.208
139.215
139.223
139.233
139.245
139.261
139.28
139.298
139.316
139.33
145.868
146.09
146.198
146.304
146.374
146.411
146.411
146.377
146.313
146.224
146.115
145.995
145.871
145.75
145.638
145.536
145.44
145.338
145.207
145.02
144.745
144.353
143.827
143.171
142.416
141.613
140.832
140.143
139.6
139.232
139.034
138.973
138.997
139.058
139.117
139.151
139.159
139.148
139.13
139.114
139.106
139.105
139.11
139.118
139.129
139.141
139.153
139.167
139.179
139.191
139.201
139.208
139.215
139.223
139.232
139.245
139.261
139.28
139.299
139.316
145.734
145.948
146.073
146.202
146.304
146.375
146.411
146.412
146.378
146.313
146.224
146.115
145.995
145.871
145.749
145.637
145.534
145.438
145.336
145.207
145.022
144.748
144.358
143.833
143.177
142.419
141.613
140.828
140.136
139.593
139.226
139.031
138.973
139
139.063
139.12
139.154
139.16
139.147
139.129
139.113
139.105
139.105
139.11
139.118
139.129
139.141
139.153
139.167
139.179
139.191
139.201
139.209
139.215
139.223
139.232
139.245
139.261
139.28
139.299
145.616
145.802
145.935
146.076
146.203
146.305
146.376
146.412
146.412
146.378
146.314
146.224
146.115
145.995
145.87
145.748
145.635
145.532
145.436
145.334
145.206
145.023
144.752
144.363
143.839
143.183
142.423
141.613
140.824
140.129
139.585
139.22
139.028
138.973
139.004
139.067
139.124
139.156
139.16
139.147
139.128
139.112
139.105
139.105
139.11
139.118
139.129
139.141
139.153
139.166
139.179
139.191
139.201
139.209
139.215
139.223
139.232
139.245
139.261
139.28
145.524
145.667
145.793
145.936
146.077
146.203
146.306
146.377
146.412
146.412
146.378
146.314
146.224
146.116
145.995
145.87
145.747
145.634
145.53
145.434
145.332
145.205
145.024
144.755
144.368
143.846
143.189
142.426
141.613
140.82
140.122
139.576
139.213
139.024
138.973
139.007
139.072
139.128
139.158
139.161
139.146
139.127
139.112
139.104
139.105
139.11
139.118
139.129
139.14
139.153
139.166
139.18
139.191
139.201
139.209
139.216
139.223
139.232
139.244
139.261
145.467
145.554
145.663
145.793
145.936
146.077
146.204
146.306
146.377
146.413
146.413
146.379
146.314
146.225
146.116
145.995
145.869
145.747
145.632
145.528
145.432
145.33
145.204
145.024
144.758
144.374
143.852
143.195
142.43
141.612
140.815
140.114
139.568
139.206
139.021
138.974
139.011
139.076
139.132
139.16
139.161
139.145
139.126
139.111
139.104
139.105
139.11
139.119
139.129
139.14
139.153
139.166
139.18
139.191
139.201
139.209
139.216
139.222
139.231
139.244
145.448
145.473
145.555
145.661
145.793
145.936
146.078
146.205
146.307
146.378
146.414
146.413
146.379
146.315
146.225
146.116
145.995
145.869
145.746
145.631
145.526
145.429
145.328
145.203
145.025
144.761
144.379
143.859
143.201
142.434
141.612
140.811
140.106
139.559
139.199
139.018
138.975
139.014
139.081
139.136
139.162
139.161
139.145
139.125
139.11
139.104
139.105
139.11
139.119
139.129
139.14
139.153
139.166
139.18
139.192
139.202
139.209
139.216
139.222
139.231
145.468
145.433
145.479
145.551
145.661
145.793
145.937
146.078
146.206
146.308
146.379
146.414
146.414
146.38
146.315
146.225
146.116
145.995
145.868
145.745
145.629
145.524
145.427
145.326
145.202
145.026
144.764
144.385
143.866
143.208
142.438
141.612
140.806
140.098
139.55
139.192
139.014
138.976
139.018
139.086
139.14
139.164
139.162
139.144
139.124
139.109
139.104
139.105
139.11
139.119
139.129
139.14
139.153
139.166
139.18
139.192
139.202
139.209
139.216
139.222
145.52
145.433
145.442
145.475
145.551
145.66
145.793
145.937
146.079
146.206
146.309
146.379
146.415
146.414
146.38
146.315
146.225
146.116
145.994
145.868
145.744
145.628
145.522
145.425
145.324
145.201
145.027
144.767
144.39
143.873
143.214
142.442
141.612
140.802
140.09
139.541
139.185
139.011
138.977
139.022
139.091
139.144
139.166
139.162
139.143
139.122
139.109
139.103
139.105
139.111
139.119
139.129
139.14
139.153
139.166
139.18
139.192
139.202
139.209
139.215
145.599
145.471
145.445
145.438
145.475
145.55
145.659
145.793
145.937
146.08
146.207
146.31
146.38
146.415
146.415
146.38
146.316
146.226
146.116
145.994
145.868
145.743
145.626
145.521
145.422
145.322
145.2
145.027
144.77
144.396
143.88
143.221
142.447
141.613
140.797
140.082
139.532
139.177
139.008
138.978
139.027
139.096
139.148
139.168
139.161
139.142
139.121
139.108
139.103
139.105
139.111
139.119
139.129
139.14
139.153
139.166
139.18
139.192
139.202
139.21
145.695
145.541
145.485
145.441
145.437
145.473
145.549
145.659
145.792
145.937
146.08
146.208
146.31
146.381
146.416
146.415
146.381
146.316
146.226
146.116
145.994
145.867
145.742
145.625
145.519
145.42
145.32
145.198
145.028
144.773
144.401
143.887
143.229
142.451
141.613
140.792
140.073
139.522
139.17
139.005
138.98
139.032
139.102
139.152
139.17
139.161
139.14
139.12
139.107
139.103
139.105
139.111
139.119
139.129
139.14
139.153
139.166
139.18
139.192
139.202
145.799
145.633
145.555
145.481
145.441
145.436
145.472
145.548
145.658
145.792
145.938
146.081
146.209
146.311
146.381
146.416
146.416
146.381
146.316
146.226
146.116
145.994
145.867
145.741
145.624
145.517
145.418
145.317
145.197
145.028
144.776
144.407
143.895
143.236
142.456
141.613
140.787
140.064
139.512
139.162
139.002
138.982
139.037
139.107
139.156
139.171
139.161
139.139
139.119
139.107
139.103
139.105
139.111
139.119
139.129
139.14
139.152
139.166
139.18
139.193
145.901
145.738
145.646
145.552
145.481
145.44
145.435
145.471
145.547
145.657
145.792
145.938
146.081
146.209
146.312
146.382
146.417
146.416
146.381
146.316
146.226
146.117
145.994
145.866
145.741
145.622
145.515
145.415
145.315
145.195
145.028
144.779
144.412
143.902
143.244
142.461
141.613
140.782
140.055
139.501
139.154
138.998
138.984
139.042
139.113
139.16
139.173
139.16
139.138
139.118
139.106
139.103
139.105
139.111
139.119
139.129
139.14
139.152
139.166
139.181
145.994
145.846
145.75
145.644
145.552
145.481
145.439
145.434
145.47
145.546
145.657
145.792
145.938
146.082
146.21
146.313
146.383
146.417
146.416
146.382
146.317
146.226
146.117
145.994
145.866
145.74
145.621
145.513
145.413
145.313
145.194
145.028
144.782
144.418
143.91
143.252
142.467
141.614
140.777
140.045
139.491
139.146
138.996
138.986
139.048
139.119
139.164
139.174
139.159
139.137
139.117
139.106
139.103
139.106
139.112
139.12
139.129
139.139
139.152
139.166
146.071
145.949
145.855
145.748
145.645
145.552
145.48
145.438
145.433
145.469
145.545
145.656
145.792
145.939
146.083
146.211
146.314
146.384
146.418
146.417
146.382
146.317
146.227
146.117
145.994
145.866
145.739
145.62
145.511
145.411
145.31
145.192
145.028
144.784
144.424
143.918
143.26
142.472
141.614
140.771
140.035
139.479
139.138
138.993
138.989
139.054
139.125
139.167
139.175
139.159
139.135
139.116
139.105
139.103
139.106
139.112
139.12
139.129
139.139
139.152
146.127
146.04
145.954
145.855
145.749
145.645
145.552
145.48
145.437
145.432
145.467
145.544
145.655
145.792
145.939
146.083
146.212
146.314
146.384
146.418
146.417
146.382
146.317
146.227
146.117
145.994
145.865
145.738
145.619
145.509
145.409
145.308
145.19
145.028
144.787
144.429
143.926
143.268
142.478
141.615
140.766
140.024
139.468
139.129
138.99
138.992
139.06
139.131
139.171
139.175
139.158
139.134
139.115
139.105
139.103
139.106
139.112
139.12
139.129
139.139
146.156
146.113
146.04
145.955
145.855
145.749
145.645
145.552
145.479
145.436
145.431
145.466
145.543
145.655
145.791
145.939
146.084
146.213
146.315
146.385
146.419
146.418
146.383
146.318
146.227
146.117
145.994
145.865
145.738
145.618
145.508
145.406
145.305
145.188
145.028
144.789
144.435
143.934
143.277
142.485
141.616
140.76
140.014
139.456
139.12
138.988
138.996
139.067
139.137
139.174
139.176
139.156
139.133
139.114
139.105
139.103
139.106
139.113
139.12
139.128
146.152
146.162
146.107
146.043
145.955
145.855
145.749
145.645
145.552
145.479
145.435
145.429
145.465
145.542
145.654
145.791
145.94
146.085
146.214
146.316
146.385
146.419
146.418
146.383
146.318
146.227
146.117
145.994
145.865
145.737
145.616
145.506
145.404
145.303
145.186
145.027
144.791
144.44
143.943
143.286
142.491
141.617
140.754
140.002
139.443
139.111
138.986
139
139.074
139.143
139.177
139.176
139.155
139.131
139.114
139.104
139.103
139.106
139.113
139.12
146.111
146.182
146.15
146.111
146.042
145.955
145.855
145.749
145.645
145.552
145.478
145.434
145.428
145.464
145.541
145.653
145.791
145.94
146.086
146.215
146.317
146.386
146.42
146.418
146.383
146.318
146.228
146.117
145.994
145.864
145.736
145.615
145.504
145.402
145.301
145.184
145.026
144.793
144.446
143.951
143.296
142.498
141.618
140.748
139.99
139.43
139.102
138.984
139.005
139.081
139.15
139.18
139.176
139.154
139.13
139.113
139.104
139.103
139.107
139.113
146.028
146.167
146.164
146.156
146.11
146.042
145.955
145.856
145.75
145.645
145.552
145.478
145.434
145.427
145.462
145.539
145.653
145.791
145.94
146.086
146.215
146.318
146.387
146.42
146.419
146.384
146.318
146.228
146.117
145.994
145.864
145.736
145.614
145.503
145.4
145.298
145.182
145.026
144.795
144.451
143.96
143.306
142.506
141.62
140.741
139.977
139.416
139.093
138.982
139.01
139.09
139.156
139.182
139.175
139.153
139.129
139.112
139.103
139.102
139.107
145.899
146.113
146.142
146.171
146.154
146.11
146.042
145.956
145.856
145.75
145.646
145.551
145.477
145.433
145.426
145.461
145.538
145.652
145.791
145.941
146.087
146.216
146.318
146.387
146.421
146.419
146.384
146.319
146.228
146.118
145.994
145.864
145.735
145.613
145.501
145.398
145.296
145.18
145.025
144.796
144.456
143.968
143.316
142.514
141.622
140.735
139.964
139.401
139.083
138.981
139.016
139.098
139.162
139.184
139.175
139.152
139.129
139.112
139.103
139.102
145.723
146.013
146.081
146.151
146.168
146.154
146.11
146.042
145.956
145.856
145.75
145.646
145.551
145.477
145.432
145.424
145.46
145.537
145.651
145.791
145.941
146.088
146.217
146.319
146.388
146.421
146.419
146.384
146.319
146.228
146.118
145.994
145.863
145.734
145.612
145.499
145.396
145.293
145.177
145.023
144.798
144.461
143.977
143.327
142.523
141.624
140.728
139.95
139.385
139.073
138.98
139.023
139.107
139.168
139.186
139.174
139.151
139.128
139.111
139.101
145.498
145.866
145.976
146.092
146.149
146.169
146.154
146.11
146.043
145.956
145.856
145.751
145.646
145.551
145.476
145.431
145.423
145.458
145.536
145.65
145.791
145.942
146.089
146.218
146.32
146.389
146.422
146.42
146.384
146.319
146.229
146.118
145.993
145.863
145.734
145.611
145.498
145.394
145.291
145.175
145.022
144.799
144.466
143.986
143.338
142.532
141.627
140.721
139.935
139.369
139.062
138.98
139.031
139.117
139.173
139.186
139.173
139.15
139.128
139.109
145.228
145.669
145.822
145.988
146.089
146.149
146.169
146.154
146.11
146.043
145.956
145.857
145.751
145.646
145.551
145.476
145.43
145.422
145.457
145.535
145.65
145.79
145.942
146.09
146.219
146.321
146.389
146.422
146.42
146.385
146.32
146.229
146.118
145.993
145.863
145.733
145.61
145.496
145.392
145.288
145.172
145.02
144.8
144.471
143.995
143.349
142.543
141.63
140.714
139.919
139.351
139.052
138.981
139.041
139.127
139.178
139.186
139.172
139.15
139.126
144.914
145.425
145.618
145.836
145.985
146.09
146.149
146.169
146.154
146.11
146.043
145.956
145.857
145.751
145.646
145.551
145.476
145.429
145.421
145.455
145.533
145.649
145.79
145.943
146.091
146.22
146.322
146.39
146.422
146.42
146.385
146.32
146.229
146.118
145.993
145.862
145.732
145.609
145.495
145.39
145.286
145.17
145.019
144.8
144.475
144.004
143.362
142.554
141.634
140.706
139.902
139.332
139.041
138.983
139.052
139.137
139.181
139.185
139.171
139.15
144.558
145.136
145.367
145.634
145.832
145.987
146.09
146.149
146.169
146.154
146.111
146.043
145.957
145.857
145.752
145.647
145.551
145.475
145.428
145.419
145.454
145.532
145.648
145.79
145.943
146.092
146.221
146.323
146.39
146.423
146.421
146.385
146.32
146.23
146.118
145.993
145.862
145.731
145.608
145.494
145.388
145.284
145.168
145.017
144.8
144.479
144.013
143.374
142.566
141.639
140.699
139.883
139.311
139.03
138.987
139.064
139.147
139.184
139.184
139.171
144.158
144.809
145.07
145.384
145.63
145.834
145.987
146.091
146.149
146.169
146.154
146.111
146.043
145.957
145.858
145.752
145.647
145.551
145.475
145.427
145.418
145.452
145.531
145.647
145.79
145.944
146.092
146.222
146.323
146.391
146.423
146.421
146.386
146.321
146.23
146.118
145.993
145.861
145.731
145.607
145.492
145.386
145.282
145.165
145.015
144.8
144.482
144.022
143.387
142.579
141.645
140.691
139.862
139.288
139.019
138.993
139.079
139.157
139.184
139.182
143.707
144.442
144.733
145.089
145.379
145.632
145.835
145.987
146.091
146.149
146.169
146.154
146.111
146.043
145.957
145.858
145.752
145.647
145.552
145.474
145.426
145.417
145.451
145.53
145.647
145.79
145.945
146.093
146.223
146.324
146.391
146.423
146.421
146.386
146.321
146.23
146.119
145.993
145.861
145.73
145.606
145.491
145.384
145.28
145.163
145.013
144.8
144.485
144.03
143.401
142.594
141.652
140.683
139.84
139.263
139.007
139.002
139.096
139.165
139.182
143.195
144.032
144.355
144.753
145.083
145.38
145.632
145.836
145.988
146.091
146.149
146.169
146.154
146.111
146.043
145.957
145.858
145.752
145.648
145.552
145.474
145.426
145.415
145.449
145.528
145.646
145.79
145.945
146.094
146.224
146.325
146.392
146.424
146.421
146.386
146.322
146.231
146.119
145.993
145.861
145.729
145.605
145.49
145.383
145.278
145.161
145.011
144.799
144.488
144.038
143.415
142.61
141.661
140.675
139.814
139.234
138.996
139.016
139.116
139.169
142.612
143.568
143.935
144.378
144.746
145.083
145.38
145.633
145.837
145.988
146.091
146.149
146.169
146.154
146.111
146.043
145.957
145.858
145.753
145.648
145.552
145.474
145.425
145.414
145.448
145.527
145.645
145.79
145.946
146.095
146.225
146.326
146.392
146.424
146.422
146.387
146.322
146.231
146.119
145.993
145.86
145.729
145.604
145.488
145.381
145.276
145.159
145.009
144.798
144.489
144.044
143.429
142.628
141.673
140.667
139.783
139.2
138.987
139.038
139.139
141.953
143.031
143.464
143.959
144.372
144.746
145.082
145.38
145.634
145.837
145.989
146.091
146.149
146.169
146.155
146.111
146.043
145.957
145.858
145.753
145.648
145.552
145.474
145.424
145.412
145.446
145.525
145.644
145.79
145.947
146.097
146.226
146.326
146.393
146.424
146.422
146.387
146.322
146.231
146.119
145.993
145.86
145.728
145.603
145.487
145.379
145.274
145.157
145.008
144.797
144.49
144.05
143.443
142.649
141.689
140.661
139.747
139.158
138.982
139.078
141.234
142.404
142.93
143.486
143.955
144.371
144.744
145.082
145.381
145.635
145.838
145.99
146.092
146.15
146.169
146.155
146.111
146.044
145.957
145.859
145.754
145.649
145.552
145.473
145.423
145.411
145.444
145.524
145.643
145.79
145.947
146.097
146.227
146.327
146.393
146.425
146.422
146.388
146.323
146.232
146.119
145.993
145.86
145.727
145.602
145.485
145.377
145.272
145.155
145.006
144.796
144.49
144.054
143.457
142.673
141.712
140.657
139.702
139.104
138.998
140.498
141.676
142.321
142.947
143.486
143.956
144.371
144.744
145.082
145.382
145.637
145.84
145.991
146.092
146.15
146.17
146.156
146.112
146.044
145.958
145.859
145.754
145.649
145.553
145.473
145.422
145.409
145.442
145.521
145.642
145.789
145.947
146.098
146.228
146.328
146.394
146.425
146.423
146.389
146.324
146.233
146.12
145.993
145.859
145.727
145.601
145.484
145.375
145.27
145.154
145.006
144.795
144.489
144.057
143.469
142.701
141.746
140.663
139.642
139.022
139.821
140.858
141.631
142.334
142.955
143.493
143.961
144.373
144.745
145.083
145.385
145.641
145.845
145.995
146.096
146.154
146.173
146.158
146.114
146.046
145.96
145.861
145.755
145.65
145.552
145.472
145.419
145.405
145.437
145.516
145.638
145.787
145.947
146.1
146.231
146.331
146.397
146.428
146.426
146.391
146.327
146.235
146.122
145.994
145.859
145.727
145.6
145.482
145.372
145.267
145.153
145.007
144.8
144.495
144.064
143.484
142.738
141.809
140.703
139.491
)
;

boundaryField
{
    bottomwall
    {
        type            opaque;
        refValue        uniform 0;
        refGradient     uniform 0;
        valueFraction   uniform 0;
        source          uniform 0;
        value           nonuniform List<scalar> 
60
(
140.346
139.513
139.284
139.064
138.982
138.97
139.004
139.054
139.099
139.128
139.139
139.137
139.129
139.12
139.115
139.116
139.122
139.133
139.145
139.158
139.171
139.182
139.193
139.202
139.212
139.221
139.232
139.244
139.257
139.272
139.287
139.303
139.317
139.331
139.343
139.356
139.371
139.389
139.411
139.437
139.466
139.495
139.521
139.541
139.554
139.563
139.573
139.594
139.632
139.69
139.759
139.821
139.852
139.825