/*--------------------------------*- C++ -*----------------------------------*\
| =========                 |                                                 |
| \\      /  F ield         | OpenFOAM: The Open Source CFD Toolbox           |
|  \\    /   O peration     | Version:  2406                                  |
|   \\  /    A nd           | Website:  www.openfoam.com                      |
|    \\/     M anipulation  |                                                 |
\*---------------------------------------------------------------------------*/
FoamFile
{
    version     2.0;
    format      ascii;
    arch        "LSB;label=32;scalar=64";
    class       volScalarField;
    location    "20000";
    object      ILambda_15_0;
}
// * * * * * * * * * * * * * * * * * * * * * * * * * * * * * * * * * * * * * //

dimensions      [1 0 -3 0 0 0 0];

internalField   nonuniform List<scalar> 
3600
(
146.554
147.846
148.231
148.593
148.839
149.034
149.193
149.33
149.452
149.565
149.67
149.769
149.862
149.949
150.031
150.107
150.179
150.246
150.31
150.369
150.427
150.485
150.547
150.619
150.71
150.83
150.99
151.203
151.48
151.84
152.304
152.913
153.721
154.802
156.232
158.071
160.338
162.984
165.888
168.86
171.669
174.075
175.872
176.909
177.106
176.45
174.983
172.788
169.982
166.705
163.117
159.391
155.699
152.196
149.001
146.185
143.769
141.742
140.091
138.842
149.163
149.419
149.461
149.564
149.641
149.717
149.784
149.847
149.905
149.959
150.012
150.065
150.123
150.19
150.272
150.374
150.505
150.673
150.891
151.169
151.521
151.962
152.506
153.169
153.965
154.905
156.001
157.26
158.685
160.276
162.019
163.89
165.839
167.791
169.645
171.275
172.547
173.333
173.532
173.087
171.986
170.27
168.019
165.34
162.358
159.201
155.996
152.864
149.909
147.222
144.867
142.884
141.282
140.049
139.153
138.558
138.227
138.13
138.23
138.466
149.801
149.825
149.852
149.897
149.95
150.016
150.098
150.201
150.332
150.497
150.706
150.967
151.29
151.684
152.16
152.728
153.395
154.17
155.057
156.059
157.176
158.4
159.722
161.123
162.582
164.066
165.537
166.949
168.248
169.374
170.26
170.836
171.036
170.8
170.088
168.882
167.193
165.069
162.582
159.831
156.927
153.984
151.109
148.399
145.929
143.756
141.917
140.429
139.289
138.476
137.957
137.687
137.616
137.695
137.878
138.123
138.394
138.656
138.879
139.04
150.14
150.331
150.5
150.725
151.001
151.336
151.738
152.213
152.768
153.41
154.141
154.964
155.879
156.883
157.968
159.123
160.335
161.583
162.842
164.086
165.278
166.384
167.362
168.169
168.764
169.105
169.152
168.874
168.246
167.254
165.899
164.195
162.178
159.897
157.42
154.825
152.198
149.624
147.185
144.947
142.964
141.271
139.887
138.813
138.034
137.527
137.255
137.179
137.254
137.439
137.691
137.976
138.264
138.534
138.77
138.962
139.106
139.205
139.266
139.303
151.968
152.764
153.314
154.01
154.77
155.609
156.522
157.501
158.538
159.62
160.729
161.848
162.953
164.017
165.013
165.91
166.675
167.277
167.684
167.866
167.798
167.458
166.833
165.914
164.705
163.217
161.473
159.506
157.36
155.086
152.743
150.396
148.108
145.941
143.948
142.175
140.653
139.4
138.42
137.704
137.233
136.978
136.906
136.979
137.16
137.413
137.706
138.012
138.307
138.577
138.81
139.003
139.155
139.268
139.349
139.406
139.446
139.477
139.507
139.54
156.599
158.081
158.944
159.98
160.991
162.001
162.978
163.901
164.746
165.486
166.095
166.548
166.82
166.89
166.738
166.35
165.716
164.833
163.706
162.345
160.768
159.001
157.078
155.038
152.924
150.785
148.671
146.63
144.708
142.947
141.381
140.034
138.923
138.051
137.413
136.994
136.771
136.716
136.797
136.981
137.238
137.536
137.852
138.163
138.454
138.714
138.936
139.119
139.262
139.372
139.452
139.51
139.551
139.582
139.609
139.634
139.66
139.688
139.718
139.747
162.512
163.865
164.455
165.103
165.583
165.924
166.093
166.077
165.861
165.434
164.791
163.931
162.857
161.581
160.119
158.492
156.727
154.856
152.916
150.944
148.98
147.065
145.237
143.532
141.98
140.608
139.433
138.466
137.71
137.159
136.802
136.62
136.589
136.683
136.874
137.134
137.436
137.758
138.078
138.382
138.658
138.9
139.104
139.269
139.398
139.496
139.568
139.619
139.656
139.683
139.705
139.724
139.744
139.764
139.786
139.808
139.83
139.851
139.87
139.887
165.392
165.405
165.099
164.654
163.999
163.154
162.119
160.906
159.528
158.004
156.358
154.617
152.81
150.971
149.132
147.328
145.591
143.952
142.44
141.076
139.881
138.865
138.037
137.397
136.938
136.65
136.516
136.516
136.628
136.828
137.092
137.395
137.718
138.042
138.352
138.638
138.891
139.108
139.287
139.431
139.542
139.624
139.683
139.725
139.753
139.774
139.789
139.802
139.815
139.828
139.842
139.857
139.871
139.885
139.897
139.907
139.915
139.92
139.921
139.921
161.94
160.202
159.007
157.541
155.992
154.352
152.653
150.921
149.186
147.477
145.822
144.249
142.783
141.444
140.25
139.215
138.347
137.649
137.119
136.75
136.532
136.45
136.486
136.62
136.832
137.1
137.404
137.726
138.049
138.36
138.648
138.907
139.13
139.318
139.47
139.589
139.679
139.744
139.789
139.819
139.838
139.85
139.858
139.864
139.87
139.877
139.884
139.891
139.899
139.906
139.911
139.915
139.917
139.916
139.913
139.907
139.899
139.889
139.876
139.863
153.26
150.642
149.217
147.539
145.969
144.455
143.036
141.728
140.548
139.509
138.621
137.887
137.308
136.881
136.598
136.449
136.418
136.491
136.649
136.874
137.148
137.453
137.772
138.092
138.4
138.686
138.944
139.169
139.36
139.516
139.64
139.733
139.802
139.849
139.879
139.897
139.906
139.91
139.91
139.91
139.909
139.909
139.91
139.911
139.913
139.913
139.913
139.912
139.908
139.903
139.895
139.885
139.874
139.86
139.845
139.829
139.812
139.795
139.777
139.758
143.918
141.774
140.827
139.742
138.858
138.1
137.49
137.021
136.689
136.485
136.399
136.418
136.527
136.708
136.948
137.228
137.533
137.849
138.163
138.465
138.747
139
139.223
139.412
139.568
139.693
139.787
139.857
139.904
139.934
139.95
139.956
139.956
139.951
139.945
139.939
139.932
139.927
139.922
139.917
139.913
139.909
139.904
139.897
139.89
139.88
139.869
139.857
139.842
139.827
139.811
139.793
139.776
139.758
139.74
139.722
139.705
139.688
139.672
139.657
137.993
137.066
136.812
136.536
136.413
136.384
136.449
136.59
136.795
137.047
137.332
137.637
137.95
138.257
138.552
138.825
139.072
139.288
139.473
139.626
139.748
139.841
139.909
139.955
139.983
139.997
140
139.996
139.987
139.976
139.963
139.951
139.94
139.929
139.92
139.911
139.903
139.894
139.885
139.875
139.864
139.852
139.838
139.823
139.808
139.791
139.774
139.756
139.739
139.721
139.704
139.688
139.672
139.657
139.643
139.63
139.618
139.607
139.598
139.589
136.404
136.499
136.683
136.902
137.168
137.457
137.761
138.068
138.368
138.653
138.917
139.155
139.363
139.541
139.687
139.804
139.893
139.958
140.001
140.026
140.037
140.037
140.03
140.017
140.001
139.983
139.966
139.95
139.934
139.92
139.907
139.895
139.883
139.871
139.859
139.846
139.833
139.819
139.804
139.788
139.771
139.755
139.738
139.721
139.704
139.687
139.672
139.657
139.643
139.63
139.618
139.608
139.598
139.59
139.583
139.577
139.572
139.568
139.566
139.564
137.456
137.931
138.193
138.493
138.766
139.019
139.246
139.444
139.612
139.751
139.861
139.945
140.004
140.043
140.065
140.072
140.068
140.057
140.04
140.02
139.998
139.977
139.955
139.936
139.917
139.9
139.885
139.87
139.855
139.841
139.827
139.813
139.798
139.783
139.767
139.751
139.735
139.719
139.703
139.687
139.672
139.657
139.643
139.63
139.618
139.608
139.598
139.59
139.583
139.577
139.572
139.568
139.565
139.563
139.562
139.562
139.562
139.563
139.565
139.566
139.003
139.372
139.52
139.688
139.814
139.917
139.993
140.047
140.081
140.098
140.101
140.093
140.078
140.057
140.033
140.008
139.982
139.957
139.934
139.912
139.891
139.873
139.855
139.839
139.823
139.808
139.793
139.778
139.763
139.747
139.732
139.716
139.701
139.686
139.671
139.657
139.643
139.63
139.619
139.608
139.599
139.59
139.583
139.577
139.572
139.568
139.565
139.563
139.562
139.561
139.562
139.562
139.563
139.565
139.567
139.569
139.57
139.572
139.574
139.576
139.92
140.054
140.082
140.115
140.125
140.124
140.113
140.093
140.069
140.042
140.013
139.984
139.955
139.928
139.903
139.88
139.859
139.839
139.821
139.804
139.788
139.772
139.757
139.742
139.727
139.712
139.698
139.683
139.669
139.656
139.643
139.63
139.619
139.608
139.599
139.59
139.583
139.577
139.572
139.568
139.565
139.563
139.561
139.561
139.561
139.561
139.562
139.564
139.565
139.567
139.569
139.571
139.572
139.574
139.575
139.576
139.577
139.577
139.577
139.576
140.143
140.127
140.103
140.075
140.044
140.013
139.98
139.949
139.92
139.892
139.867
139.844
139.823
139.803
139.785
139.768
139.752
139.737
139.722
139.708
139.694
139.68
139.667
139.654
139.641
139.629
139.618
139.608
139.599
139.591
139.583
139.577
139.572
139.568
139.565
139.562
139.561
139.56
139.56
139.56
139.561
139.563
139.564
139.566
139.568
139.569
139.571
139.572
139.574
139.574
139.575
139.575
139.575
139.574
139.573
139.572
139.57
139.567
139.565
139.561
140.025
139.97
139.941
139.908
139.879
139.852
139.827
139.805
139.784
139.765
139.748
139.732
139.717
139.703
139.689
139.676
139.663
139.651
139.639
139.628
139.617
139.608
139.599
139.591
139.583
139.577
139.572
139.568
139.565
139.562
139.56
139.56
139.559
139.56
139.56
139.562
139.563
139.564
139.566
139.568
139.569
139.571
139.572
139.573
139.573
139.574
139.573
139.573
139.572
139.57
139.568
139.566
139.563
139.56
139.556
139.553
139.548
139.544
139.539
139.534
139.85
139.806
139.787
139.765
139.746
139.728
139.712
139.697
139.684
139.671
139.658
139.647
139.636
139.625
139.615
139.606
139.598
139.59
139.583
139.577
139.572
139.568
139.564
139.562
139.56
139.559
139.559
139.559
139.559
139.56
139.562
139.563
139.565
139.566
139.568
139.569
139.57
139.571
139.572
139.572
139.572
139.571
139.57
139.569
139.567
139.565
139.562
139.559
139.555
139.551
139.547
139.542
139.538
139.533
139.527
139.522
139.516
139.511
139.505
139.499
139.718
139.691
139.679
139.666
139.654
139.642
139.632
139.622
139.613
139.604
139.596
139.589
139.583
139.577
139.572
139.568
139.564
139.562
139.56
139.559
139.558
139.558
139.559
139.56
139.561
139.562
139.563
139.565
139.566
139.568
139.569
139.57
139.57
139.57
139.57
139.57
139.569
139.567
139.565
139.563
139.56
139.557
139.554
139.55
139.546
139.541
139.536
139.531
139.526
139.521
139.515
139.509
139.504
139.498
139.492
139.486
139.48
139.475
139.469
139.463
139.633
139.617
139.61
139.601
139.594
139.587
139.581
139.576
139.571
139.567
139.564
139.562
139.56
139.558
139.558
139.558
139.558
139.559
139.56
139.561
139.562
139.564
139.565
139.566
139.567
139.568
139.569
139.569
139.569
139.568
139.567
139.566
139.564
139.562
139.559
139.556
139.552
139.548
139.544
139.54
139.535
139.53
139.525
139.519
139.514
139.508
139.503
139.497
139.491
139.485
139.479
139.473
139.468
139.462
139.456
139.451
139.446
139.44
139.435
139.43
139.582
139.574
139.571
139.567
139.564
139.561
139.559
139.558
139.557
139.557
139.557
139.558
139.559
139.56
139.561
139.562
139.564
139.565
139.566
139.566
139.567
139.567
139.567
139.566
139.565
139.564
139.562
139.56
139.557
139.554
139.551
139.547
139.543
139.538
139.534
139.529
139.524
139.518
139.513
139.507
139.501
139.495
139.49
139.484
139.478
139.472
139.466
139.461
139.455
139.45
139.444
139.439
139.434
139.429
139.424
139.42
139.415
139.411
139.407
139.403
139.56
139.557
139.557
139.557
139.557
139.557
139.558
139.559
139.56
139.561
139.562
139.563
139.564
139.565
139.565
139.566
139.565
139.565
139.564
139.562
139.561
139.558
139.556
139.553
139.549
139.546
139.542
139.537
139.532
139.527
139.522
139.517
139.511
139.506
139.5
139.494
139.488
139.483
139.477
139.471
139.465
139.46
139.454
139.449
139.443
139.438
139.433
139.428
139.423
139.419
139.414
139.41
139.406
139.402
139.398
139.395
139.391
139.388
139.385
139.382
139.557
139.558
139.559
139.56
139.561
139.562
139.563
139.563
139.564
139.564
139.564
139.563
139.562
139.561
139.559
139.557
139.554
139.551
139.548
139.544
139.54
139.536
139.531
139.526
139.521
139.516
139.51
139.505
139.499
139.493
139.487
139.481
139.476
139.47
139.464
139.458
139.453
139.447
139.442
139.437
139.432
139.427
139.422
139.418
139.413
139.409
139.405
139.401
139.397
139.394
139.391
139.387
139.384
139.381
139.379
139.376
139.374
139.371
139.369
139.367
139.561
139.562
139.562
139.562
139.562
139.562
139.561
139.559
139.557
139.555
139.553
139.55
139.546
139.543
139.539
139.534
139.53
139.525
139.52
139.514
139.509
139.503
139.498
139.492
139.486
139.48
139.474
139.469
139.463
139.457
139.452
139.446
139.441
139.436
139.431
139.426
139.421
139.417
139.412
139.408
139.404
139.4
139.396
139.393
139.39
139.386
139.383
139.381
139.378
139.375
139.373
139.371
139.368
139.366
139.364
139.363
139.361
139.359
139.358
139.356
139.56
139.558
139.556
139.554
139.551
139.548
139.545
139.541
139.537
139.533
139.528
139.523
139.518
139.513
139.508
139.502
139.496
139.491
139.485
139.479
139.473
139.467
139.462
139.456
139.45
139.445
139.44
139.435
139.43
139.425
139.42
139.416
139.411
139.407
139.403
139.399
139.396
139.392
139.389
139.386
139.383
139.38
139.377
139.375
139.372
139.37
139.368
139.366
139.364
139.362
139.36
139.359
139.357
139.355
139.354
139.352
139.351
139.35
139.348
139.347
139.545
139.539
139.536
139.531
139.527
139.522
139.517
139.512
139.506
139.501
139.495
139.489
139.483
139.478
139.472
139.466
139.46
139.455
139.449
139.444
139.439
139.433
139.428
139.424
139.419
139.414
139.41
139.406
139.402
139.398
139.395
139.391
139.388
139.385
139.382
139.379
139.376
139.374
139.371
139.369
139.367
139.365
139.363
139.361
139.36
139.358
139.356
139.355
139.353
139.352
139.35
139.349
139.348
139.346
139.345
139.343
139.342
139.34
139.339
139.337
139.518
139.51
139.505
139.499
139.494
139.488
139.482
139.476
139.471
139.465
139.459
139.454
139.448
139.443
139.437
139.432
139.427
139.423
139.418
139.413
139.409
139.405
139.401
139.397
139.394
139.39
139.387
139.384
139.381
139.378
139.375
139.373
139.371
139.368
139.366
139.364
139.362
139.361
139.359
139.357
139.356
139.354
139.353
139.351
139.35
139.348
139.347
139.345
139.344
139.343
139.341
139.34
139.338
139.336
139.335
139.333
139.331
139.329
139.327
139.325
139.484
139.475
139.47
139.464
139.458
139.452
139.447
139.442
139.436
139.431
139.426
139.421
139.417
139.412
139.408
139.404
139.4
139.396
139.393
139.389
139.386
139.383
139.38
139.377
139.375
139.372
139.37
139.368
139.366
139.364
139.362
139.36
139.358
139.357
139.355
139.353
139.352
139.351
139.349
139.348
139.346
139.345
139.343
139.342
139.34
139.339
139.337
139.336
139.334
139.332
139.33
139.328
139.326
139.324
139.322
139.32
139.317
139.315
139.312
139.31
139.449
139.44
139.435
139.43
139.425
139.42
139.416
139.411
139.407
139.403
139.399
139.395
139.392
139.388
139.385
139.382
139.379
139.376
139.374
139.371
139.369
139.367
139.365
139.363
139.361
139.359
139.358
139.356
139.354
139.353
139.351
139.35
139.348
139.347
139.346
139.344
139.343
139.341
139.34
139.338
139.337
139.335
139.333
139.331
139.329
139.327
139.325
139.323
139.321
139.319
139.316
139.314
139.311
139.309
139.306
139.303
139.3
139.297
139.294
139.291
139.417
139.41
139.406
139.402
139.398
139.394
139.391
139.387
139.384
139.381
139.378
139.376
139.373
139.371
139.368
139.366
139.364
139.362
139.36
139.359
139.357
139.355
139.354
139.352
139.351
139.349
139.348
139.346
139.345
139.343
139.342
139.341
139.339
139.337
139.336
139.334
139.332
139.33
139.329
139.327
139.325
139.322
139.32
139.318
139.315
139.313
139.31
139.308
139.305
139.302
139.299
139.296
139.293
139.29
139.287
139.284
139.281
139.278
139.275
139.272
139.392
139.386
139.383
139.38
139.378
139.375
139.372
139.37
139.368
139.365
139.363
139.361
139.36
139.358
139.356
139.355
139.353
139.352
139.35
139.349
139.347
139.346
139.344
139.343
139.341
139.34
139.338
139.337
139.335
139.333
139.332
139.33
139.328
139.326
139.324
139.322
139.319
139.317
139.315
139.312
139.309
139.307
139.304
139.301
139.298
139.295
139.292
139.289
139.286
139.283
139.28
139.277
139.274
139.271
139.268
139.265
139.262
139.259
139.256
139.253
139.373
139.369
139.367
139.365
139.363
139.361
139.359
139.357
139.356
139.354
139.352
139.351
139.349
139.348
139.346
139.345
139.344
139.342
139.341
139.339
139.338
139.336
139.334
139.333
139.331
139.329
139.327
139.325
139.323
139.321
139.318
139.316
139.314
139.311
139.309
139.306
139.303
139.3
139.297
139.295
139.292
139.289
139.285
139.282
139.279
139.276
139.273
139.27
139.267
139.264
139.261
139.258
139.255
139.252
139.25
139.247
139.245
139.242
139.24
139.238
139.359
139.356
139.355
139.353
139.352
139.35
139.349
139.347
139.346
139.344
139.343
139.341
139.34
139.338
139.337
139.335
139.334
139.332
139.33
139.328
139.326
139.324
139.322
139.32
139.318
139.315
139.313
139.31
139.308
139.305
139.302
139.299
139.297
139.294
139.291
139.288
139.285
139.282
139.278
139.275
139.272
139.269
139.266
139.263
139.26
139.257
139.255
139.252
139.249
139.247
139.244
139.242
139.239
139.237
139.235
139.233
139.231
139.23
139.228
139.226
139.349
139.346
139.345
139.344
139.342
139.341
139.339
139.338
139.336
139.334
139.333
139.331
139.329
139.327
139.325
139.323
139.321
139.319
139.317
139.314
139.312
139.309
139.307
139.304
139.301
139.299
139.296
139.293
139.29
139.287
139.284
139.281
139.278
139.275
139.272
139.268
139.265
139.263
139.26
139.257
139.254
139.251
139.249
139.246
139.244
139.241
139.239
139.237
139.235
139.233
139.231
139.229
139.227
139.226
139.225
139.223
139.222
139.221
139.22
139.219
139.339
139.337
139.335
139.334
139.332
139.33
139.328
139.327
139.325
139.323
139.32
139.318
139.316
139.313
139.311
139.308
139.306
139.303
139.3
139.298
139.295
139.292
139.289
139.286
139.283
139.28
139.277
139.274
139.271
139.268
139.265
139.262
139.259
139.256
139.253
139.251
139.248
139.245
139.243
139.241
139.238
139.236
139.234
139.232
139.23
139.229
139.227
139.226
139.224
139.223
139.222
139.22
139.219
139.218
139.217
139.216
139.215
139.215
139.214
139.213
139.329
139.326
139.324
139.322
139.32
139.317
139.315
139.313
139.31
139.308
139.305
139.302
139.3
139.297
139.294
139.291
139.288
139.285
139.282
139.279
139.276
139.273
139.27
139.267
139.264
139.261
139.258
139.255
139.253
139.25
139.247
139.245
139.242
139.24
139.238
139.236
139.234
139.232
139.23
139.228
139.227
139.225
139.224
139.222
139.221
139.22
139.219
139.218
139.217
139.216
139.215
139.214
139.213
139.212
139.212
139.211
139.21
139.209
139.208
139.207
139.315
139.311
139.309
139.307
139.304
139.301
139.299
139.296
139.293
139.29
139.287
139.284
139.281
139.278
139.275
139.272
139.269
139.266
139.263
139.26
139.258
139.255
139.252
139.249
139.247
139.244
139.242
139.24
139.237
139.235
139.233
139.231
139.23
139.228
139.226
139.225
139.223
139.222
139.221
139.22
139.219
139.217
139.216
139.216
139.215
139.214
139.213
139.212
139.211
139.21
139.209
139.208
139.207
139.206
139.205
139.204
139.203
139.202
139.2
139.199
139.299
139.295
139.292
139.289
139.286
139.283
139.28
139.277
139.274
139.271
139.268
139.265
139.263
139.26
139.257
139.254
139.251
139.249
139.246
139.244
139.241
139.239
139.237
139.235
139.233
139.231
139.229
139.227
139.226
139.224
139.223
139.222
139.22
139.219
139.218
139.217
139.216
139.215
139.214
139.213
139.212
139.211
139.211
139.21
139.209
139.208
139.207
139.206
139.205
139.204
139.202
139.201
139.2
139.198
139.197
139.195
139.194
139.192
139.19
139.188
139.281
139.276
139.274
139.271
139.268
139.265
139.262
139.259
139.256
139.253
139.251
139.248
139.246
139.243
139.241
139.239
139.236
139.234
139.232
139.231
139.229
139.227
139.225
139.224
139.223
139.221
139.22
139.219
139.218
139.217
139.216
139.215
139.214
139.213
139.212
139.211
139.21
139.209
139.208
139.207
139.206
139.205
139.204
139.203
139.202
139.2
139.199
139.198
139.196
139.195
139.193
139.191
139.189
139.188
139.186
139.184
139.182
139.179
139.177
139.175
139.263
139.258
139.256
139.253
139.25
139.248
139.245
139.243
139.24
139.238
139.236
139.234
139.232
139.23
139.228
139.227
139.225
139.224
139.222
139.221
139.22
139.218
139.217
139.216
139.215
139.214
139.213
139.212
139.212
139.211
139.21
139.209
139.208
139.207
139.206
139.205
139.204
139.202
139.201
139.2
139.199
139.197
139.196
139.194
139.192
139.191
139.189
139.187
139.185
139.183
139.181
139.179
139.177
139.174
139.172
139.17
139.167
139.165
139.163
139.16
139.246
139.242
139.24
139.238
139.235
139.233
139.231
139.23
139.228
139.226
139.225
139.223
139.222
139.22
139.219
139.218
139.217
139.216
139.215
139.214
139.213
139.212
139.211
139.21
139.209
139.208
139.207
139.206
139.205
139.204
139.203
139.202
139.201
139.199
139.198
139.196
139.195
139.193
139.192
139.19
139.188
139.186
139.184
139.182
139.18
139.178
139.176
139.174
139.171
139.169
139.167
139.165
139.162
139.16
139.158
139.155
139.153
139.151
139.148
139.146
139.232
139.229
139.227
139.226
139.224
139.223
139.221
139.22
139.219
139.218
139.217
139.215
139.214
139.213
139.213
139.212
139.211
139.21
139.209
139.208
139.207
139.206
139.205
139.204
139.203
139.201
139.2
139.199
139.197
139.196
139.194
139.193
139.191
139.189
139.187
139.186
139.184
139.182
139.18
139.177
139.175
139.173
139.171
139.169
139.166
139.164
139.162
139.159
139.157
139.155
139.152
139.15
139.148
139.146
139.144
139.142
139.14
139.138
139.136
139.134
139.222
139.22
139.218
139.217
139.216
139.215
139.214
139.213
139.212
139.211
139.21
139.209
139.208
139.207
139.206
139.205
139.204
139.203
139.202
139.201
139.199
139.198
139.197
139.195
139.194
139.192
139.19
139.189
139.187
139.185
139.183
139.181
139.179
139.177
139.175
139.172
139.17
139.168
139.166
139.163
139.161
139.159
139.156
139.154
139.152
139.15
139.147
139.145
139.143
139.141
139.139
139.137
139.135
139.133
139.132
139.13
139.129
139.127
139.126
139.124
139.214
139.213
139.212
139.211
139.21
139.209
139.208
139.207
139.206
139.205
139.204
139.203
139.201
139.2
139.199
139.198
139.196
139.195
139.193
139.191
139.19
139.188
139.186
139.184
139.182
139.18
139.178
139.176
139.174
139.172
139.169
139.167
139.165
139.163
139.16
139.158
139.156
139.154
139.151
139.149
139.147
139.145
139.143
139.141
139.139
139.137
139.135
139.133
139.131
139.13
139.128
139.127
139.125
139.124
139.123
139.121
139.12
139.119
139.118
139.117
139.208
139.206
139.205
139.204
139.203
139.202
139.201
139.2
139.198
139.197
139.196
139.194
139.192
139.191
139.189
139.187
139.186
139.184
139.182
139.18
139.178
139.175
139.173
139.171
139.169
139.167
139.164
139.162
139.16
139.157
139.155
139.153
139.151
139.149
139.146
139.144
139.142
139.14
139.138
139.136
139.134
139.133
139.131
139.129
139.128
139.126
139.125
139.124
139.122
139.121
139.12
139.119
139.118
139.117
139.116
139.115
139.114
139.113
139.112
139.111
139.201
139.199
139.198
139.196
139.195
139.193
139.192
139.19
139.188
139.187
139.185
139.183
139.181
139.179
139.177
139.175
139.173
139.17
139.168
139.166
139.164
139.161
139.159
139.157
139.155
139.152
139.15
139.148
139.146
139.144
139.142
139.14
139.138
139.136
139.134
139.132
139.131
139.129
139.127
139.126
139.125
139.123
139.122
139.121
139.119
139.118
139.117
139.116
139.115
139.114
139.113
139.112
139.111
139.111
139.11
139.109
139.108
139.107
139.106
139.105
139.192
139.189
139.188
139.186
139.184
139.182
139.18
139.178
139.176
139.174
139.172
139.17
139.168
139.165
139.163
139.161
139.159
139.156
139.154
139.152
139.15
139.147
139.145
139.143
139.141
139.139
139.137
139.135
139.134
139.132
139.13
139.129
139.127
139.126
139.124
139.123
139.122
139.12
139.119
139.118
139.117
139.116
139.115
139.114
139.113
139.112
139.111
139.11
139.109
139.108
139.107
139.107
139.106
139.105
139.104
139.103
139.103
139.102
139.102
139.101
139.181
139.177
139.176
139.173
139.171
139.169
139.167
139.165
139.162
139.16
139.158
139.156
139.153
139.151
139.149
139.147
139.145
139.143
139.141
139.139
139.137
139.135
139.133
139.131
139.13
139.128
139.127
139.125
139.124
139.122
139.121
139.12
139.119
139.118
139.116
139.115
139.114
139.113
139.112
139.111
139.111
139.11
139.109
139.108
139.107
139.106
139.105
139.105
139.104
139.103
139.103
139.102
139.102
139.101
139.101
139.101
139.101
139.101
139.102
139.103
139.167
139.164
139.162
139.16
139.157
139.155
139.153
139.151
139.149
139.146
139.144
139.142
139.14
139.138
139.136
139.135
139.133
139.131
139.129
139.128
139.126
139.125
139.123
139.122
139.121
139.12
139.118
139.117
139.116
139.115
139.114
139.113
139.112
139.111
139.11
139.109
139.108
139.107
139.107
139.106
139.105
139.104
139.104
139.103
139.102
139.102
139.102
139.101
139.101
139.101
139.102
139.102
139.103
139.103
139.105
139.106
139.108
139.109
139.112
139.114
139.153
139.15
139.148
139.146
139.144
139.142
139.14
139.138
139.136
139.134
139.132
139.131
139.129
139.127
139.126
139.124
139.123
139.122
139.12
139.119
139.118
139.117
139.116
139.115
139.114
139.113
139.112
139.111
139.11
139.109
139.108
139.107
139.106
139.105
139.105
139.104
139.103
139.103
139.102
139.102
139.102
139.102
139.102
139.102
139.102
139.103
139.103
139.104
139.106
139.107
139.109
139.111
139.113
139.115
139.118
139.121
139.124
139.128
139.132
139.135
139.14
139.137
139.136
139.134
139.132
139.13
139.129
139.127
139.125
139.124
139.123
139.121
139.12
139.119
139.118
139.116
139.115
139.114
139.113
139.112
139.111
139.11
139.109
139.108
139.108
139.107
139.106
139.105
139.104
139.104
139.103
139.103
139.102
139.102
139.102
139.102
139.102
139.102
139.103
139.103
139.104
139.105
139.106
139.108
139.11
139.112
139.114
139.117
139.119
139.122
139.126
139.129
139.133
139.137
139.14
139.144
139.148
139.152
139.156
139.16
139.129
139.126
139.125
139.124
139.122
139.121
139.12
139.118
139.117
139.116
139.115
139.114
139.113
139.112
139.111
139.11
139.109
139.108
139.107
139.106
139.106
139.105
139.104
139.104
139.103
139.103
139.102
139.102
139.102
139.102
139.102
139.103
139.103
139.104
139.105
139.106
139.107
139.109
139.111
139.113
139.115
139.118
139.121
139.124
139.127
139.13
139.134
139.138
139.141
139.145
139.149
139.153
139.157
139.16
139.164
139.167
139.17
139.173
139.176
139.178
139.12
139.118
139.117
139.116
139.114
139.113
139.112
139.111
139.11
139.109
139.108
139.108
139.107
139.106
139.105
139.105
139.104
139.104
139.103
139.103
139.102
139.102
139.102
139.102
139.103
139.103
139.104
139.105
139.106
139.107
139.108
139.11
139.112
139.114
139.116
139.119
139.122
139.125
139.128
139.131
139.135
139.139
139.142
139.146
139.15
139.153
139.157
139.161
139.164
139.167
139.17
139.173
139.175
139.177
139.179
139.18
139.181
139.182
139.182
139.182
139.112
139.111
139.11
139.109
139.108
139.107
139.107
139.106
139.105
139.104
139.104
139.103
139.103
139.103
139.103
139.102
139.103
139.103
139.103
139.104
139.104
139.105
139.106
139.108
139.109
139.111
139.113
139.115
139.118
139.12
139.123
139.126
139.129
139.133
139.136
139.14
139.143
139.147
139.15
139.154
139.158
139.161
139.164
139.167
139.17
139.173
139.175
139.177
139.179
139.18
139.181
139.181
139.182
139.182
139.181
139.18
139.179
139.177
139.176
139.174
139.107
139.105
139.105
139.104
139.104
139.103
139.103
139.103
139.103
139.103
139.103
139.103
139.104
139.104
139.105
139.106
139.107
139.109
139.11
139.112
139.114
139.116
139.119
139.121
139.124
139.127
139.13
139.133
139.137
139.14
139.144
139.147
139.151
139.154
139.158
139.161
139.164
139.167
139.17
139.172
139.175
139.177
139.178
139.179
139.18
139.181
139.181
139.181
139.181
139.18
139.179
139.177
139.175
139.173
139.171
139.169
139.166
139.163
139.16
139.157
139.103
139.103
139.103
139.103
139.103
139.104
139.104
139.105
139.106
139.107
139.108
139.11
139.111
139.113
139.115
139.117
139.12
139.123
139.125
139.128
139.132
139.135
139.138
139.142
139.145
139.148
139.152
139.155
139.159
139.162
139.165
139.168
139.17
139.173
139.175
139.177
139.178
139.179
139.18
139.181
139.181
139.181
139.18
139.18
139.178
139.177
139.175
139.173
139.171
139.168
139.166
139.163
139.16
139.156
139.153
139.149
139.145
139.141
139.137
139.132
139.105
139.106
139.106
139.108
139.109
139.11
139.112
139.114
139.116
139.118
139.121
139.123
139.126
139.129
139.132
139.135
139.138
139.142
139.145
139.148
139.152
139.155
139.158
139.161
139.164
139.167
139.169
139.171
139.173
139.175
139.176
139.177
139.178
139.179
139.179
139.179
139.178
139.177
139.176
139.175
139.173
139.171
139.169
139.166
139.164
139.161
139.158
139.154
139.151
139.147
139.143
139.139
139.134
139.13
139.125
139.12
139.114
139.108
139.101
139.095
139.11
139.113
139.115
139.118
139.12
139.123
139.126
139.129
139.132
139.136
139.139
139.143
139.146
139.15
139.153
139.157
139.16
139.163
139.166
139.169
139.172
139.174
139.176
139.178
139.18
139.181
139.182
139.183
139.183
139.183
139.183
139.183
139.182
139.181
139.179
139.177
139.175
139.173
139.171
139.168
139.165
139.162
139.158
139.154
139.15
139.146
139.141
139.136
139.13
139.125
139.118
139.112
139.105
139.097
139.089
139.08
139.071
139.061
139.051
139.04
139.136
139.14
139.143
139.146
139.149
139.152
139.154
139.157
139.16
139.162
139.165
139.167
139.169
139.171
139.172
139.174
139.175
139.175
139.176
139.176
139.176
139.175
139.175
139.173
139.172
139.17
139.168
139.166
139.163
139.16
139.157
139.154
139.15
139.146
139.142
139.137
139.132
139.127
139.121
139.116
139.11
139.103
139.097
139.09
139.082
139.074
139.066
139.058
139.049
139.04
139.031
139.022
139.012
139.002
138.992
138.982
138.972
138.962
138.952
138.942
)
;

boundaryField
{
    bottomwall
    {
        type            opaque;
        refValue        nonuniform List<scalar> 
60
(
143.314
145.512
146.765
147.544
148.059
148.417
148.677
148.876
149.037
149.173
149.297
149.414
149.527
149.634
149.738
149.84
149.941
150.044
150.149
150.259
150.371
150.484
150.598
150.71
150.821
150.933
151.055
151.198
151.367
151.552
151.724
151.836
151.845
151.746
151.606
151.582
151.904
152.828
154.551
157.149
160.529
164.437
168.513
172.368
175.658
178.133
179.647
180.14
179.609
178.088
175.649
172.413
168.563
164.342
160.034
155.913
152.182
148.911
145.93
142.629
)
;
        refGradient     uniform 0;
        valueFraction   uniform 1;