/*--------------------------------*- C++ -*----------------------------------*\
| =========                 |                                                 |
| \\      /  F ield         | OpenFOAM: The Open Source CFD Toolbox           |
|  \\    /   O peration     | Version:  2406                                  |
|   \\  /    A nd           | Website:  www.openfoam.com                      |
|    \\/     M anipulation  |                                                 |
\*---------------------------------------------------------------------------*/
FoamFile
{
    version     2.0;
    format      ascii;
    arch        "LSB;label=32;scalar=64";
    class       volScalarField;
    location    "20000";
    object      NegRadHeatFlux;
}
// * * * * * * * * * * * * * * * * * * * * * * * * * * * * * * * * * * * * * //

dimensions      [1 0 -3 0 0 0 0];

internalField   uniform 0;

boundaryField
{
    bottomwall
    {
        type            calculated;
        value           nonuniform List<scalar> 
60
(
7.0837
13.8059
17.5969
19.8907
21.3923
22.4523
23.2286
23.8093
24.2497
24.5676
24.7651
24.8671
24.9297
25.0127
25.1477
25.3304
25.5355
25.7372
25.9207
26.0857
26.2468
26.4355
26.7004
27.0956
27.6496
28.322
28.9798
29.4378
29.591
29.604
30.0446
31.8104
35.7462
41.9991
49.3423
54.8169
53.9938
41.9319
14.5962
-29.7519
-89.7323
-160.926
-236.832
-310.321
-375.039
-426.288
-461.22
-478.493
-477.748
-459.273
-424.015
-373.895
-312.158
-243.473
-173.582
-108.507
-53.477
-12.3763
13.3278
25.3923
)
;
    }
    topwall
    {
        type            calculated;
        value           nonuniform List<scalar> 
60
(
-9.95467
-6.51099
-3.80414
-1.33109
0.649415
2.14908
3.13886
3.54048
3.23931
2.21876
0.653682
-1.13654
-2.8355
-4.24881
-5.31607
-6.04489
-6.44504
-6.50843
-6.22532
-5.60493
-4.68083
-3.5027
-2.12652
-0.61393
0.955803
2.46747
3.75913
4.63421
4.90321
4.4446
3.25926
1.49016
-0.607058
-2.73229
-4.61844
-6.08564
-7.05461
-7.5234
-7.5283
-7.11144
-6.30951
-5.16464
-3.74654
-2.16866
-0.582101
0.854397
2.00768
2.77666
3.0665
2.76849
1.79309
0.145726
-2.03279
-4.52309
-7.14363
-9.81367
-12.5567
-15.331
-18.3917
-20.7888
)
;
    }
    coldwall
    {
        type            calculated;
        value           nonuniform List<scalar> 
48
(
-12.2049
-14.9899
-16.4563
-17.4845
-18.9408
-21.4782
-24.4711
-26.0593
-24.8195
-21.253
-17.3738
-14.981
-14.4816
-15.1212
-15.9415
-16.4533
-16.698
-16.9867
-17.6459
-18.8734
-20.6648
-22.7868
-24.8192
-26.275
-26.7606
-26.1097
-24.433
-22.0725
-19.4854
-17.1096
-15.2575
-14.0687
-13.5221
-13.491
-13.8117
-14.3411
-14.9859
-15.7051
-16.4917
-17.3496
-18.2739
-19.2421
-18.732
-16.9376
-15.1583
-13.2718
-11.0433
-7.82501
)
;
    }
    radinlet
    {
        type            calculated;
        value           nonuniform List<scalar> 
12
(
532.868
531.963
531.205
530.674
530.413
530.378
530.45
530.516
530.585
530.834
531.504
532.713
)
;
    }
    hotwall
    {
        type            calculated;
        value           nonuniform List<scalar> 
60
(
3.33168
-1.25958
-15.0593
-21.4165
-28.28
-34.0331
-37.7823
-38.4849
-36.68
-33.6838
-30.8605
-29.0605
-28.4232
-28.5327
-28.7948
-28.775
-28.3257
-27.5217
-26.5311
-25.5178
-24.6004
-23.8445
-23.268
-22.8505
-22.544
-22.2848
-22.0068
-21.6578
-21.2142
-20.6906
-20.1362
-19.617
-19.1896
-18.8784
-18.6668
-18.5055
-18.3343
-18.1045
-17.7951
-17.4166
-17.004
-16.6042
-16.2601
-15.9937
-15.7943
-15.6263
-15.4669
-15.357
-15.4143
-15.7591
-16.3824
-17.0803
-17.5585
-17.6426
-17.3762
-16.8831
-16.1663
-15.0736
-13.4693
-10.7396
)
;
    }
    frontAndback
    {
        type            empty;
    }
}


// ************************************************************************* //
