/*--------------------------------*- C++ -*----------------------------------*\
| =========                 |                                                 |
| \\      /  F ield         | OpenFOAM: The Open Source CFD Toolbox           |
|  \\    /   O peration     | Version:  2406                                  |
|   \\  /    A nd           | Website:  www.openfoam.com                      |
|    \\/     M anipulation  |                                                 |
\*---------------------------------------------------------------------------*/
FoamFile
{
    version     2.0;
    format      ascii;
    arch        "LSB;label=32;scalar=64";
    class       volScalarField;
    location    "20000";
    object      p;
}
// * * * * * * * * * * * * * * * * * * * * * * * * * * * * * * * * * * * * * //

dimensions      [0 2 -2 0 0 0 0];

internalField   nonuniform List<scalar> 
3600
(
0
-0.000201359
-0.00072136
-0.00130069
-0.0019102
-0.00253876
-0.00319507
-0.00389223
-0.00464069
-0.00544572
-0.00630674
-0.00721771
-0.0081682
-0.00914474
-0.0101322
-0.0111151
-0.0120786
-0.0130097
-0.0138974
-0.0147331
-0.0155109
-0.0162277
-0.0168828
-0.0174781
-0.0180182
-0.0185097
-0.0189615
-0.0193836
-0.0197862
-0.0201778
-0.0205635
-0.0209439
-0.0213152
-0.0216711
-0.0220053
-0.0223131
-0.0225894
-0.0228247
-0.0230002
-0.0230868
-0.0230475
-0.0228441
-0.0224445
-0.0218286
-0.020992
-0.0199453
-0.0187123
-0.0173261
-0.0158252
-0.0142504
-0.0126425
-0.0110404
-0.00947944
-0.00799025
-0.00659842
-0.00532526
-0.00419382
-0.00324239
-0.00251175
-0.00231708
-0.162694
-0.16255
-0.162751
-0.163064
-0.163473
-0.163955
-0.164502
-0.165114
-0.165789
-0.166527
-0.16732
-0.168161
-0.169038
-0.169937
-0.170845
-0.171745
-0.172625
-0.173472
-0.174276
-0.17503
-0.175728
-0.176368
-0.176948
-0.177472
-0.177942
-0.178364
-0.178745
-0.179091
-0.179413
-0.179716
-0.180006
-0.180285
-0.180553
-0.180805
-0.181034
-0.181232
-0.181387
-0.181485
-0.181504
-0.18142
-0.181208
-0.180845
-0.180318
-0.179624
-0.178769
-0.177771
-0.176654
-0.175447
-0.174182
-0.172894
-0.171615
-0.170375
-0.169202
-0.168117
-0.167142
-0.166294
-0.165597
-0.165088
-0.164784
-0.164979
-0.325294
-0.325015
-0.325017
-0.325132
-0.325367
-0.325706
-0.326138
-0.326656
-0.327255
-0.327926
-0.328661
-0.329447
-0.330269
-0.331113
-0.331963
-0.332804
-0.33362
-0.334401
-0.335136
-0.335818
-0.336442
-0.337005
-0.337506
-0.337949
-0.338335
-0.338669
-0.338959
-0.339211
-0.339433
-0.339632
-0.339815
-0.339987
-0.340148
-0.340296
-0.340426
-0.340532
-0.340602
-0.340619
-0.340562
-0.340408
-0.340135
-0.339727
-0.339179
-0.338493
-0.337681
-0.336762
-0.335762
-0.334707
-0.333628
-0.332555
-0.331517
-0.330541
-0.329648
-0.328858
-0.328189
-0.327655
-0.327275
-0.327074
-0.327039
-0.327382
-0.487971
-0.487679
-0.487578
-0.487563
-0.487668
-0.487888
-0.488218
-0.48865
-0.489177
-0.489786
-0.490464
-0.491197
-0.491966
-0.492755
-0.493546
-0.494323
-0.495072
-0.495781
-0.496439
-0.497039
-0.497578
-0.498051
-0.49846
-0.498805
-0.499091
-0.499321
-0.499502
-0.499641
-0.499745
-0.499824
-0.499885
-0.499935
-0.49998
-0.500022
-0.50006
-0.500093
-0.500111
-0.500099
-0.500035
-0.499895
-0.499654
-0.499296
-0.498816
-0.498217
-0.497511
-0.496717
-0.49586
-0.494965
-0.494061
-0.493175
-0.492335
-0.491566
-0.490889
-0.490321
-0.489878
-0.48957
-0.489407
-0.489395
-0.489496
-0.489832
-0.650739
-0.650472
-0.650325
-0.650237
-0.650256
-0.650389
-0.650639
-0.651002
-0.651468
-0.652024
-0.652654
-0.65334
-0.654063
-0.654803
-0.65554
-0.656259
-0.656943
-0.657581
-0.658163
-0.658681
-0.659131
-0.659511
-0.659821
-0.660063
-0.660239
-0.660356
-0.660418
-0.660434
-0.660412
-0.660362
-0.660295
-0.660222
-0.660154
-0.660099
-0.660066
-0.660058
-0.660069
-0.660084
-0.660075
-0.660012
-0.659864
-0.65961
-0.659242
-0.658761
-0.65818
-0.657518
-0.656797
-0.656044
-0.655286
-0.65455
-0.653863
-0.653249
-0.652728
-0.652319
-0.652032
-0.651875
-0.651845
-0.651935
-0.652093
-0.652378
-0.813615
-0.813376
-0.813216
-0.813094
-0.813063
-0.813141
-0.813336
-0.813648
-0.814069
-0.814585
-0.815177
-0.815825
-0.816507
-0.817203
-0.817892
-0.818556
-0.819179
-0.819749
-0.820256
-0.820693
-0.821056
-0.821343
-0.821554
-0.821692
-0.821759
-0.82176
-0.821702
-0.821593
-0.821444
-0.821266
-0.821075
-0.820885
-0.820715
-0.820582
-0.820504
-0.820489
-0.820533
-0.820617
-0.820705
-0.820754
-0.820728
-0.820599
-0.820354
-0.819997
-0.819539
-0.818999
-0.8184
-0.817769
-0.817131
-0.816512
-0.815941
-0.815439
-0.815029
-0.814727
-0.814543
-0.814477
-0.81452
-0.814655
-0.814826
-0.815058
-0.976588
-0.976366
-0.976209
-0.976077
-0.976024
-0.976072
-0.976235
-0.976516
-0.976906
-0.977393
-0.977957
-0.978576
-0.979225
-0.979884
-0.980529
-0.981143
-0.98171
-0.982217
-0.982654
-0.983016
-0.983297
-0.983497
-0.983615
-0.983653
-0.983616
-0.983509
-0.983337
-0.983111
-0.982842
-0.982545
-0.982239
-0.981945
-0.98169
-0.9815
-0.981401
-0.981407
-0.981514
-0.981692
-0.981894
-0.982068
-0.982166
-0.982157
-0.982029
-0.981785
-0.981436
-0.981002
-0.980507
-0.979975
-0.979432
-0.978903
-0.978416
-0.977995
-0.97766
-0.977427
-0.977303
-0.977287
-0.977363
-0.977511
-0.977675
-0.977871
-1.13963
-1.13942
-1.13927
-1.13914
-1.13908
-1.13912
-1.13927
-1.13954
-1.13991
-1.14038
-1.14092
-1.14152
-1.14215
-1.14277
-1.14338
-1.14395
-1.14447
-1.14491
-1.14529
-1.14558
-1.14579
-1.14591
-1.14595
-1.1459
-1.14577
-1.14556
-1.14529
-1.14496
-1.14459
-1.14419
-1.14378
-1.1434
-1.14308
-1.14285
-1.14275
-1.1428
-1.14298
-1.14326
-1.14358
-1.14387
-1.14407
-1.14417
-1.14414
-1.14399
-1.14373
-1.14339
-1.14298
-1.14252
-1.14205
-1.14159
-1.14117
-1.1408
-1.14051
-1.14032
-1.14023
-1.14023
-1.14032
-1.14046
-1.14061
-1.14079
-1.30273
-1.30251
-1.30237
-1.30225
-1.3022
-1.30224
-1.30239
-1.30265
-1.30302
-1.30348
-1.30402
-1.3046
-1.3052
-1.3058
-1.30638
-1.30691
-1.30738
-1.30778
-1.3081
-1.30833
-1.30847
-1.30852
-1.30849
-1.30837
-1.30816
-1.30787
-1.30752
-1.3071
-1.30664
-1.30616
-1.30567
-1.30522
-1.30485
-1.30461
-1.30453
-1.30462
-1.30488
-1.30525
-1.30566
-1.30605
-1.30634
-1.30652
-1.30657
-1.30649
-1.30631
-1.30603
-1.30569
-1.3053
-1.30489
-1.30447
-1.30409
-1.30376
-1.3035
-1.30333
-1.30325
-1.30326
-1.30334
-1.30348
-1.30361
-1.30378
-1.46584
-1.46562
-1.46549
-1.46538
-1.46534
-1.46539
-1.46555
-1.46581
-1.46619
-1.46665
-1.46718
-1.46775
-1.46834
-1.46892
-1.46946
-1.46996
-1.47039
-1.47074
-1.47101
-1.4712
-1.47128
-1.47128
-1.47119
-1.471
-1.47074
-1.47039
-1.46997
-1.46949
-1.46896
-1.46841
-1.46787
-1.46737
-1.46698
-1.46672
-1.46666
-1.46681
-1.46713
-1.46758
-1.46807
-1.46852
-1.46888
-1.46911
-1.46922
-1.4692
-1.46908
-1.46886
-1.46857
-1.46823
-1.46785
-1.46748
-1.46712
-1.46681
-1.46656
-1.4664
-1.46632
-1.46633
-1.4664
-1.46652
-1.46664
-1.46682
-1.62896
-1.62872
-1.6286
-1.6285
-1.62848
-1.62854
-1.62872
-1.629
-1.62938
-1.62985
-1.63038
-1.63094
-1.63152
-1.63208
-1.6326
-1.63306
-1.63346
-1.63377
-1.634
-1.63414
-1.63418
-1.63413
-1.63399
-1.63377
-1.63345
-1.63306
-1.63259
-1.63207
-1.63149
-1.6309
-1.63032
-1.6298
-1.62938
-1.62914
-1.6291
-1.62929
-1.62967
-1.63017
-1.6307
-1.6312
-1.63159
-1.63187
-1.63202
-1.63205
-1.63197
-1.63179
-1.63154
-1.63124
-1.6309
-1.63055
-1.63021
-1.6299
-1.62966
-1.6295
-1.62941
-1.62941
-1.62947
-1.62958
-1.62969
-1.62988
-1.79206
-1.79182
-1.7917
-1.79161
-1.7916
-1.79169
-1.79188
-1.79218
-1.79258
-1.79305
-1.79358
-1.79414
-1.7947
-1.79524
-1.79574
-1.79618
-1.79654
-1.79682
-1.79701
-1.79711
-1.79712
-1.79704
-1.79686
-1.7966
-1.79626
-1.79584
-1.79534
-1.79479
-1.79419
-1.79357
-1.79297
-1.79243
-1.79202
-1.79178
-1.79177
-1.79199
-1.7924
-1.79294
-1.7935
-1.79402
-1.79444
-1.79474
-1.79492
-1.79498
-1.79493
-1.7948
-1.79458
-1.7943
-1.79398
-1.79365
-1.79332
-1.79302
-1.79277
-1.7926
-1.7925
-1.79249
-1.79253
-1.79263
-1.79274
-1.79294
-1.95514
-1.95488
-1.95477
-1.9547
-1.9547
-1.95481
-1.95502
-1.95534
-1.95575
-1.95624
-1.95677
-1.95733
-1.95788
-1.9584
-1.95887
-1.95928
-1.95961
-1.95986
-1.96002
-1.96009
-1.96007
-1.95996
-1.95977
-1.95948
-1.95912
-1.95868
-1.95818
-1.95761
-1.957
-1.95638
-1.95577
-1.95523
-1.95482
-1.9546
-1.95461
-1.95485
-1.95528
-1.95583
-1.9564
-1.95693
-1.95736
-1.95768
-1.95788
-1.95796
-1.95794
-1.95783
-1.95764
-1.95739
-1.95708
-1.95676
-1.95643
-1.95613
-1.95588
-1.95569
-1.95558
-1.95555
-1.95558
-1.95567
-1.95578
-1.95599
-2.11818
-2.11791
-2.11781
-2.11774
-2.11777
-2.1179
-2.11813
-2.11847
-2.1189
-2.11939
-2.11993
-2.12048
-2.12101
-2.12151
-2.12196
-2.12234
-2.12265
-2.12287
-2.12301
-2.12305
-2.12301
-2.12288
-2.12267
-2.12238
-2.12201
-2.12157
-2.12106
-2.12049
-2.11989
-2.11926
-2.11867
-2.11814
-2.11774
-2.11754
-2.11756
-2.11781
-2.11825
-2.1188
-2.11937
-2.1199
-2.12033
-2.12066
-2.12087
-2.12097
-2.12097
-2.12088
-2.12071
-2.12047
-2.12018
-2.11986
-2.11954
-2.11923
-2.11896
-2.11876
-2.11863
-2.11858
-2.1186
-2.11869
-2.11879
-2.11902
-2.28117
-2.2809
-2.28081
-2.28075
-2.2808
-2.28094
-2.2812
-2.28156
-2.282
-2.2825
-2.28304
-2.28358
-2.2841
-2.28458
-2.285
-2.28536
-2.28564
-2.28584
-2.28595
-2.28598
-2.28592
-2.28578
-2.28556
-2.28526
-2.28489
-2.28445
-2.28395
-2.2834
-2.28281
-2.2822
-2.28162
-2.28111
-2.28073
-2.28054
-2.28058
-2.28084
-2.28127
-2.28181
-2.28237
-2.28289
-2.28332
-2.28365
-2.28387
-2.28399
-2.284
-2.28393
-2.28378
-2.28355
-2.28327
-2.28295
-2.28262
-2.2823
-2.28202
-2.2818
-2.28166
-2.28159
-2.2816
-2.28167
-2.28177
-2.28201
-2.44412
-2.44385
-2.44376
-2.44371
-2.44378
-2.44394
-2.44422
-2.4446
-2.44505
-2.44556
-2.44609
-2.44662
-2.44712
-2.44758
-2.44799
-2.44832
-2.44857
-2.44875
-2.44884
-2.44885
-2.44878
-2.44863
-2.44841
-2.44812
-2.44775
-2.44733
-2.44684
-2.4463
-2.44573
-2.44515
-2.44459
-2.4441
-2.44375
-2.44357
-2.44362
-2.44388
-2.44431
-2.44484
-2.44538
-2.44588
-2.44631
-2.44664
-2.44686
-2.44699
-2.44702
-2.44697
-2.44683
-2.44661
-2.44633
-2.44602
-2.44568
-2.44535
-2.44506
-2.44481
-2.44465
-2.44456
-2.44455
-2.44462
-2.44472
-2.44497
-2.60702
-2.60674
-2.60666
-2.60662
-2.6067
-2.60689
-2.60719
-2.60758
-2.60805
-2.60856
-2.60908
-2.6096
-2.61008
-2.61052
-2.6109
-2.6112
-2.61144
-2.61159
-2.61167
-2.61167
-2.61159
-2.61144
-2.61122
-2.61093
-2.61058
-2.61017
-2.6097
-2.60919
-2.60864
-2.60808
-2.60755
-2.60709
-2.60676
-2.60661
-2.60666
-2.60692
-2.60734
-2.60785
-2.60838
-2.60887
-2.60928
-2.60961
-2.60984
-2.60998
-2.61002
-2.60998
-2.60985
-2.60964
-2.60937
-2.60905
-2.60871
-2.60837
-2.60805
-2.60779
-2.6076
-2.60749
-2.60747
-2.60753
-2.60762
-2.60788
-2.76986
-2.76958
-2.7695
-2.76948
-2.76958
-2.76979
-2.7701
-2.77051
-2.77098
-2.77148
-2.772
-2.7725
-2.77296
-2.77338
-2.77373
-2.77401
-2.77422
-2.77436
-2.77442
-2.77441
-2.77433
-2.77418
-2.77397
-2.77369
-2.77336
-2.77296
-2.77252
-2.77203
-2.77151
-2.77098
-2.77048
-2.77005
-2.76975
-2.76961
-2.76968
-2.76993
-2.77034
-2.77083
-2.77134
-2.77182
-2.77223
-2.77256
-2.77279
-2.77294
-2.77299
-2.77295
-2.77283
-2.77263
-2.77237
-2.77205
-2.7717
-2.77134
-2.77101
-2.77072
-2.77051
-2.77038
-2.77034
-2.77039
-2.77048
-2.77075
-2.93263
-2.93235
-2.93228
-2.93227
-2.93239
-2.93261
-2.93295
-2.93336
-2.93383
-2.93433
-2.93483
-2.93532
-2.93576
-2.93615
-2.93648
-2.93674
-2.93693
-2.93706
-2.93711
-2.93709
-2.93701
-2.93686
-2.93666
-2.93639
-2.93607
-2.9357
-2.93528
-2.93482
-2.93433
-2.93384
-2.93337
-2.93297
-2.93269
-2.93257
-2.93264
-2.9329
-2.93329
-2.93377
-2.93427
-2.93473
-2.93514
-2.93546
-2.9357
-2.93585
-2.93591
-2.93589
-2.93577
-2.93558
-2.93532
-2.935
-2.93464
-2.93427
-2.93392
-2.93361
-2.93337
-2.93322
-2.93316
-2.9332
-2.93329
-2.93356
-3.09533
-3.09506
-3.095
-3.095
-3.09513
-3.09538
-3.09572
-3.09614
-3.09661
-3.0971
-3.09759
-3.09805
-3.09847
-3.09884
-3.09915
-3.09939
-3.09957
-3.09967
-3.09972
-3.0997
-3.09962
-3.09948
-3.09928
-3.09903
-3.09873
-3.09838
-3.09798
-3.09755
-3.09709
-3.09663
-3.09619
-3.09582
-3.09557
-3.09547
-3.09555
-3.0958
-3.09619
-3.09666
-3.09714
-3.0976
-3.098
-3.09832
-3.09856
-3.09872
-3.09878
-3.09877
-3.09866
-3.09847
-3.09821
-3.09789
-3.09753
-3.09715
-3.09678
-3.09645
-3.09618
-3.09601
-3.09593
-3.09596
-3.09604
-3.09632
-3.25797
-3.2577
-3.25764
-3.25766
-3.25781
-3.25806
-3.25842
-3.25884
-3.25931
-3.25979
-3.26026
-3.2607
-3.2611
-3.26145
-3.26173
-3.26196
-3.26212
-3.26222
-3.26225
-3.26223
-3.26215
-3.26202
-3.26183
-3.2616
-3.26132
-3.26099
-3.26062
-3.26021
-3.25978
-3.25935
-3.25894
-3.2586
-3.25837
-3.25829
-3.25838
-3.25864
-3.25902
-3.25947
-3.25995
-3.2604
-3.26079
-3.26112
-3.26136
-3.26152
-3.2616
-3.26159
-3.26149
-3.26131
-3.26105
-3.26073
-3.26036
-3.25997
-3.25958
-3.25922
-3.25893
-3.25873
-3.25864
-3.25865
-3.25872
-3.25901
-3.42053
-3.42026
-3.42022
-3.42025
-3.42041
-3.42068
-3.42104
-3.42146
-3.42192
-3.42239
-3.42284
-3.42327
-3.42364
-3.42397
-3.42423
-3.42444
-3.42459
-3.42468
-3.42471
-3.42469
-3.42462
-3.42449
-3.42432
-3.4241
-3.42383
-3.42352
-3.42318
-3.4228
-3.4224
-3.42199
-3.42161
-3.4213
-3.4211
-3.42103
-3.42113
-3.42139
-3.42177
-3.42222
-3.42269
-3.42313
-3.42353
-3.42385
-3.4241
-3.42426
-3.42434
-3.42434
-3.42424
-3.42407
-3.42381
-3.42349
-3.42312
-3.42272
-3.42231
-3.42194
-3.42162
-3.4214
-3.42128
-3.42128
-3.42134
-3.42163
-3.583
-3.58275
-3.58271
-3.58276
-3.58293
-3.58321
-3.58357
-3.584
-3.58445
-3.5849
-3.58534
-3.58574
-3.5861
-3.5864
-3.58665
-3.58685
-3.58699
-3.58707
-3.5871
-3.58708
-3.58701
-3.58689
-3.58673
-3.58653
-3.58628
-3.58599
-3.58567
-3.58531
-3.58493
-3.58455
-3.5842
-3.58392
-3.58373
-3.58369
-3.5838
-3.58406
-3.58443
-3.58488
-3.58534
-3.58578
-3.58618
-3.58651
-3.58676
-3.58693
-3.58701
-3.58701
-3.58692
-3.58675
-3.5865
-3.58618
-3.5858
-3.58539
-3.58497
-3.58458
-3.58424
-3.58399
-3.58385
-3.58383
-3.58388
-3.58417
-3.7454
-3.74515
-3.74513
-3.74519
-3.74537
-3.74566
-3.74602
-3.74644
-3.74689
-3.74733
-3.74775
-3.74813
-3.74847
-3.74876
-3.749
-3.74918
-3.74931
-3.74939
-3.74942
-3.7494
-3.74933
-3.74923
-3.74908
-3.74889
-3.74865
-3.74838
-3.74808
-3.74774
-3.74739
-3.74703
-3.74671
-3.74644
-3.74628
-3.74625
-3.74637
-3.74663
-3.747
-3.74745
-3.74791
-3.74835
-3.74875
-3.74908
-3.74933
-3.74951
-3.7496
-3.7496
-3.74952
-3.74935
-3.7491
-3.74878
-3.7484
-3.74798
-3.74755
-3.74714
-3.74678
-3.7465
-3.74634
-3.7463
-3.74635
-3.74663
-3.90771
-3.90747
-3.90746
-3.90753
-3.90772
-3.90802
-3.90839
-3.90881
-3.90924
-3.90967
-3.91007
-3.91044
-3.91076
-3.91104
-3.91126
-3.91143
-3.91156
-3.91164
-3.91167
-3.91165
-3.91159
-3.91149
-3.91136
-3.91118
-3.91096
-3.9107
-3.91041
-3.9101
-3.90976
-3.90943
-3.90912
-3.90887
-3.90873
-3.90871
-3.90883
-3.9091
-3.90948
-3.90992
-3.91038
-3.91083
-3.91123
-3.91156
-3.91182
-3.912
-3.91209
-3.9121
-3.91202
-3.91186
-3.91161
-3.91129
-3.91091
-3.91049
-3.91004
-3.90961
-3.90923
-3.90893
-3.90875
-3.90869
-3.90873
-3.90901
-4.06993
-4.06971
-4.0697
-4.06979
-4.06999
-4.07029
-4.07067
-4.07108
-4.0715
-4.07192
-4.07231
-4.07267
-4.07298
-4.07324
-4.07345
-4.07362
-4.07374
-4.07382
-4.07385
-4.07384
-4.07379
-4.0737
-4.07357
-4.0734
-4.07319
-4.07295
-4.07268
-4.07237
-4.07205
-4.07173
-4.07144
-4.07121
-4.07107
-4.07107
-4.0712
-4.07147
-4.07185
-4.07229
-4.07276
-4.0732
-4.07361
-4.07395
-4.07421
-4.07439
-4.07449
-4.0745
-4.07443
-4.07427
-4.07402
-4.07371
-4.07332
-4.07289
-4.07244
-4.072
-4.07159
-4.07127
-4.07106
-4.07099
-4.07101
-4.07129
-4.23206
-4.23185
-4.23186
-4.23195
-4.23217
-4.23248
-4.23285
-4.23326
-4.23368
-4.23409
-4.23447
-4.23481
-4.23511
-4.23537
-4.23558
-4.23574
-4.23586
-4.23594
-4.23597
-4.23597
-4.23592
-4.23584
-4.23572
-4.23556
-4.23536
-4.23513
-4.23486
-4.23457
-4.23426
-4.23395
-4.23367
-4.23345
-4.23332
-4.23332
-4.23346
-4.23373
-4.23411
-4.23455
-4.23502
-4.23547
-4.23588
-4.23623
-4.2365
-4.23669
-4.23679
-4.2368
-4.23673
-4.23657
-4.23633
-4.23602
-4.23563
-4.2352
-4.23474
-4.23428
-4.23386
-4.23352
-4.23329
-4.2332
-4.2332
-4.23346
-4.3941
-4.3939
-4.39392
-4.39403
-4.39426
-4.39457
-4.39495
-4.39536
-4.39577
-4.39617
-4.39655
-4.39688
-4.39718
-4.39743
-4.39763
-4.3978
-4.39792
-4.398
-4.39803
-4.39803
-4.39799
-4.39791
-4.3978
-4.39765
-4.39746
-4.39723
-4.39697
-4.39668
-4.39638
-4.39608
-4.3958
-4.39559
-4.39547
-4.39547
-4.39561
-4.39588
-4.39626
-4.39671
-4.39718
-4.39764
-4.39805
-4.3984
-4.39868
-4.39887
-4.39898
-4.399
-4.39893
-4.39877
-4.39853
-4.39822
-4.39783
-4.3974
-4.39693
-4.39646
-4.39603
-4.39566
-4.39541
-4.3953
-4.39529
-4.39554
-4.55605
-4.55586
-4.5559
-4.55602
-4.55625
-4.55658
-4.55696
-4.55737
-4.55778
-4.55817
-4.55854
-4.55887
-4.55917
-4.55942
-4.55962
-4.55979
-4.55991
-4.55999
-4.56004
-4.56004
-4.56001
-4.55993
-4.55982
-4.55967
-4.55949
-4.55926
-4.55901
-4.55872
-4.55842
-4.55812
-4.55784
-4.55763
-4.55751
-4.55751
-4.55764
-4.55791
-4.55829
-4.55874
-4.55922
-4.55968
-4.5601
-4.56046
-4.56075
-4.56095
-4.56106
-4.56108
-4.56101
-4.56086
-4.56062
-4.56031
-4.55992
-4.55948
-4.55901
-4.55853
-4.55808
-4.5577
-4.55743
-4.55729
-4.55727
-4.55751
-4.71789
-4.71773
-4.71777
-4.71791
-4.71816
-4.71849
-4.71888
-4.71929
-4.7197
-4.72009
-4.72046
-4.72079
-4.72109
-4.72134
-4.72155
-4.72172
-4.72185
-4.72193
-4.72198
-4.72199
-4.72196
-4.72189
-4.72178
-4.72163
-4.72145
-4.72122
-4.72096
-4.72067
-4.72037
-4.72006
-4.71978
-4.71956
-4.71944
-4.71943
-4.71956
-4.71983
-4.72021
-4.72066
-4.72114
-4.72161
-4.72204
-4.72241
-4.7227
-4.72291
-4.72302
-4.72305
-4.72299
-4.72284
-4.7226
-4.72228
-4.7219
-4.72145
-4.72098
-4.72049
-4.72003
-4.71963
-4.71933
-4.71918
-4.71914
-4.71936
-4.87964
-4.8795
-4.87956
-4.87971
-4.87997
-4.88031
-4.8807
-4.88112
-4.88153
-4.88193
-4.8823
-4.88264
-4.88294
-4.8832
-4.88341
-4.88359
-4.88372
-4.88382
-4.88387
-4.88388
-4.88386
-4.88379
-4.88368
-4.88353
-4.88334
-4.88311
-4.88284
-4.88255
-4.88223
-4.88191
-4.88162
-4.88139
-4.88126
-4.88124
-4.88137
-4.88163
-4.882
-4.88245
-4.88294
-4.88342
-4.88386
-4.88424
-4.88454
-4.88475
-4.88487
-4.88491
-4.88484
-4.88469
-4.88446
-4.88414
-4.88375
-4.88331
-4.88282
-4.88233
-4.88185
-4.88144
-4.88113
-4.88095
-4.88089
-4.88109
-5.0413
-5.04117
-5.04124
-5.04141
-5.04168
-5.04204
-5.04244
-5.04286
-5.04328
-5.04369
-5.04406
-5.04441
-5.04472
-5.04499
-5.04521
-5.0454
-5.04554
-5.04564
-5.0457
-5.04572
-5.04569
-5.04562
-5.04551
-5.04536
-5.04516
-5.04493
-5.04465
-5.04434
-5.044
-5.04367
-5.04337
-5.04312
-5.04297
-5.04294
-5.04305
-5.0433
-5.04367
-5.04412
-5.04461
-5.0451
-5.04555
-5.04594
-5.04625
-5.04648
-5.04661
-5.04664
-5.04658
-5.04643
-5.0462
-5.04588
-5.04549
-5.04504
-5.04455
-5.04405
-5.04356
-5.04314
-5.0428
-5.04261
-5.04253
-5.04271
-5.20285
-5.20275
-5.20283
-5.20302
-5.20331
-5.20367
-5.20408
-5.20451
-5.20494
-5.20536
-5.20575
-5.20611
-5.20643
-5.20671
-5.20695
-5.20714
-5.2073
-5.20741
-5.20747
-5.20749
-5.20747
-5.2074
-5.20728
-5.20712
-5.20692
-5.20666
-5.20637
-5.20604
-5.20569
-5.20533
-5.205
-5.20473
-5.20456
-5.20451
-5.20461
-5.20485
-5.20521
-5.20566
-5.20616
-5.20665
-5.20712
-5.20752
-5.20784
-5.20808
-5.20822
-5.20826
-5.2082
-5.20805
-5.20782
-5.2075
-5.2071
-5.20665
-5.20616
-5.20565
-5.20516
-5.20471
-5.20436
-5.20415
-5.20406
-5.20421
-5.36431
-5.36423
-5.36433
-5.36453
-5.36483
-5.36521
-5.36564
-5.36608
-5.36652
-5.36695
-5.36735
-5.36773
-5.36806
-5.36836
-5.36862
-5.36883
-5.36899
-5.36911
-5.36918
-5.36921
-5.36918
-5.36911
-5.36899
-5.36881
-5.36859
-5.36832
-5.368
-5.36765
-5.36727
-5.36689
-5.36653
-5.36624
-5.36604
-5.36597
-5.36605
-5.36627
-5.36663
-5.36708
-5.36757
-5.36808
-5.36856
-5.36897
-5.36931
-5.36956
-5.36971
-5.36975
-5.3697
-5.36956
-5.36932
-5.36899
-5.3686
-5.36814
-5.36765
-5.36713
-5.36663
-5.36617
-5.36581
-5.36557
-5.36546
-5.36558
-5.52566
-5.52562
-5.52573
-5.52595
-5.52627
-5.52666
-5.5271
-5.52756
-5.52801
-5.52846
-5.52888
-5.52927
-5.52963
-5.52995
-5.53022
-5.53044
-5.53062
-5.53075
-5.53083
-5.53085
-5.53083
-5.53075
-5.53062
-5.53043
-5.53019
-5.5299
-5.52955
-5.52917
-5.52876
-5.52835
-5.52796
-5.52763
-5.5274
-5.52731
-5.52736
-5.52757
-5.52792
-5.52836
-5.52887
-5.52938
-5.52987
-5.5303
-5.53066
-5.53092
-5.53108
-5.53113
-5.53108
-5.53094
-5.5307
-5.53037
-5.52997
-5.52951
-5.52901
-5.52849
-5.52798
-5.52751
-5.52713
-5.52688
-5.52675
-5.52684
-5.68693
-5.68691
-5.68704
-5.68728
-5.68761
-5.68802
-5.68847
-5.68895
-5.68942
-5.68989
-5.69033
-5.69074
-5.69112
-5.69146
-5.69175
-5.69199
-5.69218
-5.69232
-5.69241
-5.69243
-5.6924
-5.69232
-5.69217
-5.69197
-5.6917
-5.69138
-5.69101
-5.69059
-5.69015
-5.6897
-5.68927
-5.68891
-5.68865
-5.68853
-5.68856
-5.68875
-5.68908
-5.68952
-5.69003
-5.69055
-5.69106
-5.69151
-5.69188
-5.69215
-5.69232
-5.69239
-5.69235
-5.6922
-5.69196
-5.69163
-5.69123
-5.69077
-5.69026
-5.68973
-5.68921
-5.68873
-5.68834
-5.68807
-5.68792
-5.68798
-5.8481
-5.84812
-5.84827
-5.84852
-5.84887
-5.84929
-5.84976
-5.85025
-5.85074
-5.85123
-5.8517
-5.85213
-5.85254
-5.8529
-5.85321
-5.85347
-5.85368
-5.85382
-5.85391
-5.85394
-5.85391
-5.85381
-5.85365
-5.85342
-5.85313
-5.85278
-5.85237
-5.85192
-5.85143
-5.85094
-5.85047
-5.85007
-5.84978
-5.84963
-5.84963
-5.8498
-5.85012
-5.85056
-5.85107
-5.8516
-5.85212
-5.85259
-5.85297
-5.85327
-5.85345
-5.85353
-5.85349
-5.85335
-5.85311
-5.85278
-5.85237
-5.8519
-5.85139
-5.85086
-5.85033
-5.84984
-5.84944
-5.84915
-5.84899
-5.84901
-6.00919
-6.00924
-6.0094
-6.00967
-6.01004
-6.01047
-6.01096
-6.01147
-6.01198
-6.01249
-6.01298
-6.01345
-6.01387
-6.01426
-6.01459
-6.01487
-6.01509
-6.01525
-6.01534
-6.01537
-6.01533
-6.01522
-6.01504
-6.01479
-6.01447
-6.01408
-6.01363
-6.01314
-6.01261
-6.01207
-6.01156
-6.01112
-6.01079
-6.01061
-6.01059
-6.01074
-6.01104
-6.01147
-6.01199
-6.01253
-6.01306
-6.01355
-6.01395
-6.01426
-6.01446
-6.01455
-6.01452
-6.01439
-6.01415
-6.01381
-6.0134
-6.01293
-6.01241
-6.01187
-6.01134
-6.01084
-6.01043
-6.01012
-6.00995
-6.00993
-6.1702
-6.17029
-6.17047
-6.17075
-6.17113
-6.17158
-6.17208
-6.17261
-6.17314
-6.17367
-6.17419
-6.17468
-6.17513
-6.17554
-6.1759
-6.1762
-6.17643
-6.1766
-6.17669
-6.17672
-6.17667
-6.17654
-6.17634
-6.17607
-6.17571
-6.17529
-6.17479
-6.17425
-6.17368
-6.17309
-6.17254
-6.17206
-6.17169
-6.17147
-6.17143
-6.17156
-6.17185
-6.17227
-6.17279
-6.17334
-6.17389
-6.17439
-6.17481
-6.17514
-6.17536
-6.17546
-6.17544
-6.17531
-6.17508
-6.17474
-6.17433
-6.17385
-6.17333
-6.17278
-6.17224
-6.17174
-6.17132
-6.171
-6.17081
-6.17075
-6.33114
-6.33127
-6.33146
-6.33176
-6.33215
-6.33261
-6.33312
-6.33367
-6.33422
-6.33477
-6.33531
-6.33583
-6.33631
-6.33674
-6.33712
-6.33744
-6.33769
-6.33786
-6.33796
-6.33798
-6.33792
-6.33778
-6.33755
-6.33724
-6.33685
-6.33639
-6.33585
-6.33526
-6.33463
-6.33401
-6.33341
-6.33289
-6.33248
-6.33223
-6.33216
-6.33227
-6.33255
-6.33296
-6.33348
-6.33404
-6.3346
-6.33512
-6.33557
-6.33592
-6.33615
-6.33627
-6.33626
-6.33614
-6.3359
-6.33557
-6.33516
-6.33468
-6.33415
-6.3336
-6.33306
-6.33255
-6.33211
-6.33178
-6.33158
-6.33148
-6.49203
-6.4922
-6.4924
-6.49271
-6.49311
-6.49358
-6.4941
-6.49466
-6.49523
-6.4958
-6.49637
-6.49691
-6.49741
-6.49787
-6.49826
-6.4986
-6.49886
-6.49904
-6.49914
-6.49915
-6.49908
-6.49892
-6.49866
-6.49832
-6.49789
-6.49738
-6.4968
-6.49616
-6.49549
-6.49481
-6.49417
-6.49361
-6.49317
-6.49289
-6.49279
-6.49288
-6.49314
-6.49356
-6.49407
-6.49464
-6.49521
-6.49575
-6.49622
-6.49659
-6.49684
-6.49698
-6.49698
-6.49687
-6.49664
-6.49631
-6.4959
-6.49541
-6.49489
-6.49433
-6.49379
-6.49327
-6.49283
-6.49249
-6.49227
-6.49212
-6.65287
-6.65308
-6.65329
-6.65361
-6.65401
-6.65449
-6.65502
-6.65558
-6.65617
-6.65676
-6.65735
-6.65791
-6.65843
-6.65891
-6.65933
-6.65967
-6.65994
-6.66013
-6.66023
-6.66023
-6.66014
-6.65996
-6.65968
-6.6593
-6.65883
-6.65827
-6.65764
-6.65696
-6.65624
-6.65551
-6.65483
-6.65423
-6.65376
-6.65345
-6.65333
-6.6534
-6.65365
-6.65406
-6.65457
-6.65515
-6.65574
-6.65629
-6.65678
-6.65717
-6.65745
-6.6576
-6.65762
-6.65752
-6.6573
-6.65697
-6.65656
-6.65608
-6.65555
-6.65499
-6.65444
-6.65393
-6.65348
-6.65313
-6.6529
-6.65271
-6.81368
-6.81393
-6.81415
-6.81447
-6.81488
-6.81536
-6.81589
-6.81646
-6.81706
-6.81766
-6.81826
-6.81884
-6.81939
-6.81988
-6.82031
-6.82067
-6.82095
-6.82113
-6.82123
-6.82122
-6.82111
-6.8209
-6.82059
-6.82017
-6.81966
-6.81906
-6.81838
-6.81765
-6.81688
-6.81612
-6.8154
-6.81477
-6.81427
-6.81394
-6.81379
-6.81385
-6.81409
-6.81449
-6.815
-6.81558
-6.81618
-6.81675
-6.81726
-6.81767
-6.81797
-6.81814
-6.81818
-6.81809
-6.81788
-6.81756
-6.81715
-6.81667
-6.81614
-6.81559
-6.81504
-6.81453
-6.81408
-6.81372
-6.81348
-6.81324
-6.97448
-6.97477
-6.97499
-6.97532
-6.97572
-6.9762
-6.97673
-6.9773
-6.9779
-6.97852
-6.97913
-6.97972
-6.98028
-6.98078
-6.98122
-6.98159
-6.98187
-6.98205
-6.98214
-6.98211
-6.98199
-6.98175
-6.9814
-6.98095
-6.9804
-6.97975
-6.97903
-6.97825
-6.97744
-6.97664
-6.97589
-6.97523
-6.9747
-6.97435
-6.97419
-6.97423
-6.97446
-6.97485
-6.97537
-6.97595
-6.97656
-6.97715
-6.97768
-6.97811
-6.97843
-6.97862
-6.97868
-6.97861
-6.97841
-6.9781
-6.9777
-6.97722
-6.9767
-6.97615
-6.9756
-6.97509
-6.97464
-6.97427
-6.97403
-6.97375
-7.13528
-7.13562
-7.13584
-7.13617
-7.13657
-7.13703
-7.13756
-7.13812
-7.13872
-7.13934
-7.13995
-7.14055
-7.14111
-7.14162
-7.14207
-7.14243
-7.14271
-7.14289
-7.14296
-7.14292
-7.14277
-7.14251
-7.14213
-7.14164
-7.14104
-7.14035
-7.13959
-7.13877
-7.13792
-7.13709
-7.13631
-7.13563
-7.13508
-7.13471
-7.13454
-7.13457
-7.13479
-7.13518
-7.13569
-7.13628
-7.1369
-7.1375
-7.13805
-7.1385
-7.13884
-7.13906
-7.13913
-7.13908
-7.1389
-7.1386
-7.13821
-7.13774
-7.13722
-7.13668
-7.13614
-7.13563
-7.13519
-7.13482
-7.13457
-7.13424
-7.29612
-7.2965
-7.29672
-7.29705
-7.29743
-7.29788
-7.29839
-7.29894
-7.29953
-7.30014
-7.30075
-7.30135
-7.30191
-7.30242
-7.30286
-7.30322
-7.30349
-7.30365
-7.30371
-7.30365
-7.30348
-7.30318
-7.30277
-7.30224
-7.30161
-7.30088
-7.30007
-7.29922
-7.29834
-7.29748
-7.29668
-7.29598
-7.29542
-7.29504
-7.29486
-7.29488
-7.29509
-7.29548
-7.29599
-7.29658
-7.29721
-7.29782
-7.29838
-7.29886
-7.29922
-7.29946
-7.29956
-7.29952
-7.29936
-7.29908
-7.2987
-7.29824
-7.29774
-7.29721
-7.29668
-7.29618
-7.29574
-7.29537
-7.29512
-7.29474
-7.45702
-7.45742
-7.45765
-7.45796
-7.45833
-7.45876
-7.45925
-7.45978
-7.46036
-7.46095
-7.46155
-7.46213
-7.46268
-7.46318
-7.46361
-7.46396
-7.46421
-7.46436
-7.4644
-7.46431
-7.46411
-7.46378
-7.46334
-7.46277
-7.4621
-7.46134
-7.4605
-7.45961
-7.45871
-7.45783
-7.45701
-7.4563
-7.45574
-7.45535
-7.45517
-7.45518
-7.45539
-7.45577
-7.45628
-7.45688
-7.45751
-7.45814
-7.45871
-7.45921
-7.45959
-7.45985
-7.45997
-7.45996
-7.45982
-7.45956
-7.45919
-7.45876
-7.45826
-7.45775
-7.45723
-7.45675
-7.45632
-7.45595
-7.4557
-7.45528
-7.61799
-7.61842
-7.61864
-7.61894
-7.61929
-7.61969
-7.62016
-7.62067
-7.62122
-7.62178
-7.62236
-7.62292
-7.62344
-7.62392
-7.62433
-7.62466
-7.62489
-7.62502
-7.62503
-7.62492
-7.62469
-7.62433
-7.62385
-7.62325
-7.62255
-7.62175
-7.62089
-7.61998
-7.61906
-7.61816
-7.61734
-7.61663
-7.61606
-7.61567
-7.61549
-7.6155
-7.61571
-7.61608
-7.61659
-7.61719
-7.61782
-7.61846
-7.61905
-7.61956
-7.61996
-7.62025
-7.62039
-7.62041
-7.62029
-7.62005
-7.61971
-7.6193
-7.61882
-7.61833
-7.61783
-7.61737
-7.61695
-7.61659
-7.61634
-7.61588
-7.77906
-7.77952
-7.77972
-7.78001
-7.78033
-7.78071
-7.78115
-7.78162
-7.78214
-7.78267
-7.78321
-7.78373
-7.78423
-7.78467
-7.78505
-7.78535
-7.78556
-7.78566
-7.78564
-7.7855
-7.78524
-7.78485
-7.78433
-7.78371
-7.78297
-7.78215
-7.78126
-7.78033
-7.7794
-7.7785
-7.77768
-7.77697
-7.7764
-7.77602
-7.77584
-7.77585
-7.77606
-7.77643
-7.77694
-7.77753
-7.77817
-7.77881
-7.77941
-7.77994
-7.78036
-7.78067
-7.78084
-7.78088
-7.78079
-7.78058
-7.78027
-7.77988
-7.77944
-7.77897
-7.7785
-7.77806
-7.77766
-7.77731
-7.77706
-7.77656
-7.94024
-7.94072
-7.94092
-7.94119
-7.94149
-7.94183
-7.94223
-7.94267
-7.94314
-7.94363
-7.94412
-7.9446
-7.94505
-7.94546
-7.9458
-7.94606
-7.94622
-7.94629
-7.94624
-7.94607
-7.94577
-7.94535
-7.94481
-7.94415
-7.94339
-7.94255
-7.94164
-7.9407
-7.93977
-7.93887
-7.93805
-7.93735
-7.93679
-7.93642
-7.93624
-7.93626
-7.93647
-7.93684
-7.93734
-7.93793
-7.93857
-7.93921
-7.93982
-7.94036
-7.94081
-7.94113
-7.94133
-7.9414
-7.94135
-7.94117
-7.9409
-7.94054
-7.94013
-7.9397
-7.93926
-7.93884
-7.93848
-7.93814
-7.9379
-7.93737
-8.10157
-8.10206
-8.10225
-8.1025
-8.10277
-8.10308
-8.10343
-8.10383
-8.10425
-8.10468
-8.10512
-8.10555
-8.10594
-8.10629
-8.10658
-8.10679
-8.10692
-8.10694
-8.10685
-8.10664
-8.10631
-8.10586
-8.10529
-8.10461
-8.10383
-8.10297
-8.10206
-8.10111
-8.10018
-8.09929
-8.09848
-8.09779
-8.09725
-8.09689
-8.09672
-8.09674
-8.09695
-8.09731
-8.09781
-8.0984
-8.09904
-8.09968
-8.1003
-8.10085
-8.10131
-8.10166
-8.10189
-8.10199
-8.10197
-8.10184
-8.10161
-8.1013
-8.10093
-8.10054
-8.10014
-8.09976
-8.09942
-8.0991
-8.09887
-8.09831
-8.26305
-8.26354
-8.26372
-8.26395
-8.26419
-8.26446
-8.26477
-8.26511
-8.26548
-8.26585
-8.26623
-8.26659
-8.26692
-8.2672
-8.26743
-8.26759
-8.26766
-8.26764
-8.26751
-8.26726
-8.2669
-8.26641
-8.26582
-8.26511
-8.26432
-8.26345
-8.26253
-8.26159
-8.26066
-8.25978
-8.25899
-8.25831
-8.25779
-8.25744
-8.25728
-8.25731
-8.25752
-8.25788
-8.25837
-8.25896
-8.25959
-8.26024
-8.26086
-8.26142
-8.2619
-8.26227
-8.26253
-8.26267
-8.26269
-8.2626
-8.26242
-8.26216
-8.26185
-8.26151
-8.26116
-8.26082
-8.26052
-8.26022
-8.26
-8.25943
-8.42469
-8.42519
-8.42536
-8.42556
-8.42577
-8.426
-8.42625
-8.42654
-8.42684
-8.42715
-8.42745
-8.42774
-8.428
-8.42821
-8.42837
-8.42847
-8.42848
-8.42841
-8.42823
-8.42794
-8.42754
-8.42703
-8.42641
-8.42569
-8.42488
-8.42401
-8.42308
-8.42215
-8.42123
-8.42037
-8.41959
-8.41894
-8.41843
-8.4181
-8.41795
-8.41798
-8.41819
-8.41855
-8.41904
-8.41961
-8.42024
-8.42089
-8.42151
-8.42208
-8.42257
-8.42297
-8.42326
-8.42344
-8.42351
-8.42347
-8.42335
-8.42316
-8.42291
-8.42263
-8.42234
-8.42205
-8.42179
-8.42153
-8.42132
-8.42073
-8.58651
-8.58701
-8.58716
-8.58734
-8.5875
-8.58768
-8.58788
-8.58811
-8.58834
-8.58858
-8.58881
-8.58902
-8.5892
-8.58934
-8.58942
-8.58945
-8.5894
-8.58927
-8.58904
-8.58872
-8.58828
-8.58774
-8.5871
-8.58636
-8.58554
-8.58466
-8.58374
-8.58282
-8.58191
-8.58107
-8.58031
-8.57967
-8.57919
-8.57887
-8.57873