/*--------------------------------*- C++ -*----------------------------------*\
| =========                 |                                                 |
| \\      /  F ield         | OpenFOAM: The Open Source CFD Toolbox           |
|  \\    /   O peration     | Version:  2406                                  |
|   \\  /    A nd           | Website:  www.openfoam.com                      |
|    \\/     M anipulation  |                                                 |
\*---------------------------------------------------------------------------*/
FoamFile
{
    version     2.0;
    format      ascii;
    arch        "LSB;label=32;scalar=64";
    class       volScalarField;
    location    "20000";
    object      p_rgh;
}
// * * * * * * * * * * * * * * * * * * * * * * * * * * * * * * * * * * * * * //

dimensions      [0 2 -2 0 0 0 0];

internalField   nonuniform List<scalar> 
3600
(
0.0813424
0.0807333
0.0799834
0.0792624
0.0785596
0.0778663
0.0771629
0.0764299
0.0756528
0.0748237
0.0739415
0.0730111
0.0720423
0.0710479
0.070043
0.0690427
0.0680616
0.0671127
0.066207
0.0653528
0.0645561
0.0638199
0.0631449
0.0625291
0.0619679
0.0614541
0.0609786
0.0605308
0.0601005
0.0596794
0.0592636
0.0588539
0.0584553
0.058074
0.0577138
0.057374
0.0570521
0.0567506
0.0564832
0.0562794
0.0561821
0.0562407
0.0565014
0.056998
0.0577464
0.0587432
0.0599683
0.0613892
0.0629655
0.0646534
0.0664078
0.0681845
0.0699418
0.071642
0.073253
0.0747499
0.0761122
0.0773158
0.0783578
0.0790136
0.081918
0.0811112
0.0802591
0.0795016
0.0787822
0.0780762
0.0773615
0.0766195
0.0758381
0.0750108
0.0741371
0.0732221
0.0722745
0.0713064
0.0703311
0.0693626
0.068414
0.0674972
0.0666217
0.0657951
0.0650223
0.0643061
0.0636466
0.0630416
0.0624868
0.0619757
0.0615
0.0610507
0.0606188
0.0601975
0.0597836
0.059378
0.0589856
0.0586121
0.0582614
0.0579339
0.0576292
0.0573516
0.0571171
0.0569564
0.0569119
0.0570301
0.057352
0.057905
0.0586985
0.0597239
0.0609572
0.0623645
0.0639053
0.0655366
0.0672156
0.0689016
0.0705579
0.0721528
0.0736615
0.075068
0.0763647
0.0775545
0.078691
0.0795806
0.0828001
0.0819435
0.0810631
0.0802926
0.0795679
0.0788592
0.0781405
0.0773919
0.0766009
0.075762
0.0748755
0.0739473
0.0729872
0.0720076
0.0710224
0.0700458
0.0690908
0.0681691
0.0672902
0.0664611
0.0656864
0.0649682
0.0643063
0.063698
0.0631384
0.0626202
0.0621346
0.0616713
0.0612203
0.0607732
0.0603263
0.0598814
0.0594459
0.0590305
0.0586451
0.0582963
0.0579899
0.057737
0.0575601
0.0574944
0.0575829
0.0578666
0.0583751
0.0591202
0.0600947
0.0612756
0.0626286
0.0641133
0.0656866
0.0673062
0.068933
0.0705325
0.0720762
0.0735427
0.0749189
0.0762023
0.0773999
0.0785295
0.0796613
0.0806312
0.0836584
0.0828124
0.0819698
0.0812335
0.0805383
0.0798513
0.0791447
0.0783985
0.0776017
0.0767505
0.0758477
0.0749011
0.0739222
0.0729249
0.0719239
0.0709337
0.0699676
0.0690371
0.0681513
0.0673169
0.0665378
0.0658155
0.0651491
0.064535
0.0639675
0.063438
0.0629357
0.0624481
0.0619624
0.0614682
0.0609604
0.0604427
0.0599286
0.059439
0.0589959
0.0586191
0.0583253
0.0581338
0.0580719
0.0581748
0.058478
0.0590075
0.0597724
0.0607627
0.0619519
0.063303
0.0647741
0.066322
0.0679051
0.069486
0.0710322
0.072517
0.0739207
0.0752315
0.0764465
0.0775742
0.0786339
0.0796553
0.0807151
0.0817054
0.0844404
0.083638
0.0828619
0.0821837
0.0815373
0.0808871
0.0802034
0.0794669
0.0786684
0.0778066
0.0768875
0.0759215
0.0749226
0.0739063
0.0728886
0.0718844
0.0709073
0.0699684
0.0690765
0.0682375
0.0674547
0.0667288
0.0660578
0.0654371
0.0648593
0.064314
0.0637874
0.0632636
0.0627256
0.0621595
0.061559
0.0609316
0.0603007
0.059704
0.0591836
0.0587799
0.0585243
0.0584439
0.0585649
0.0589121
0.0595013
0.0603329
0.0613889
0.0626358
0.0640308
0.0655289
0.0670864
0.0686633
0.0702249
0.0717416
0.0731888
0.0745477
0.0758058
0.0769587
0.0780114
0.0789801
0.0798936
0.0807907
0.0817492
0.082713
0.085113
0.0843633
0.0836482
0.0830213
0.0824167
0.0817967
0.0811305
0.0803996
0.0795965
0.0787233
0.0777887
0.0768064
0.0757927
0.0747649
0.0737397
0.0727325
0.0717563
0.0708216
0.0699359
0.0691041
0.0683283
0.0676078
0.0669393
0.0663166
0.0657302
0.065167
0.0646097
0.0640379
0.0634295
0.0627663
0.0620416
0.0612686
0.0604857
0.059755
0.0591469
0.0587297
0.0585512
0.0586409
0.0590132
0.059668
0.0605887
0.0617415
0.0630796
0.0645504
0.0661026
0.0676917
0.0692804
0.0708386
0.0723421
0.0737709
0.0751088
0.0763435
0.0774681
0.0784828
0.0793971
0.0802324
0.081023
0.0818131
0.0826778
0.0835907
0.0856767
0.0849692
0.0842883
0.0836844
0.0830933
0.0824776
0.0818069
0.081064
0.0802439
0.0793516
0.078399
0.0774024
0.0763804
0.0753513
0.0743324
0.0733384
0.0723814
0.0714702
0.0706106
0.0698054
0.0690548
0.0683559
0.0677034
0.0670887
0.0664998
0.06592
0.0653281
0.0646981
0.0640026
0.0632194
0.0623418
0.0613921
0.0604293
0.0595471
0.0588525
0.0584458
0.0583894
0.0587063
0.0593847
0.0603855
0.0616494
0.0631055
0.0646823
0.0663164
0.0679584
0.0695724
0.0711355
0.0726314
0.0740485
0.0753772
0.0766087
0.0777357
0.0787547
0.0796681
0.0804871
0.0812346
0.0819467
0.082668
0.083468
0.0843281
0.0861477
0.0854572
0.0847727
0.084152
0.0835342
0.082885
0.0821766
0.0813944
0.0805364
0.0796107
0.0786321
0.0776195
0.0765928
0.0755712
0.0745715
0.0736075
0.0726892
0.0718231
0.0710123
0.0702568
0.0695536
0.0688971
0.0682786
0.0676866
0.0671053
0.0665141
0.0658865
0.0651912
0.064395
0.0634721
0.0624183
0.061268
0.0601066
0.0590661
0.0582965
0.0579308
0.0580407
0.0586307
0.0596491
0.061006
0.0625942
0.0643088
0.0660611
0.0677876
0.0694498
0.0710285
0.0725188
0.073921
0.0752366
0.0764655
0.0776052
0.0786519
0.0796035
0.0804621
0.0812381
0.0819528
0.0826401
0.0833404
0.0841159
0.0849405
0.0865497
0.0858419
0.0851125
0.0844323
0.0837449
0.0830214
0.0822384
0.0813855
0.0804644
0.0794865
0.0784698
0.0774349
0.076403
0.0753933
0.0744219
0.0735006
0.0726371
0.0718349
0.0710936
0.0704096
0.0697758
0.0691829
0.0686181
0.0680655
0.0675048
0.0669101
0.0662495
0.0654852
0.0645789
0.0635023
0.0622556
0.0608899
0.0595218
0.0583267
0.0575012
0.0572086
0.0575215
0.0584141
0.0597827
0.0614801
0.063352
0.0652655
0.0671253
0.0688766
0.0704996
0.0719967
0.0733829
0.0746751
0.0758874
0.0770279
0.0780989
0.0790986
0.0800242
0.0808761
0.0816616
0.0823978
0.0831132
0.0838412
0.0846356
0.085455
0.0869071
0.0861443
0.0853301
0.0845506
0.083754
0.0829183
0.0820262
0.0810724
0.0800631
0.0790136
0.0779443
0.076878
0.0758365
0.0748386
0.0738992
0.0730279
0.0722295
0.0715041
0.0708475
0.0702518
0.0697055
0.0691946
0.0687013
0.0682043
0.0676776
0.0670893
0.0664006
0.0655674
0.0645464
0.0633081
0.0618603
0.0602739
0.0587011
0.057364
0.0565058
0.0563149
0.0568559
0.0580617
0.0597695
0.0617732
0.0638761
0.0659264
0.067831
0.0695521
0.0710926
0.0724788
0.0737454
0.0749253
0.0760432
0.0771142
0.0781436
0.0791302
0.0800695
0.0809587
0.0818003
0.0826056
0.0833958
0.0841954
0.0850505
0.0859009
0.0872423
0.0863873
0.0854525
0.0845393
0.0835999
0.0826203
0.08159
0.0805095
0.0793903
0.0782514
0.077116
0.0760085
0.074951
0.0739616
0.0730536
0.0722341
0.071505
0.0708628
0.0702993
0.0698023
0.0693555
0.0689396
0.0685314
0.0681032
0.0676225
0.0670501
0.0663399
0.065441
0.0643052
0.0629039
0.0612544
0.0594511
0.0576846
0.0562245
0.0553574
0.0552902
0.0560704
0.0575829
0.0596023
0.061867
0.0641453
0.0662754
0.0681741
0.0698254
0.071257
0.0725185
0.0736637
0.0747388
0.0757781
0.0768015
0.0778166
0.0788213
0.0798089
0.0807722
0.0817082
0.0826213
0.0835246
0.0844331
0.0853861
0.0863046
0.0875736
0.0865925
0.0855064
0.0844305
0.0833213
0.0821727
0.0809811
0.0797539
0.0785076
0.0772654
0.076053
0.0748959
0.0738162
0.072831
0.0719513
0.0711819
0.0705216
0.0699634
0.0694952
0.0691006
0.0687586
0.0684447
0.0681296
0.0677791
0.0673533
0.066805
0.06608
0.0651205
0.0638742
0.0623141
0.0604698
0.0584615
0.056519
0.0549581
0.0541039
0.0541737
0.0551911
0.0569893
0.059282
0.0617581
0.0641595
0.0663221
0.0681779
0.0697347
0.0710452
0.0721804
0.073211
0.074195
0.0751739
0.0761717
0.077197
0.0782465
0.0793105
0.0803772
0.0814375
0.0824886
0.0835355
0.0845836
0.0856664
0.086688
0.087916
0.0867785
0.0855148
0.0842526
0.0829519
0.0816146
0.0802445
0.0788557
0.0774704
0.0761153
0.0748187
0.0736065
0.0725003
0.0715154
0.0706607
0.0699381
0.0693432
0.0688658
0.0684905
0.0681967
0.0679591
0.0677483
0.0675289
0.0672602
0.0668943
0.0663758
0.0656422
0.0646284
0.0632785
0.0615688
0.0595427
0.0573473
0.0552513
0.0536131
0.0527892
0.0530007
0.054242
0.0562946
0.0588166
0.0614551
0.0639338
0.0660924
0.067881
0.069331
0.0705184
0.0715336
0.0724614
0.0733699
0.0743064
0.0752979
0.0763536
0.0774691
0.0786314
0.079824
0.0810318
0.0822445
0.0834591
0.0846719
0.085912
0.0870678
0.0882809
0.0869608
0.0854972
0.0840285
0.0825186
0.0809772
0.0794158
0.0778552
0.0763232
0.0748502
0.0734661
0.0721968
0.0710625
0.0700761
0.0692438
0.0685645
0.0680307
0.0676292
0.0673412
0.0671429
0.0670051
0.0668938
0.066768
0.0665805
0.0662758
0.0657901
0.0650524
0.0639908
0.0625465
0.0607001
0.0585096
0.0561494
0.053925
0.052232
0.0514512
0.0518007
0.0532439
0.0555135
0.0582189
0.0609744
0.0634927
0.0656209
0.067328
0.0686679
0.0697371
0.0706424
0.071481
0.0723287
0.0732381
0.0742387
0.0753404
0.0765377
0.0778148
0.0791507
0.080524
0.0819173
0.0833194
0.0847185
0.0861394
0.0874568
0.0886775
0.0871518
0.0854684
0.0837758
0.0820417
0.0802839
0.0785216
0.0767829
0.0751006
0.0735085
0.0720374
0.0707123
0.069551
0.0685636
0.0677528
0.0671142
0.0666373
0.0663059
0.0660986
0.0659884
0.065943
0.0659242
0.0658863
0.0657758
0.0655302
0.0650775
0.0643387
0.0632356
0.0617072
0.0597392
0.0574049
0.0549048
0.0525776
0.0508504
0.0501204
0.0505979
0.052215
0.054661
0.0575054
0.0603376
0.0628651
0.0649449
0.0665641
0.0677962
0.0687556
0.0695626
0.0703245
0.071124
0.0720181
0.0730389
0.0741975
0.0754879
0.0768919
0.0783843
0.0799378
0.0815275
0.0831346
0.0847388
0.0863615
0.0878646
0.0891132
0.0873612
0.0854402
0.0835079
0.0815365
0.0795522
0.0775822
0.0756618
0.0738289
0.0721198
0.0705652
0.0691883
0.0680038
0.0670179
0.0662294
0.0656303
0.0652068
0.0649402
0.0648063
0.064776
0.064814
0.0648789
0.0649206
0.0648805
0.0646892
0.0642674
0.063529
0.06239
0.0607882
0.0587151
0.0562592
0.0536451
0.0512403
0.0494966
0.0488208
0.0494112
0.0511709
0.0537525
0.0566942
0.0595685
0.0620816
0.0641014
0.0656312
0.0667612
0.0676204
0.0683402
0.0690362
0.0697969
0.0706838
0.0717319
0.0729541
0.0743447
0.0758841
0.0775432
0.0792892
0.0810896
0.0829175
0.0847446
0.0865884
0.0882989
0.0895942
0.0875969
0.0854218
0.0832353
0.0810148
0.0787954
0.076613
0.0745099
0.0725286
0.070707
0.069075
0.0676527
0.0664506
0.0654703
0.0647062
0.0641464
0.0637739
0.0635671
0.0634999
0.063541
0.063653
0.0637917
0.0639036
0.0639253
0.0637818
0.0633873
0.0626493
0.0614795
0.0598151
0.0576539
0.055099
0.0523965
0.0499378
0.0481924
0.0475701
0.0482556
0.0501255
0.0528032
0.0558043
0.0586912
0.061172
0.0631248
0.0645669
0.065602
0.0663706
0.0670129
0.0676514
0.0683799
0.0692642
0.070343
0.0716319
0.0731266
0.0748069
0.0766408
0.0785897
0.0806138
0.0826777
0.0847447
0.086828
0.0887661
0.090126
0.0878656
0.0854208
0.0829661
0.0804857
0.0780243
0.0756265
0.0733416
0.0712161
0.0692887
0.067587
0.066127
0.0649142
0.0639447
0.063208
0.0626881
0.0623647
0.0622137
0.062207
0.0623114
0.0624881
0.0626906
0.0628626
0.0629368
0.0628335
0.0624616
0.0617233
0.0605269
0.0588103
0.056578
0.0539464
0.0511802
0.0486891
0.0469538
0.0463818
0.0471426
0.0490907
0.0518278
0.0548549
0.0577296
0.0601643
0.0620464
0.0634043
0.0643522
0.0650391
0.065612
0.0661991
0.0668992
0.0677825
0.0688924
0.0702482
0.0718481
0.0736724
0.0756869
0.0778478
0.0801077
0.0824226
0.0847462
0.0870871
0.0892722
0.0907135
0.088173
0.0854433
0.0827074
0.0799572
0.0772479
0.0746332
0.0721691
0.0699053
0.06788
0.0661175
0.0646285
0.0634123
0.0624592
0.0617534
0.0612744
0.0609988
0.0609
0.060948
0.0611084
0.0613409
0.0615974
0.0618196
0.0619369
0.061866
0.0615113
0.0607714
0.0595523
0.0577936
0.0555066
0.0528196
0.0500127
0.0475084
0.0457925
0.0452655
0.0460816
0.0480774
0.0508405
0.0538642
0.0567062
0.0590844
0.0608943
0.0621725
0.0630404
0.0636535
0.0641635
0.0647035
0.0653768
0.0662588
0.0673979
0.0688183
0.070522
0.0724911
0.0746901
0.0770708
0.079578
0.0821582
0.0847552
0.0873717
0.0898226
0.0913614
0.0885241
0.0854948
0.0824652
0.0794361
0.0764742
0.0736422
0.0710028
0.0686077
0.0664934
0.0646795
0.0631703
0.0619583
0.0610273
0.0603558
0.059919
0.0596901
0.0596401
0.0597377
0.0599472
0.0602274
0.0605289
0.0607916
0.060943
0.0608966
0.060554
0.0598109
0.0585728
0.0567817
0.0544554
0.0517332
0.0489066
0.0464061
0.0447166
0.0442282
0.04508
0.0470956
0.0498547
0.0528498
0.0556422
0.0579561
0.0596934
0.0608966
0.0616916
0.0622376
0.0626901
0.0631857
0.0638324
0.0647109
0.0658754
0.0673562
0.0691604
0.0712731
0.0736589
0.0762656
0.0790305
0.0818903
0.0847773
0.0876873
0.0904231
0.0920738
0.0889234
0.0855804
0.0822449
0.0789287
0.0757102
0.0726618
0.0698519
0.0673332
0.0651392
0.0632835
0.061763
0.0605625
0.0596588
0.0590248
0.0586311
0.0584477
0.0584436
0.0585861
0.0588384
0.0591588
0.0594968
0.0597915
0.0599684
0.0599394
0.0596039
0.0588564
0.0576028
0.0557883
0.0534376
0.0506988
0.0478716
0.0453895
0.0437316
0.0432748
0.0441442
0.0461542
0.0488834
0.0518282
0.054557
0.0568006
0.058466
0.0595989
0.0603274
0.0608123
0.0612115
0.0616645
0.0622839
0.0631556
0.0643405
0.065876
0.0677756
0.0700289
0.0726018
0.0754394
0.0784714
0.0816242
0.0848179
0.0880394
0.0910793
0.0928547
0.0893752
0.0857044
0.0820515
0.0784404
0.0749622
0.071699
0.0687241
0.06609
0.0638258
0.0619378
0.0604144
0.0592321
0.0583605
0.0577665
0.0574166
0.0572776
0.0573165
0.0574994
0.0577889
0.0581425
0.0585096
0.0588282
0.0590232
0.059005
0.0586723
0.0579194
0.0566539
0.054825
0.0524637
0.0497255
0.0469149
0.0444637
0.0428413
0.0424092
0.0432795
0.0452619
0.0479385
0.0508147
0.0534684
0.0556372
0.0572318
0.058299
0.0589667
0.0593959
0.0597455
0.0601572
0.0607478
0.0616089
0.0628084
0.0643917
0.06638
0.0687692
0.0715281
0.0745997
0.0779072
0.0813659
0.0848825
0.0884338
0.0917971
0.0937075
0.0898832
0.0858708
0.0818894
0.0779762
0.0742359
0.07076
0.0676259
0.0648849
0.0625599
0.0606486
0.0591302
0.0579721
0.0571367
0.0565849
0.0562789
0.0561828
0.0562618
0.0564809
0.0568023
0.0571831
0.0575724
0.057908
0.0581143
0.0581014
0.0577679
0.0570093
0.0557357
0.0539009
0.0515421
0.0488202
0.0460414
0.0436321
0.0420482
0.0416344
0.042491
0.0444264
0.0470312
0.0498236
0.0523927
0.0544832
0.0560083
0.057014
0.0576263
0.0580047
0.058308
0.0586796
0.0592398
0.0600861
0.061294
0.0629174
0.0649868
0.0675057
0.0704474
0.0737548
0.0773447
0.0811213
0.0849769
0.0888759
0.0925824
0.0946358
0.0904509
0.0860834
0.0817623
0.0775403
0.073536
0.06985
0.0665631
0.0637235
0.0613467
0.0594207
0.0579143
0.0567859
0.0559899
0.0554817
0.0552195
0.0551646
0.0552807
0.0555321
0.0558804
0.0562828
0.0566884
0.0570348
0.0572466
0.0572344
0.0568975
0.0561334
0.0548558
0.0530235
0.0506794
0.0479882
0.045255
0.0428971
0.041354
0.0409527
0.0417829
0.0436553
0.0461722
0.0488678
0.0513445
0.0533541
0.0548111
0.0557592
0.0563211
0.0566533
0.0569135
0.0572459
0.0577744
0.0586018
0.0598115
0.0614669
0.0636088
0.0662499
0.06937
0.0729132
0.0767911
0.0808968
0.0851068
0.0893716
0.0934411
0.0956423
0.0910812
0.0863452
0.0816739
0.0771366
0.0728666
0.0689734
0.06554
0.0626101
0.0601903
0.0582575
0.0567696
0.0556752
0.0549213
0.0544575
0.0542383
0.0542226
0.0543728
0.0546526
0.0550233
0.0554424
0.0558588
0.0562108
0.0564234
0.056408
0.0560659
0.0552974
0.0540202
0.0521987
0.0498808
0.0472336
0.0445583
0.04226
0.0407599
0.0403662
0.0411596
0.0429554
0.0453712
0.0479595
0.0503373
0.0522637
0.0536539
0.0545481
0.0550642
0.0553545
0.0555748
0.0558693
0.0563648
0.0571695
0.0583748
0.0600539
0.062259
0.0650137
0.0683063
0.0720839
0.0762541
0.0806989
0.0852784
0.0899267
0.0943791
0.0967299
0.091777
0.086659
0.0816269
0.0767683
0.0722312
0.068134
0.0645605
0.0615484
0.0590938
0.0571615
0.0556977
0.0546411
0.0539311
0.0535119
0.0533345
0.0533557
0.053537
0.0538413
0.0542303
0.0546613
0.055084
0.0554371
0.0556465
0.0556253
0.055277
0.0545056
0.0532337
0.0514312
0.0491505
0.0465594
0.043953
0.0417219
0.0402667
0.0398769
0.0406249
0.0423333
0.0446371
0.0471095
0.049383
0.0512244
0.0525489
0.0533924
0.0538669
0.0541195
0.0543032
0.0545613
0.0550232
0.055802
0.0569967
0.0586914
0.06095
0.063809
0.0672668
0.071276
0.0757413
0.0805342
0.0854974
0.0905466
0.0954022
0.0979008
0.0925406
0.0870274
0.081624
0.0764381
0.0716329
0.067335
0.0636278
0.0605413
0.0580598
0.0561347
0.0546998
0.053684
0.0530189
0.0526439
0.0525067
0.0525624
0.0527714
0.0530967
0.0534999
0.0539388
0.0543636
0.0547139
0.0549171
0.0548881
0.0545335
0.0537615
0.0525002
0.0507248
0.0484917
0.045968
0.0434406
0.0412833
0.0398751
0.0394866
0.0401828
0.0417951
0.0439784
0.0463277
0.0484925
0.0502472
0.051507
0.0523026
0.0527393
0.0529581
0.0531084
0.0533321
0.0537602
0.0545104
0.0556893
0.0573914
0.0596939
0.0626472
0.0662622
0.0704986
0.0752606
0.0804094
0.0857699
0.0912372
0.0965159
0.0991574
0.0933741
0.0874524
0.0816675
0.0761484
0.0710743
0.0665793
0.0627448
0.0595916
0.0570905
0.0551784
0.0537767
0.0528037
0.0521842
0.0518524
0.0517533
0.0518406
0.0520742
0.0524168
0.0528304
0.0532734
0.0536968
0.0540413
0.0542358
0.0541979
0.0538377
0.053068
0.0518227
0.0500825
0.047907
0.0454612
0.043022
0.0409449
0.039586
0.0391971
0.0398371
0.0413467
0.0434027
0.0456232
0.0476754
0.0493419
0.0505376
0.0512876
0.0516899
0.0518788
0.0519992
0.0521906
0.0525853
0.0533048
0.0544631
0.0561652
0.058502
0.0615394
0.0653024
0.0697607
0.0748195
0.080331
0.0861015
0.0920034
0.0977254
0.100501
0.0942793
0.0879359
0.0817591
0.0759015
0.0705579
0.0658695
0.0619142
0.0587018
0.0561878
0.0542943
0.052929
0.0520004
0.0514261
0.051136
0.0510727
0.0511886
0.0514433
0.0517996
0.0522202
0.0526639
0.0530828
0.0534188
0.053603
0.0535558
0.0531912
0.0524274
0.051204
0.049507
0.0473986
0.0450406
0.0426982
0.040707
0.0394
0.0390102
0.0395911
0.0409939
0.0429173
0.0450043
0.0469406
0.0485172
0.049649
0.0503553
0.0507262
0.0508887
0.0509825
0.0511442
0.0515066
0.0521942
0.0533278
0.055023
0.0573849
0.0604958
0.0643973
0.069071
0.0744256
0.0803052
0.0864977
0.0928503
0.0990353
0.101934
0.0952577
0.0884793
0.0819008
0.0756993
0.0700862
0.0652084
0.0611389
0.0578744
0.0553541
0.0534836
0.0521574
0.0512739
0.050744
0.0504937
0.0504633
0.0506045
0.0508768
0.0512435
0.0516675
0.0521089
0.0525205
0.0528461
0.053019
0.0529626
0.0525957
0.0518417
0.0506463
0.0490007
0.0469687
0.0447076
0.0424698
0.0405702
0.039318
0.0389278
0.0394481
0.0407413
0.0425288
0.0444788
0.0462958
0.0477809
0.0488486
0.0495124
0.0498543
0.0499937
0.0500643
0.0501992
0.0505307
0.0511859
0.0522917
0.053974
0.0563521
0.0595262
0.0635559
0.0684377
0.0740859
0.080338
0.0869634
0.0937823
0.10045
0.103458
0.0963104
0.0890841
0.082094
0.075544
0.0696616
0.0645988
0.0604217
0.0571122
0.0545914
0.052748
0.0514628
0.0506244
0.0501374
0.0499242
0.0499236
0.0500867
0.0503731
0.0507465
0.0511709
0.0516071
0.0520092
0.0523229
0.0524839
0.0524194
0.0520526
0.051313
0.050152
0.0485657
0.0466189
0.0444636
0.0423378
0.0405351
0.0393408
0.0389515
0.0394111
0.0405935
0.0422431
0.0440534
0.0457487
0.04714
0.0481426
0.0487647
0.0490798
0.0491988
0.0492495
0.0493606
0.0496632
0.0502861
0.0513618
0.0530259
0.0554122
0.0586392
0.0627867
0.0678684
0.073807
0.0804349
0.0875033
0.094803
0.101972
0.105072
0.0974384
0.0897514
0.0823404
0.0754376
0.0692867
0.0640438
0.0597659
0.0564182
0.0539023
0.0520894
0.0508463
0.0500522
0.0496059
0.0494269
0.0494524
0.0496337
0.0499305
0.0503074
0.0507291
0.0511574
0.0515482
0.051849
0.0519982
0.051927
0.0515636
0.0508431
0.0497233
0.0482043
0.0463514
0.0443098
0.0423029
0.0406023
0.0394692
0.0390829
0.0394828
0.0405547
0.0420654
0.0437341
0.0453053
0.0466007
0.047537
0.0481171
0.0484066
0.048508
0.048542
0.0486323
0.0489084
0.0494999
0.050544
0.0521855
0.0545725
0.0578426
0.0620975
0.0673703
0.0735949
0.0806006
0.088121
0.0959156
0.103605
0.106778
0.0986422
0.0904821
0.0826414
0.0753824
0.0689646
0.0635467
0.059175
0.0557956
0.0532895
0.0515095
0.0503088
0.0495576
0.0491492
0.0490007
0.0490486
0.049244
0.0495476
0.0499246
0.0503408
0.0507591
0.0511371
0.0514244
0.0515625
0.0514866
0.0511301
0.0504342
0.0493623
0.0479186
0.0461678
0.0442478
0.0423661
0.0407723
0.039704
0.0393232
0.0396656
0.0406281
0.0420001
0.0435261
0.0449712
0.0461684
0.0470366
0.0475741
0.0478386
0.0479241
0.047944
0.0480169
0.0482693
0.048831
0.049843
0.0514583
0.0538394
0.0571433
0.061495
0.0669495
0.073455
0.0808395
0.0888199
0.0971224
0.105351
0.108574
0.0999218
0.091277
0.0829987
0.0753807
0.0686983
0.0631115
0.0586529
0.0552478
0.0527555
0.0510103
0.0498516
0.0491409
0.0487671
0.048645
0.0487109
0.0489164
0.0492229
0.0495968
0.0500048
0.0504113
0.0507754
0.0510491
0.0511774
0.0510994
0.0507541
0.0500885
0.0490715
0.0477108
0.04607
0.0442787
0.0425282
0.0410455
0.0400455
0.0396733
0.039961
0.0408164
0.042051
0.043434
0.0447513
0.0458479
0.0466456
0.0471392
0.0473786
0.0474496
0.0474579
0.0475163
0.0477478
0.0482815
0.0492615
0.0508485
0.0532181
0.0565471
0.060985
0.0666116
0.0733918
0.081155
0.0896022
0.0984247
0.107209
0.110461
0.101277
0.0921367
0.0834137
0.0754351
0.0684917
0.062742
0.0582031
0.054778
0.0523031
0.0505936
0.0494757
0.0488026
0.0484592
0.0483589
0.0484382
0.0486495
0.0489552
0.0493227
0.0497201
0.0501132
0.0504629
0.0507236
0.0508438
0.050767
0.0504375
0.0498082
0.0488533
0.0475834
0.0460599
0.0444037
0.0427896
0.041422
0.0404937
0.0401336
0.04037
0.0411215
0.0422205
0.0434608
0.044649
0.0456427
0.0463676
0.0468152
0.047029
0.0470861
0.0470847
0.0471315
0.047345
0.0478531
0.0488017
0.0503585
0.052712
0.0560585
0.0605728
0.066361
0.073409
0.0815496
0.0904693
0.0998227
0.109179
0.112437
0.102706
0.0930612
0.0838879
0.0755489
0.0683484
0.0624417
0.0578291
0.0543893
0.0519347
0.0502612
0.049182
0.0485428
0.048225
0.0481416
0.0482293
0.0484418
0.0487428
0.049101
0.0494857
0.0498641
0.0501993
0.0504482
0.0505626
0.0504908
0.0501824
0.0495959
0.0487103
0.0475385
0.0461392
0.0446238
0.0431505
0.0419017
0.0410481
0.0407035
0.0408925
0.0415439
0.0425102
0.0436089
0.0446672
0.0455557
0.0462049
0.0466044
0.0467911
0.0468345
0.0468249
0.0468625
0.0470609
0.047546
0.0484645
0.04999
0.0523233
0.0556804
0.0602618
0.066202
0.0735095
0.082025
0.0914216
0.101316
0.111259
0.114497
0.104209
0.0940505
0.0844234
0.0757249
0.0682713
0.0622144
0.0575345
0.0540847
0.0516524
0.0500143
0.0489708
0.0483609
0.0480636
0.0479915
0.0480825
0.0482918
0.0485843
0.0489303
0.0493004
0.0496634
0.0499844
0.0502231
0.0503349
0.0502725
0.0499908
0.0494537
0.0486447
0.047578
0.0463091
0.0449396
0.0436106
0.0424834
0.0417071
0.0413814
0.0415273
0.0420829
0.04292
0.043879
0.0448071
0.0455885
0.0461592
0.0465077
0.0466655
0.0466947
0.0466778
0.0467083
0.0468945
0.0473592
0.0482493
0.0497431
0.052053
0.0554142
0.060054
0.0661368
0.0736958
0.0825821
0.0924583
0.102901
0.113447
0.116638
0.105781
0.0951043
0.0850214
0.0759651
0.0682639
0.0620634
0.0573223
0.0538664
0.0514575
0.0498531
0.0488416
0.048256
0.0479734
0.0479069
0.047996
0.0481974
0.0484779
0.048809
0.0491631
0.0495104
0.0498181
0.0500489
0.0501617
0.0501137
0.0498648
0.0493841
0.0486586
0.0477036
0.0465706
0.0453507
0.0441687
0.0431649
0.0424682
0.0421646
0.0422717
0.0427364
0.0434486
0.0442703
0.0450685
0.0457412
0.0462307
0.0465253
0.0466519
0.0466658
0.0466419
0.0466671
0.0468436
0.0472906
0.0481542
0.0496166
0.0519006
0.0552603
0.0599501
0.0661658
0.0739687
0.083221
0.0935777
0.104576
0.115736
0.118855
0.10742
0.0962217
0.0856824
0.0762719
0.068329
0.0619915
0.0571947
0.0537356
0.0513503
0.0497771
0.0487931
0.0482262
0.0479523
0.0478856
0.0479674
0.0481566
0.0484215
0.0487355
0.0490725
0.0494042
0.0497003
0.0499261
0.050044
0.0500159
0.0498062
0.0493887
0.0487537
0.0479164
0.0469237
0.0458563
0.0448226
0.0439431
0.0433274
0.0430486
0.0431213
0.0435004
0.0440924
0.0447801
0.0454496
0.0460126
0.0464185
0.0466561
0.0467489
0.0467459
0.0467148
0.0467356
0.0469045
0.0473364
0.0481757
0.0496076
0.051864
0.0552175
0.0599495
0.0662889
0.074327
0.0839406
0.0947773
0.106336
0.11812
0.121138
0.109121
0.0974004
0.0864068
0.0766471
0.068469
0.0620008
0.0571527
0.0536923
0.0513295
0.0497842
0.0488227
0.0482686
0.0479973
0.0479246
0.0479941
0.0481668
0.0484132
0.0487082
0.0490273
0.0493443
0.0496307
0.0498549
0.0499828
0.0499804
0.0498166
0.0494691
0.0489308
0.0482163
0.0473674
0.0464541
0.0455688
0.0448133
0.0442793
0.0440275
0.04407
0.0443687
0.044846
0.0454039
0.0459467
0.0463997
0.0467198
0.0468976
0.0469537
0.0469316
0.0468924
0.0469094
0.0470723
0.0474915
0.0483088
0.0497112
0.0519392
0.0552827
0.0600504
0.0665046
0.0747691
0.0847376
0.0960531
0.108175
0.120592
0.123479
0.110879
0.0986377
0.0871945
0.0770919
0.0686853
0.0620919
0.0571959
0.0537347
0.0513924
0.0498708
0.0489264
0.0483791
0.0481045
0.0480204
0.048073
0.0482255
0.0484507
0.0487252
0.0490265
0.0493298
0.0496092
0.0498358
0.0499788
0.0500081
0.0498968
0.0496259
0.04919
0.0486025
0.0478994
0.0471402
0.046402
0.045769
0.0453162
0.0450931
0.0451093
0.0453334
0.045702
0.0461349
0.0465538
0.0468973
0.0471302
0.0472456
0.0472621
0.0472186
0.0471699
0.0471829
0.0473409
0.0477492
0.0485466
0.0499211
0.0521206
0.0554513
0.0602489
0.0668099
0.075292
0.0856083
0.0973991
0.110084
0.12314
0.125866
0.112685
0.09993
0.0880445
0.0776067
0.0689783
0.0622641
0.057322
0.0538591
0.0515341
0.0500315
0.0490987
0.0485525
0.0482691
0.0481687
0.0482002
0.0483296
0.0485316
0.0487848
0.0490685
0.04936
0.0496355
0.0498688
0.0500324
0.0500996
0.0500472
0.0498588
0.0495301
0.0490723
0.0485158
0.0479091
0.0473153
0.0468018
0.0464287
0.0462352
0.0462288
0.046384
0.0466503
0.046964
0.0472628
0.0474984
0.0476435
0.0476943
0.0476684
0.0476007
0.0475406
0.0475487
0.0477022
0.048101
0.0488805
0.0502288
0.0524003
0.0557168
0.0605397
0.0672005
0.0758915
0.0865478
0.0988086
0.112055
0.125752
0.128286
0.114531
0.101272
0.0889551
0.078191
0.069347
0.0625153
0.0575269
0.0540598
0.0517477
0.0502589
0.0493322
0.0487819
0.0484851
0.0483645
0.0483718
0.0484757
0.0486532
0.048885
0.0491523
0.0494342
0.0497093
0.0499538
0.0501435
0.0502547
0.0502669
0.0501662
0.0499481
0.0496216
0.0492105
0.0487533
0.0482993
0.0479012
0.0476052
0.0474415
0.0474158
0.0475078
0.0476787
0.0478796
0.0480633
0.0481936
0.0482512
0.0482359
0.0481651
0.0480705
0.0479965
0.0479983
0.0481468
0.0485368
0.0493001
0.0506242
0.0527691
0.0560708
0.0609162
0.0676706
0.0765626
0.08755
0.100274
0.114077
0.128414
0.130722
0.116408
0.10266
0.0899236
0.0788431
0.0697893
0.0628414
0.0578046
0.0543287
0.0520241
0.0505435
0.0496178
0.049059
0.0487454
0.0486018
0.048583
0.0486603
0.048813
0.049024
0.0492765
0.0495515
0.0498299
0.0500905
0.0503115
0.0504721
0.0505542
0.0505449
0.0504396
0.050244
0.0499755
0.0496628
0.0493428
0.0490544
0.0488318
0.0486975
0.0486553
0.0486899
0.0487726
0.0488681
0.0489426
0.0489713
0.0489428
0.0488607
0.0487427
0.0486184
0.0485278
0.0485211
0.0486636
0.049045
0.0497932
0.0510952
0.0532156
0.0565036
0.0613699
0.0682135
0.0772988
0.0886082
0.101785
0.116137
0.13111
0.133158
0.118304
0.104085
0.0909468
0.079561
0.0703022
0.0632372
0.0581473
0.054656
0.052352
0.0508736
0.0499444
0.0493741
0.0490415
0.0488738
0.0488285
0.0488792
0.049008
0.0491995
0.0494395
0.0497107
0.0499965
0.0502776
0.0505348
0.0507496
0.0509054
0.0509901
0.0509979
0.050931
0.0508004
0.0506256
0.0504319
0.0502464
0.0500927
0.0499864
0.0499303
0.0499131
0.0499155
0.0499135
0.0498857
0.0498176
0.0497053
0.0495566
0.0493899
0.0492332
0.049123
0.049105
0.0492397
0.049612
0.0503462
0.0516284
0.0537271
0.0570038
0.0618916
0.0688215
0.0780934
0.0897146
0.103333
0.118222
0.133822
0.135574
0.120206
0.105541
0.0920206
0.0803414
0.0708815
0.0636963
0.0585457
0.0550299
0.0527183
0.0512359
0.0502993
0.0497154
0.0493636
0.0491726
0.0491019
0.0491278
0.0492346
0.0494093
0.0496395
0.0499104
0.0502073
0.0505131
0.0508107
0.0510832
0.0513152
0.0514947
0.0516141
0.0516717
0.0516724
0.051627
0.0515507
0.0514602
0.0513699
0.05129
0.0512221
0.0511589
0.0510886
0.0509977
0.0508754
0.0507164
0.0505239
0.0503096
0.0500932
0.0499015
0.0497685
0.0497361
0.0498605
0.0502227
0.0509437
0.0522086
0.0542898
0.0575593
0.0624711
0.0694864
0.0789388
0.0908611
0.104907
0.120317
0.136528
0.137952
0.122104
0.107021
0.0931407
0.0811814
0.0715232
0.064212
0.05899
0.055438
0.0531086
0.0516153
0.0506677
0.0500699
0.0497003
0.0494887
0.049396
0.0494006
0.0494888
0.04965
0.049874
0.0501482
0.0504598
0.0507939
0.051135
0.0514674
0.0517765
0.0520495
0.0522768
0.0524528
0.0525764
0.0526505
0.0526814
0.0526769
0.0526441
0.0525882
0.0525104
0.0524066
0.0522718
0.0521011
0.0518926
0.0516496
0.0513812
0.0511032
0.0508366
0.0506078
0.0504487
0.0503984
0.0505098
0.0508605
0.0515692
0.0528203
0.0548891
0.0581577
0.0630983
0.0701999
0.079828
0.0920395
0.106495
0.122407
0.139209
0.140272
0.123983
0.108516
0.0943027
0.0820781
0.0722238
0.0647786
0.0594713
0.0558679
0.0535081
0.0519957
0.0510338
0.0504226
0.0500387
0.0498113
0.0497021
0.0496907
0.0497655
0.0499178
0.0501396
0.0504208
0.0507504
0.0511153
0.0515016
0.0518945
0.0522794
0.0526427
0.0529722
0.0532585
0.0534948
0.0536771
0.0538041
0.0538763
0.0538943
0.0538599
0.0537739
0.0536349
0.0534435
0.0532021
0.0529164
0.0525967
0.0522576
0.0519183
0.0516016
0.0513337
0.0511454
0.0510739
0.0511695
0.0515078
0.0522057
0.0534472
0.0555109
0.0587869
0.0637638
0.0709548
0.080754
0.093242
0.108086
0.124474
0.14184
0.142514
0.12583
0.110019
0.0955029
0.0830298
0.0729817
0.0653923
0.0599825
0.0563091
0.0539032
0.0523615
0.0513811
0.0507575
0.0503639
0.0501275
0.0500095
0.0499898
0.0500579
0.0502072
0.0504315
0.0507235
0.0510737
0.0514711
0.0519029
0.0523549
0.0528124
0.0532604
0.0536844
0.054071
0.0544083
0.0546866
0.0548979
0.0550365
0.0550987
0.0550829
0.0549899
0.0548208
0.0545806
0.0542775
0.0539236
0.0535348
0.0531305
0.0527329
0.0523667
0.0520584
0.0518383
0.0517426
0.0518205
0.0521463
0.052836
0.0540743
0.0561421
0.0594367
0.0644598
0.0717451
0.0817116
0.094461
0.109668
0.126504
0.144399
0.144661
0.127634
0.111521
0.0967382
0.0840366
0.0737983
0.0660538
0.0605213
0.0567551
0.0542835
0.0526988