/*--------------------------------*- C++ -*----------------------------------*\
| =========                 |                                                 |
| \\      /  F ield         | OpenFOAM: The Open Source CFD Toolbox           |
|  \\    /   O peration     | Version:  2406                                  |
|   \\  /    A nd           | Website:  www.openfoam.com                      |
|    \\/     M anipulation  |                                                 |
\*---------------------------------------------------------------------------*/
FoamFile
{
    version     2.0;
    format      ascii;
    arch        "LSB;label=32;scalar=64";
    class       surfaceScalarField;
    location    "20000";
    object      phi;
}
// * * * * * * * * * * * * * * * * * * * * * * * * * * * * * * * * * * * * * //

dimensions      [0 3 -1 0 0 0 0];

oriented        oriented;

internalField   nonuniform List<scalar> 
7080
(
1.33201e-06
-1.33201e-06
2.9072e-06
-1.57519e-06
4.2833e-06
-1.3761e-06
5.50935e-06
-1.22604e-06
6.68816e-06
-1.17882e-06
7.88396e-06
-1.1958e-06
9.11647e-06
-1.23251e-06
1.0373e-05
-1.25657e-06
1.16221e-05
-1.24904e-06
1.28235e-05
-1.20141e-06
1.3936e-05
-1.11256e-06
1.49224e-05
-9.86313e-07
1.57519e-05
-8.29569e-07
1.64027e-05
-6.50816e-07
1.68617e-05
-4.58973e-07
1.71243e-05
-2.62552e-07
1.71934e-05
-6.9123e-08
1.70785e-05
1.14906e-07
1.6794e-05
2.84531e-07
1.63579e-05
4.36089e-07
1.57908e-05
5.67066e-07
1.51149e-05
6.75894e-07
1.4353e-05
7.6193e-07
1.35274e-05
8.25575e-07
1.26587e-05
8.68652e-07
1.17637e-05
8.95057e-07
1.08522e-05
9.11459e-07
9.92463e-06
9.27603e-07
8.96906e-06
9.55567e-07
7.96161e-06
1.00746e-06
6.86995e-06
1.09166e-06
5.66095e-06
1.20899e-06
4.30992e-06
1.35103e-06
2.80731e-06
1.50261e-06
1.15882e-06
1.64849e-06
-6.21085e-07
1.7799e-06
-2.51659e-06
1.8955e-06
-4.51169e-06
1.9951e-06
-6.58465e-06
2.07296e-06
-8.69889e-06
2.11424e-06
-1.07973e-05
2.09842e-06
-1.28041e-05
2.00679e-06
-1.46336e-05
1.82954e-06
-1.62028e-05
1.56916e-06
-1.74423e-05
1.23948e-06
-1.83041e-05
8.61808e-07
-1.8764e-05
4.59867e-07
-1.88198e-05
5.58793e-08
-1.84883e-05
-3.31503e-07
-1.78004e-05
-6.8796e-07
-1.67964e-05
-1.00399e-06
-1.55223e-05
-1.27413e-06
-1.40253e-05
-1.49692e-06
-1.23491e-05
-1.67625e-06
-1.05253e-05
-1.8238e-06
-8.56406e-06
-1.96124e-06
-6.44809e-06
-2.11597e-06
-4.15203e-06
-2.29606e-06
-1.76615e-06
-2.38588e-06
-1.76615e-06
1.60996e-06
-2.94197e-06
4.39972e-06
-4.36495e-06
7.53302e-06
-4.5094e-06
1.07466e-05
-4.43967e-06
1.39958e-05
-4.42793e-06
1.72859e-05
-4.48596e-06
2.06087e-05
-4.55528e-06
2.39275e-05
-4.57538e-06
2.71821e-05
-4.50359e-06
3.02983e-05
-4.31762e-06
3.31982e-05
-4.01253e-06
3.58084e-05
-3.59646e-06
3.80652e-05
-3.08641e-06
3.9919e-05
-2.50456e-06
4.13353e-05
-1.87526e-06
4.22954e-05
-1.22268e-06
4.27955e-05
-5.69269e-07
4.28452e-05
6.52651e-08
4.24653e-05
6.64371e-07
4.16863e-05
1.21512e-06
4.05452e-05
1.70811e-06
3.90841e-05
2.13699e-06
3.73475e-05
2.49857e-06
3.53798e-05
2.79324e-06
3.32225e-05
3.026e-06
3.09095e-05
3.20809e-06
2.84622e-05
3.35871e-06
2.5884e-05
3.50587e-06
2.31548e-05
3.68469e-06
2.02307e-05
3.93155e-06
1.70483e-05
4.27405e-06
1.3538e-05
4.71931e-06
9.64253e-06
5.24652e-06
5.33552e-06
5.80963e-06
6.32048e-07
6.35196e-06
-4.40966e-06
6.82161e-06
-9.69486e-06
7.1807e-06
-1.50999e-05
7.40019e-06
-2.04752e-05
7.44824e-06
-2.56489e-05
7.28796e-06
-3.04377e-05
6.8872e-06
-3.46633e-05
6.23233e-06
-3.81709e-05
5.33714e-06
-4.08442e-05
4.24249e-06
-4.2613e-05
3.00828e-06
-4.34533e-05
1.7021e-06
-4.33821e-05
3.8869e-07
-4.24506e-05
-8.75657e-07
-4.07358e-05
-2.04625e-06
-3.83321e-05
-3.09172e-06
-3.53432e-05
-3.99283e-06
-3.18764e-05
-4.74097e-06
-2.80348e-05
-5.33851e-06
-2.39109e-05
-5.80012e-06
-1.95811e-05
-6.15361e-06
-1.5108e-05
-6.43437e-06
-1.05645e-05
-6.65947e-06
-6.11548e-06
-6.74506e-06
-2.21322e-06
-6.28814e-06
-3.97937e-06
1.25067e-06
-4.19263e-06
4.17646e-06
-7.29075e-06
8.04905e-06
-8.38199e-06
1.24269e-05
-8.81751e-06
1.70889e-05
-9.08999e-06
2.19166e-05
-9.31359e-06
2.68229e-05
-9.46161e-06
3.17221e-05
-9.4746e-06
3.6521e-05
-9.30245e-06
4.11209e-05
-8.91751e-06
4.54236e-05
-8.31529e-06
4.93377e-05
-7.51047e-06
5.27828e-05
-6.53155e-06
5.56938e-05
-5.41556e-06
5.80221e-05
-4.20353e-06
5.97362e-05
-2.93685e-06
6.08216e-05
-1.65466e-06
6.1279e-05
-3.92112e-07
6.11231e-05
8.20292e-07
6.03805e-05
1.9577e-06
5.90875e-05
3.00111e-06
5.72874e-05
3.93709e-06
5.5028e-05
4.75796e-06
5.23586e-05
5.4627e-06
4.93259e-05
6.05869e-06
4.59695e-05
6.56444e-06
4.23156e-05
7.01266e-06
3.83695e-05
7.45193e-06
3.41097e-05
7.94447e-06
2.94846e-05
8.5567e-06
2.44172e-05
9.34145e-06
1.88213e-05
1.03152e-05
1.26282e-05
1.14397e-05
5.81698e-06
1.26208e-05
-1.56114e-06
1.37301e-05
-9.37214e-06
1.46326e-05
-1.74077e-05
1.52162e-05
-2.54053e-05
1.53978e-05
-3.30724e-05
1.51154e-05
-4.01153e-05
1.43308e-05
-4.62691e-05
1.3041e-05
-5.13238e-05
1.12871e-05
-5.51402e-05
9.1535e-06
-5.76521e-05
6.75434e-06
-5.88587e-05
4.21497e-06
-5.88114e-05
1.65478e-06
-5.75993e-05
-8.23478e-07
-5.53376e-05
-3.13733e-06
-5.21573e-05
-5.22649e-06
-4.81974e-05
-7.05164e-06
-4.36004e-05
-8.58984e-06
-3.85084e-05
-9.833e-06
-3.30592e-05
-1.07877e-05
-2.73845e-05
-1.14749e-05
-2.16123e-05
-1.19258e-05
-1.58829e-05
-1.21638e-05
-1.03874e-05
-1.21549e-05
-5.45147e-06
-1.1681e-05
-1.67159e-06
-1.0068e-05
-5.65096e-06
8.74723e-07
-5.06735e-06
3.51897e-06
-9.93499e-06
7.48525e-06
-1.23483e-05
1.23413e-05
-1.36735e-05
1.77714e-05
-1.45201e-05
2.35507e-05
-1.50929e-05
2.95068e-05
-1.54177e-05
3.54935e-05
-1.54612e-05
4.13776e-05
-1.51865e-05
4.70354e-05
-1.45753e-05
5.23531e-05
-1.3633e-05
5.7229e-05
-1.23864e-05
6.15757e-05
-1.08782e-05
6.53215e-05
-9.16144e-06
6.84115e-05
-7.29346e-06
7.08066e-05
-5.33199e-06
7.24837e-05
-3.3317e-06
7.34336e-05
-1.34205e-06
7.36602e-05
5.93732e-07
7.31785e-05
2.4394e-06
7.20134e-05
4.16617e-06
7.01974e-05
5.75312e-06
6.7768e-05
7.18737e-06
6.47653e-05
8.4654e-06
6.12284e-05
9.59556e-06
5.71908e-05
1.0602e-05
5.26746e-05
1.15289e-05
4.76826e-05
1.24439e-05
4.21921e-05
1.3435e-05
3.61503e-05
1.45985e-05
2.94795e-05
1.60122e-05
2.20957e-05
1.7699e-05
1.39418e-05
1.95936e-05
5.02986e-06
2.15328e-05
-4.52411e-06
2.32841e-05
-1.44821e-05
2.45906e-05
-2.45045e-05
2.52387e-05
-3.41923e-05
2.50856e-05
-4.31382e-05
2.40613e-05
-5.0979e-05
2.21717e-05
-5.74375e-05
1.94995e-05
-6.23441e-05
1.61937e-05
-6.56365e-05
1.24458e-05
-6.73418e-05
8.45972e-06
-6.75514e-05
4.42451e-06
-6.6395e-05
4.98379e-07
-6.40234e-05
-3.19507e-06
-6.05947e-05
-6.56603e-06
-5.62664e-05
-9.55473e-06
-5.11958e-05
-1.21223e-05
-4.55397e-05
-1.42459e-05
-3.94565e-05
-1.59163e-05
-3.31066e-05
-1.71376e-05
-2.66564e-05
-1.7925e-05
-2.02864e-05
-1.82958e-05
-1.42087e-05
-1.82415e-05
-8.69887e-06
-1.76648e-05
-4.13952e-06
-1.62404e-05
-1.05364e-06
-1.31539e-05
-6.7046e-06
6.27265e-07
-5.69462e-06
2.93968e-06
-1.22474e-05
6.73712e-06
-1.61457e-05
1.16745e-05
-1.86109e-05
1.74177e-05
-2.02634e-05
2.36833e-05
-2.13585e-05
3.02355e-05
-2.19699e-05
3.68755e-05
-2.21013e-05
4.34325e-05
-2.17435e-05
4.97583e-05
-2.09011e-05
5.57251e-05
-1.95998e-05
6.12245e-05
-1.78859e-05
6.61672e-05
-1.58208e-05
7.04812e-05
-1.34754e-05
7.41114e-05
-1.09237e-05
7.7018e-05
-8.23854e-06
7.91741e-05
-5.48785e-06
8.05649e-05
-2.73279e-06
8.11848e-05
-2.61816e-08
8.10369e-05
2.58725e-06
8.01317e-05
5.07142e-06
7.8485e-05
7.39977e-06
7.6117e-05
9.5554e-06
7.30497e-05
1.15327e-05
6.93049e-05
1.33404e-05
6.49003e-05
1.50066e-05
5.98448e-05
1.65844e-05
5.41323e-05
1.81564e-05
4.77354e-05
1.98319e-05
4.06023e-05
2.17316e-05
3.2663e-05
2.39516e-05
2.38504e-05
2.65115e-05
1.41407e-05
2.93034e-05
3.60239e-06
3.2071e-05
-7.56106e-06
3.44475e-05
-1.89954e-05
3.60249e-05
-3.02365e-05
3.64798e-05
-4.07784e-05
3.56275e-05
-5.01505e-05
3.34334e-05
-5.7985e-05
3.00062e-05
-6.40558e-05
2.55702e-05
-6.82827e-05
2.04206e-05
-7.07075e-05
1.48707e-05
-7.14554e-05
9.20759e-06
-7.06956e-05
3.66477e-06
-6.86126e-05
-1.58462e-06
-6.5387e-05
-6.42074e-06
-6.11871e-05
-1.07659e-05
-5.6171e-05
-1.45708e-05
-5.04924e-05
-1.7801e-05
-4.43062e-05
-2.0432e-05
-3.7775e-05
-2.24474e-05
-3.10742e-05
-2.38384e-05
-2.43977e-05
-2.46015e-05
-1.79663e-05
-2.47272e-05
-1.20388e-05
-2.4169e-05
-6.92562e-06
-2.27779e-05
-2.99121e-06
-2.01748e-05
-6.11369e-07
-1.55337e-05
-7.31597e-06
5.15721e-07
-6.21034e-06
2.60022e-06
-1.43319e-05
6.20313e-06
-1.97486e-05
1.10676e-05
-2.34753e-05
1.68791e-05
-2.60748e-05
2.33334e-05
-2.78128e-05
3.0159e-05
-2.87956e-05
3.71212e-05
-2.90635e-05
4.40201e-05
-2.86424e-05
5.06879e-05
-2.75689e-05
5.69862e-05
-2.58981e-05
6.28032e-05
-2.37028e-05
6.80507e-05
-2.10683e-05
7.26613e-05
-1.80861e-05
7.65852e-05
-1.48476e-05
7.97868e-05
-1.14401e-05
8.22418e-05
-7.94295e-06
8.39349e-05
-4.42583e-06
8.48566e-05
-9.47877e-07
8.50019e-05
2.44198e-06
8.43684e-05
5.70487e-06
8.29562e-05
8.81201e-06
8.0766e-05
1.17456e-05
7.77985e-05
1.45001e-05
7.40529e-05
1.70859e-05
6.95249e-05
1.95346e-05
6.42033e-05
2.1906e-05
5.80663e-05
2.42933e-05
5.10776e-05
2.68207e-05
4.31855e-05
2.96237e-05
3.43321e-05
3.2805e-05
2.44784e-05
3.63653e-05
1.36482e-05
4.01335e-05
1.98259e-06
4.37366e-05
-1.02181e-05
4.66482e-05
-2.24889e-05
4.82957e-05
-3.42673e-05
4.82582e-05
-4.49858e-05
4.6346e-05
-5.41681e-05
4.26157e-05
-6.14975e-05
3.73356e-05
-6.684e-05
3.09127e-05
-7.02231e-05
2.38037e-05
-7.17885e-05
1.64361e-05
-7.1737e-05
9.15613e-06
-7.02845e-05
2.21224e-06
-6.76341e-05
-4.23505e-06
-6.39634e-05
-1.00914e-05
-5.94258e-05
-1.53035e-05
-5.41606e-05
-1.9836e-05
-4.83041e-05
-2.36576e-05
-4.19999e-05
-2.67362e-05
-3.54083e-05
-2.9039e-05
-2.87129e-05
-3.05338e-05
-2.21261e-05
-3.11884e-05
-1.58933e-05
-3.096e-05
-1.02955e-05
-2.97668e-05
-5.64427e-06
-2.74291e-05
-2.25661e-06
-2.35625e-05
-3.76e-07
-1.74143e-05
-7.69197e-06
5.07144e-07
-6.71748e-06
2.5005e-06
-1.63253e-05
5.98785e-06
-2.3236e-05
1.07696e-05
-2.82571e-05
1.65575e-05
-3.18628e-05
2.30467e-05
-3.4302e-05
2.99499e-05
-3.56988e-05
3.70119e-05
-3.61255e-05
4.40148e-05
-3.56453e-05
5.07784e-05
-3.43325e-05
5.71585e-05
-3.22782e-05
6.30434e-05
-2.95877e-05
6.83495e-05
-2.63745e-05
7.30173e-05
-2.27538e-05
7.70056e-05
-1.88359e-05
8.02877e-05
-1.47222e-05
8.28465e-05
-1.05018e-05
8.46711e-05
-6.25046e-06
8.57535e-05
-2.03028e-06
8.60859e-05
2.10967e-06
8.56585e-05
6.13227e-06
8.44591e-05
1.00114e-05
8.24722e-05
1.37325e-05
7.96782e-05
1.72942e-05
7.60531e-05
2.0711e-05
7.15682e-05
2.40196e-05
6.61886e-05
2.72856e-05
5.98725e-05
3.06094e-05
5.25705e-05
3.41226e-05
4.42293e-05
3.79649e-05
3.48048e-05
4.22295e-05
2.42914e-05
4.68787e-05
1.27689e-05
5.1656e-05
4.55548e-07
5.60499e-05
-1.22548e-05
5.93586e-05
-2.48082e-05
6.0849e-05
-3.65815e-05
6.00316e-05
-4.69952e-05
5.67597e-05
-5.5616e-05
5.12365e-05
-6.22136e-05
4.39332e-05
-6.67599e-05
3.54589e-05
-6.93818e-05
2.64257e-05
-7.02953e-05
1.73495e-05
-6.97427e-05
8.60358e-06
-6.79507e-05
4.2021e-07
-6.51093e-05
-7.07642e-06
-6.13697e-05
-1.3831e-05
-5.68547e-05
-1.98185e-05
-5.16747e-05
-2.50159e-05
-4.59429e-05
-2.93894e-05
-3.97879e-05
-3.28911e-05
-3.33645e-05
-3.54624e-05
-2.68596e-05
-3.70387e-05
-2.0496e-05
-3.7552e-05
-1.45316e-05
-3.69244e-05
-9.25338e-06
-3.50451e-05
-4.9604e-06
-3.17221e-05
-1.92419e-06
-2.65987e-05
-3.03234e-07
-1.90353e-05
-7.99521e-06
5.6273e-07
-7.28021e-06
2.57925e-06
-1.83418e-05
6.05062e-06
-2.67074e-05
1.07994e-05
-3.30058e-05
1.65549e-05
-3.76183e-05
2.30172e-05
-4.07643e-05
2.98938e-05
-4.25754e-05
3.69205e-05
-4.31521e-05
4.38706e-05
-4.25954e-05
5.05589e-05
-4.10208e-05
5.68407e-05
-3.856e-05
6.26083e-05
-3.53553e-05
6.7786e-05
-3.15522e-05
7.23241e-05
-2.72919e-05
7.61927e-05
-2.27046e-05
7.93762e-05
-1.79057e-05
8.18676e-05
-1.29932e-05
8.36641e-05
-8.0469e-06
8.47628e-05
-3.12905e-06
8.51581e-05
1.71445e-06
8.48381e-05
6.45221e-06
8.37842e-05
1.10653e-05
8.19693e-05
1.55474e-05
7.93578e-05
1.99056e-05
7.59059e-05
2.41629e-05
7.15618e-05
2.83637e-05
6.62671e-05
3.25803e-05
5.99583e-05
3.69181e-05
5.25711e-05
4.15099e-05
4.40487e-05
4.64873e-05
3.43606e-05
5.19176e-05
2.3536e-05
5.77033e-05
1.17109e-05
6.34811e-05
-8.23292e-07
6.85842e-05
-1.35953e-05
7.21306e-05
-2.59934e-05
7.32471e-05
-3.73755e-05
7.14136e-05
-4.71923e-05
6.65765e-05
-5.50855e-05
5.91296e-05
-6.09238e-05
4.97716e-05
-6.47764e-05
3.93114e-05
-6.68441e-05
2.84934e-05
-6.73829e-05
1.78884e-05
-6.66423e-05
7.863e-06
-6.48307e-05
-1.39144e-06
-6.21042e-05
-9.80294e-06
-5.85749e-05
-1.73602e-05
-5.43293e-05
-2.40642e-05
-4.94464e-05
-2.98988e-05
-4.40159e-05
-3.48199e-05
-3.81517e-05
-3.87554e-05
-3.20016e-05
-4.16125e-05
-2.57531e-05
-4.32872e-05
-1.96335e-05
-4.36715e-05
-1.39059e-05
-4.2652e-05
-8.85626e-06
-4.00947e-05
-4.77014e-06
-3.58082e-05
-1.88922e-06
-2.94796e-05
-3.34454e-07
-2.05901e-05
-8.32966e-06
6.49792e-07
-7.93001e-06
2.76382e-06
-2.04558e-05
6.29861e-06
-3.02421e-05
1.10709e-05
-3.77781e-05
1.68146e-05
-4.33621e-05
2.32325e-05
-4.71821e-05
3.00311e-05
-4.93741e-05
3.69435e-05
-5.00645e-05
4.37417e-05
-4.93935e-05
5.02416e-05
-4.75208e-05
5.63032e-05
-4.46217e-05
6.18268e-05
-4.08789e-05
6.67469e-05
-3.64723e-05
7.10254e-05
-3.15704e-05
7.46449e-05
-2.63241e-05
7.76016e-05
-2.08624e-05
7.98994e-05
-1.5291e-05
8.15448e-05
-9.69236e-06
8.25427e-05
-4.12689e-06
8.28921e-05
1.36503e-06
8.25836e-05
6.76073e-06
8.15966e-05
1.20522e-05
7.98985e-05
1.72456e-05
7.74432e-05
2.23609e-05
7.41721e-05
2.7434e-05
7.00148e-05
3.25209e-05
6.48924e-05
3.77028e-05
5.87214e-05
4.30892e-05
5.14226e-05
4.88086e-05
4.29355e-05
5.49745e-05
3.3242e-05
6.1611e-05
2.24038e-05
6.85415e-05
1.06079e-05
7.5277e-05
-1.79374e-06
8.09859e-05
-1.42759e-05
8.46128e-05
-2.62034e-05
8.51746e-05
-3.69522e-05
8.21624e-05
-4.6034e-05
7.56583e-05
-5.31792e-05
6.62748e-05
-5.83497e-05
5.4942e-05
-6.16887e-05
4.26504e-05
-6.34391e-05
3.02438e-05
-6.38644e-05
1.83136e-05
-6.31939e-05
7.19253e-06
-6.1599e-05
-2.98638e-06
-5.91925e-05
-1.22095e-05
-5.60451e-05
-2.05076e-05
-5.22073e-05
-2.79021e-05
-4.77295e-05
-3.43765e-05
-4.26806e-05
-3.98688e-05
-3.7161e-05
-4.4275e-05
-3.13118e-05
-4.74617e-05
-2.53186e-05
-4.92804e-05
-1.94104e-05
-4.95797e-05
-1.38515e-05
-4.8211e-05
-8.92571e-06
-4.50205e-05
-4.9105e-06
-3.98234e-05
-2.03537e-06
-3.23547e-05
-4.19627e-07
-2.22058e-05
-8.74929e-06
7.45389e-07
-8.67539e-06
2.99354e-06
-2.2704e-05
6.63901e-06
-3.38876e-05
1.14743e-05
-4.26134e-05
1.72261e-05
-4.91138e-05
2.35946e-05
-5.35507e-05
3.0286e-05
-5.60655e-05
3.70345e-05
-5.6813e-05
4.36157e-05
-5.59747e-05
4.98522e-05
-5.37573e-05
5.56134e-05
-5.03829e-05
6.08108e-05
-4.60763e-05
6.53916e-05
-4.1053e-05
6.93304e-05
-3.55093e-05
7.26222e-05
-2.96158e-05
7.52745e-05
-2.35147e-05
7.73016e-05
-1.73181e-05
7.8719e-05
-1.11098e-05
7.9539e-05
-4.94692e-06
7.97669e-05
1.13716e-06
7.93973e-05
7.13028e-06
7.84117e-05
1.30378e-05
7.67759e-05
1.88814e-05
7.44392e-05
2.46977e-05
7.13338e-05
3.05395e-05
6.73765e-05
3.64781e-05
6.24727e-05
4.26066e-05
5.65232e-05
4.90388e-05
4.94364e-05
5.58953e-05
4.11488e-05
6.32621e-05
3.16536e-05
7.11062e-05
2.10406e-05
7.91545e-05
9.53818e-06
8.67794e-05
-2.45817e-06
9.29822e-05
-1.43962e-05
9.65508e-05
-2.56489e-05
9.64274e-05
-3.56395e-05
9.21529e-05
-4.39571e-05
8.39759e-05
-5.04199e-05
7.27377e-05
-5.5065e-05
5.95871e-05
-5.80815e-05
4.56669e-05
-5.97236e-05
3.1886e-05
-6.02367e-05
1.88268e-05
-5.98133e-05
6.76908e-06
-5.85795e-05
-4.22023e-06
-5.66042e-05
-1.41847e-05
-5.39202e-05
-2.31916e-05
-5.05467e-05
-3.12756e-05
-4.65104e-05
-3.84128e-05
-4.18627e-05
-4.45165e-05
-3.66923e-05
-4.94454e-05
-3.11332e-05
-5.30208e-05
-2.53677e-05
-5.50459e-05
-1.96236e-05
-5.53238e-05
-1.41655e-05
-5.36691e-05
-9.27687e-06
-4.99091e-05
-5.23414e-06
-4.38661e-05
-2.26968e-06
-3.53192e-05
-5.24048e-07
-2.39514e-05
-9.27334e-06
8.36063e-07
-9.51146e-06
3.22716e-06
-2.50951e-05
7.00125e-06
-3.76617e-05
1.19163e-05
-4.75285e-05
1.76824e-05
-5.48798e-05
2.39927e-05
-5.9861e-05
3.05522e-05
-6.2625e-05
3.70986e-05
-6.33594e-05
4.34151e-05
-6.22913e-05
4.93356e-05
-5.96777e-05
5.47427e-05
-5.579e-05
5.95626e-05
-5.08962e-05
6.37567e-05
-4.52471e-05
6.73132e-05
-3.90658e-05
7.02387e-05
-3.25414e-05
7.25511e-05
-2.5827e-05
7.42731e-05
-1.90401e-05
7.54277e-05
-1.22643e-05
7.60333e-05
-5.55251e-06
7.61005e-05
1.0699e-06
7.56288e-05
7.60203e-06
7.46027e-05
1.40639e-05
7.299e-05
2.04941e-05
7.0739e-05
2.69487e-05
6.77783e-05
3.35002e-05
6.40176e-05
4.02388e-05
5.93524e-05
4.72718e-05
5.3673e-05
5.47182e-05
4.68799e-05
6.26884e-05
3.89085e-05
7.12335e-05
2.97625e-05
8.02522e-05
1.95543e-05
8.93627e-05
8.54226e-06
9.77915e-05
-2.85384e-06
0.000104378
-1.40805e-05
0.000107777
-2.45452e-05
0.000106892
-3.37371e-05
0.000101345
-4.13277e-05
9.15665e-05
-4.72117e-05
7.86217e-05
-5.14784e-05
6.38538e-05
-5.43355e-05
4.8524e-05
-5.60244e-05
3.35749e-05
-5.67559e-05
1.95583e-05
-5.66778e-05
6.69102e-06
-5.58715e-05
-5.02653e-06
-5.43668e-05
-1.56894e-05
-5.21648e-05
-2.53937e-05
-4.92601e-05
-3.41803e-05
-4.56607e-05
-4.20122e-05
-4.14036e-05
-4.87735e-05
-3.65666e-05
-5.42824e-05
-3.12754e-05
-5.8312e-05
-2.57069e-05
-6.06145e-05
-2.00861e-05
-6.09445e-05
-1.46774e-05
-5.90778e-05
-9.76645e-06
-5.482e-05
-5.63558e-06
-4.7997e-05
-2.53122e-06
-3.84236e-05
-6.27711e-07
-2.58549e-05
-9.90105e-06
9.15649e-07
-1.04271e-05
3.4414e-06
-2.76208e-05
7.34075e-06
-4.15611e-05
1.23322e-05
-5.25199e-05
1.81035e-05
-6.06512e-05
2.43374e-05
-6.60949e-05
3.07369e-05
-6.90245e-05
3.70454e-05
-6.96678e-05
4.30572e-05
-6.83031e-05
4.86213e-05
-6.52418e-05
5.36373e-05
-6.0806e-05
5.80484e-05
-5.53073e-05
6.18319e-05
-4.90306e-05
6.49895e-05
-4.22233e-05
6.75387e-05
-3.50906e-05
6.95058e-05
-2.77942e-05
7.09202e-05
-2.04545e-05
7.18097e-05
-1.31538e-05
7.2197e-05
-5.93976e-06
7.20962e-05
1.17065e-06
7.15104e-05
8.1879e-06
7.04275e-05
1.51467e-05
6.88182e-05
2.21034e-05
6.66327e-05
2.91342e-05
6.37997e-05
3.63333e-05
6.02267e-05
4.38117e-05
5.58054e-05
5.16931e-05
5.04211e-05
6.01025e-05
4.39713e-05
6.91382e-05
3.63934e-05
7.88114e-05
2.77009e-05
8.89447e-05
1.80234e-05
9.90402e-05
7.637e-06
0.000108178
-3.03237e-06
0.000115048
-1.34522e-05
0.000118197
-2.30834e-05
0.000116523
-3.14907e-05
0.000109752
-3.84238e-05
9.84996e-05
-4.3838e-05
8.40359e-05
-4.78517e-05
6.78675e-05
-5.06688e-05
5.1341e-05
-5.25014e-05
3.54075e-05
-5.35178e-05
2.05747e-05
-5.38209e-05
6.99412e-06
-5.34522e-05
-5.39523e-06
-5.24099e-05
-1.67316e-05
-5.06711e-05
-2.71325e-05
-4.82123e-05
-3.66392e-05
-4.5027e-05
-4.51975e-05
-4.11398e-05
-5.26606e-05
-3.66172e-05
-5.8805e-05
-3.1575e-05
-6.33543e-05
-2.61819e-05
-6.60076e-05
-2.06584e-05
-6.6468e-05
-1.5268e-05
-6.44683e-05
-1.03011e-05
-5.97869e-05
-6.05134e-06
-5.22467e-05
-2.78682e-06
-4.16881e-05
-7.21623e-07
-2.79201e-05
-1.06227e-05
9.82563e-07
-1.14097e-05
3.62589e-06
-3.02641e-05
7.6337e-06
-4.55689e-05
1.26836e-05
-5.75698e-05
1.84382e-05
-6.64057e-05
2.45678e-05
-7.22244e-05
3.07742e-05
-7.5231e-05
3.68086e-05
-7.57022e-05
4.24798e-05
-7.39743e-05
4.76552e-05
-7.04172e-05
5.22543e-05
-6.54052e-05
5.62394e-05
-5.92924e-05
5.96041e-05
-5.23954e-05
6.23635e-05
-4.49827e-05
6.45448e-05
-3.72719e-05
6.61813e-05
-2.94306e-05
6.73063e-05
-2.15796e-05
6.79504e-05
-1.37979e-05
6.81379e-05
-6.12723e-06
6.78845e-05
1.42403e-06
6.71949e-05
8.87746e-06
6.60597e-05
1.62819e-05
6.44523e-05
2.37109e-05
6.23257e-05
3.12607e-05
5.96114e-05
3.90477e-05
5.62186e-05
4.72045e-05
5.20398e-05
5.5872e-05
4.69607e-05
6.51816e-05
4.08808e-05
7.52181e-05
3.37427e-05
8.59495e-05
2.55696e-05
9.71178e-05
1.65029e-05
0.000108107
6.8257e-06
0.000117855
-3.04621e-06
0.00012492
-1.26184e-05
0.000127769
-2.1417e-05
0.000125322
-2.9084e-05
0.000117419
-3.54385e-05
0.000104854
-4.04787e-05
8.90761e-05
-4.43327e-05
7.17214e-05
-4.71843e-05
5.41926e-05
-4.92074e-05
3.74307e-05
-5.05261e-05
2.18933e-05
-5.12024e-05
7.67049e-06
-5.12457e-05
-5.35195e-06
-5.06307e-05
-1.73467e-05
-4.93177e-05
-2.84454e-05
-4.72707e-05
-3.86861e-05
-4.44721e-05
-4.79962e-05
-4.09348e-05
-5.61979e-05
-3.67129e-05
-6.30268e-05
-3.19099e-05
-6.81573e-05
-2.66838e-05
-7.12338e-05
-2.12476e-05
-7.19042e-05
-1.58633e-05
-6.98525e-05
-1.08276e-05
-6.48227e-05
-6.44916e-06
-5.66252e-05
-3.02248e-06
-4.51147e-05
-8.03597e-07
-3.0139e-05
-1.14263e-05
1.0375e-06
-1.24472e-05
3.77773e-06
-3.30044e-05
7.8697e-06
-4.96608e-05
1.29507e-05
-6.26509e-05
1.86575e-05
-7.21124e-05
2.46481e-05
-7.8215e-05
3.06247e-05
-8.12076e-05
3.6349e-05
-8.14264e-05
4.16475e-05
-7.92728e-05
4.64089e-05
-7.51786e-05
5.05748e-05
-6.9571e-05
5.41272e-05
-6.28448e-05
5.70765e-05
-5.53447e-05
5.94502e-05
-4.73563e-05
6.12841e-05
-3.91058e-05
6.2616e-05
-3.07626e-05
6.34819e-05
-2.24455e-05
6.39125e-05
-1.42285e-05
6.39317e-05
-6.14637e-06
6.35545e-05
1.80121e-06
6.27856e-05
9.64636e-06
6.16164e-05
1.74511e-05
6.00222e-05
2.5305e-05
5.79594e-05
3.33235e-05
5.53628e-05
4.16442e-05
5.21462e-05
5.04211e-05
4.82062e-05
5.98119e-05
4.34339e-05
6.99539e-05
3.7735e-05
8.0917e-05
3.10603e-05
9.26242e-05
2.34427e-05
0.000104735
1.50309e-05
0.000116519
6.10523e-06
0.000126781
-2.9411e-06
0.000133966
-1.16635e-05
0.000136492
-1.96589e-05
0.000133317
-2.66434e-05
0.000124404
-3.24934e-05
0.000110704
-3.72345e-05
9.38172e-05
-4.09892e-05
7.54762e-05
-4.39116e-05
5.7115e-05
-4.61339e-05
3.9653e-05
-4.77385e-05
2.34978e-05
-4.87534e-05
8.68545e-06
-4.91637e-05
-4.94171e-06
-4.89282e-05
-1.75821e-05
-4.79971e-05
-2.93765e-05
-4.6326e-05
-4.03573e-05
-4.38882e-05
-5.0434e-05
-4.06855e-05
-5.94006e-05
-3.67584e-05
-6.6954e-05
-3.21951e-05
-7.27205e-05
-2.71397e-05
-7.62891e-05
-2.17953e-05
-7.72486e-05
-1.64208e-05
-7.5227e-05
-1.1319e-05
-6.99245e-05
-6.81583e-06
-6.11283e-05
-3.23498e-06
-4.86956e-05
-8.74807e-07
-3.24992e-05
-1.23011e-05
1.08187e-06
-1.3529e-05
3.89745e-06
-3.58199e-05
8.04554e-06
-5.38089e-05
1.31249e-05
-6.77302e-05
1.87473e-05
-7.77348e-05
2.45605e-05
-8.40283e-05
3.02698e-05
-8.69169e-05
3.56502e-05
-8.68069e-05
4.05491e-05
-8.41717e-05
4.48787e-05
-7.95082e-05
4.86036e-05
-7.32959e-05
5.17261e-05
-6.59674e-05
5.42725e-05
-5.78911e-05
5.62815e-05
-4.93653e-05
5.77955e-05
-4.06198e-05
5.88558e-05
-3.18228e-05
5.94983e-05
-2.3088e-05
5.97526e-05
-1.44828e-05
5.96402e-05
-6.03396e-06
5.91739e-05
2.26752e-06
5.83565e-05
1.04638e-05
5.71787e-05
1.86289e-05
5.56167e-05
2.6867e-05
5.36292e-05
3.5311e-05
5.11553e-05
4.41182e-05
4.81142e-05
5.34622e-05
4.44097e-05
6.35164e-05
3.99412e-05
7.44224e-05
3.46243e-05
8.62339e-05
2.84207e-05
9.88278e-05
2.13727e-05
0.000111783
1.36325e-05
0.000124259
5.47029e-06
0.000134943
-2.75273e-06
0.000142189
-1.06486e-05
0.000144388
-1.78855e-05
0.000140554
-2.42472e-05
0.000130765
-2.96556e-05
0.000116112
-3.41503e-05
9.8312e-05
-3.78383e-05
7.91641e-05
-4.08387e-05
6.01155e-05
-4.3243e-05
4.20573e-05
-4.5097e-05
2.53518e-05
-4.64018e-05
9.99033e-06
-4.71258e-05
-4.21779e-06
-4.72186e-05
-1.74893e-05
-4.6625e-05
-2.99701e-05
-4.52956e-05
-4.16866e-05
-4.31966e-05
-5.25331e-05
-4.03185e-05
-6.22788e-05
-3.66866e-05
-7.05858e-05
-3.23719e-05
-7.70352e-05
-2.75014e-05
-8.11596e-05
-2.22649e-05
-8.24851e-05
-1.69159e-05
-8.05761e-05
-1.17621e-05
-7.50782e-05
-7.14747e-06
-6.5743e-05
-3.42576e-06
-5.24173e-05
-9.37494e-07
-3.49875e-05
-1.32386e-05
1.11702e-06
-1.46461e-05
3.98666e-06
-3.86896e-05
8.16131e-06
-5.79836e-05
1.32036e-05
-7.27725e-05
1.8703e-05
-8.32342e-05
2.42998e-05
-8.96252e-05
2.97057e-05
-9.23228e-05
3.47129e-05
-9.1814e-05
3.91918e-05
-8.86506e-05
4.30798e-05
-8.33962e-05
4.63649e-05
-7.6581e-05
4.90689e-05
-6.86715e-05
5.12326e-05
-6.00548e-05
5.29039e-05
-5.10365e-05
5.41303e-05
-4.18463e-05
5.49543e-05
-3.26469e-05
5.5411e-05
-2.35447e-05
5.55268e-05
-1.45986e-05
5.53199e-05
-5.82701e-06
5.47993e-05
2.78805e-06
5.39649e-05
1.12982e-05
5.28055e-05
1.97883e-05
5.12969e-05
2.83757e-05
4.93994e-05
3.72085e-05
4.70559e-05
4.64616e-05
4.4192e-05
5.63261e-05
4.072e-05
6.69885e-05
3.655e-05
7.85924e-05
3.16102e-05
9.11737e-05
2.58747e-05
0.000104563
1.93952e-05
0.000118263
1.23241e-05
0.00013133
4.91569e-06
0.000142351
-2.50648e-06
0.000149611
-9.61393e-06
0.000151495
-1.61433e-05
0.000147084
-2.19376e-05
0.00013656
-2.69537e-05
0.000121129
-3.12352e-05
0.000102593
-3.48673e-05
8.27962e-05
-3.79332e-05
6.31814e-05
-4.04869e-05
4.4611e-05
-4.25436e-05
2.74085e-05
-4.40846e-05
1.15312e-05
-4.50675e-05
-3.23487e-06
-4.54383e-05
-1.71185e-05
-4.51403e-05
-3.02681e-05
-4.41218e-05
-4.27051e-05
-4.23427e-05
-5.43122e-05
-3.97826e-05
-6.48388e-05
-3.64511e-05
-7.39174e-05
-3.23997e-05
-8.10866e-05
-2.77354e-05
-8.5824e-05
-2.26315e-05
-8.7589e-05
-1.73328e-05
-8.58749e-05
-1.21499e-05
-8.0261e-05
-7.44339e-06
-7.04495e-05
-3.59727e-06
-5.62634e-05
-9.93744e-07
-3.7591e-05
-1.42323e-05
1.14392e-06
-1.579e-05
4.04699e-06
-4.15926e-05
8.2184e-06
-6.2155e-05
1.31877e-05
-7.77418e-05
1.85255e-05
-8.8572e-05
2.38687e-05
-9.49684e-05
2.89393e-05
-9.73933e-05
3.35497e-05
-9.64245e-05
3.75959e-05
-9.26968e-05
4.10411e-05
-8.68413e-05
4.38961e-05
-7.9436e-05
4.62007e-05
-7.09761e-05
4.8008e-05
-6.1862e-05
4.93731e-05
-5.24017e-05
5.03466e-05
-4.28198e-05
5.09707e-05
-3.32709e-05
5.12778e-05
-2.38518e-05
5.12908e-05
-1.46116e-05
5.10234e-05
-5.55959e-06
5.04804e-05
3.33107e-06
4.96576e-05
1.21209e-05
4.85412e-05
2.09047e-05
4.71058e-05
2.98111e-05
4.53125e-05
3.90017e-05
4.31078e-05
4.86663e-05
4.04234e-05
5.90105e-05
3.7181e-05
7.02309e-05
3.33032e-05
8.24702e-05
2.87319e-05
9.57449e-05
2.3455e-05
0.00010984
1.75326e-05
0.000124185
1.11152e-05
0.000137747
4.43728e-06
0.000149029
-2.2186e-06
0.000156267
-8.58304e-06
0.00015786
-1.4456e-05
0.000152957
-1.97314e-05
0.000141835
-2.43915e-05
0.000125789
-2.84771e-05
0.000106679
-3.2049e-05
8.63681e-05
-3.5156e-05
6.62884e-05
-3.78189e-05
4.72739e-05
-4.00285e-05
2.96181e-05
-4.17519e-05
1.32546e-05
-4.29416e-05
-2.04516e-06
-4.35435e-05
-1.65166e-05
-4.35026e-05
-3.03091e-05
-4.27665e-05
-4.34412e-05
-4.12906e-05
-5.57881e-05
-3.9044e-05
-6.70853e-05
-3.60201e-05
-7.69413e-05
-3.22496e-05
-8.4857e-05
-2.78173e-05
-9.02563e-05
-2.28765e-05
-9.25297e-05
-1.76596e-05
-9.10918e-05
-1.24768e-05
-8.54437e-05
-7.70292e-06
-7.52234e-05
-3.75121e-06
-6.02151e-05
-1.04499e-06
-4.02972e-05
-1.52773e-05
1.16322e-06
-1.69532e-05
4.07978e-06
-4.45092e-05
8.21872e-06
-6.62939e-05
1.30801e-05
-8.26031e-05
1.82197e-05
-9.37116e-05
2.32755e-05
-0.000100024
2.79841e-05
-0.000102102
3.21815e-05
-0.000100622
3.57903e-05
-9.63056e-05
3.87996e-05
-8.98507e-05
4.12419e-05
-8.18783e-05
4.31726e-05
-7.29068e-05
4.46547e-05
-6.33441e-05
4.57481e-05
-5.34951e-05
4.65043e-05
-4.3576e-05
4.69637e-05
-3.37303e-05
4.71552e-05
-2.40433e-05
4.70973e-05
-1.45537e-05
4.67989e-05
-5.26117e-06
4.62601e-05
3.86983e-06
4.54727e-05
1.29083e-05
4.44196e-05
2.19579e-05
4.30735e-05
3.11571e-05
4.13962e-05
4.06791e-05
3.93369e-05
5.07256e-05
3.68337e-05
6.15137e-05
3.38179e-05
7.32466e-05
3.02251e-05
8.6063e-05
2.60121e-05
9.99579e-05
2.11803e-05
0.000114672
1.57978e-05
0.000129568
1.00109e-05
0.000143534
4.032e-06
0.000155008
-1.89826e-06
0.000162197
-7.5671e-06
0.000163528
-1.28316e-05
0.000158221
-1.76282e-05
0.000146632
-2.19576e-05
0.000130118
-2.58534e-05
0.000110575
-2.93512e-05
8.98659e-05
-3.24687e-05
6.94059e-05
-3.51986e-05
5.00038e-05
-3.75124e-05
3.19319e-05
-3.9368e-05
1.51102e-05
-4.07167e-05
-6.96503e-07
-4.1507e-05
-1.57262e-05
-4.16877e-05
-3.01284e-05
-4.12077e-05
-4.39212e-05
-4.0019e-05
-5.69768e-05
-3.80813e-05
-6.90229e-05
-3.53722e-05
-7.96504e-05
-3.19012e-05
-8.83281e-05
-2.77285e-05
-9.4429e-05
-2.29848e-05
-9.72735e-05
-1.78856e-05
-9.61909e-05
-1.2737e-05
-9.05924e-05
-7.92426e-06
-8.00361e-05
-3.88804e-06
-6.42513e-05
-1.09195e-06
-4.30933e-05
-1.63693e-05
1.17532e-06
-1.81285e-05
4.0862e-06
-4.74201e-05
8.16458e-06
-7.03723e-05
1.28848e-05
-8.73234e-05
1.77928e-05
-9.86196e-05
2.25324e-05
-0.000104764
2.68586e-05
-0.000106428
3.06336e-05
-0.000104397
3.3808e-05
-9.948e-05
3.63959e-05
-9.24385e-05
3.84492e-05
-8.39316e-05
4.00365e-05
-7.44941e-05
4.12278e-05
-6.45354e-05
4.20854e-05
-5.43527e-05
4.26596e-05
-4.41503e-05
4.29877e-05
-3.40583e-05
4.30943e-05
-2.41499e-05
4.2993e-05
-1.44524e-05
4.26879e-05
-4.95605e-06
4.21745e-05
4.38322e-06
4.14405e-05
1.36423e-05
4.04654e-05
2.29329e-05
3.92204e-05
3.24022e-05
3.7667e-05
4.22325e-05
3.57573e-05
5.26353e-05
3.34355e-05
6.38356e-05
3.06426e-05
7.60394e-05
2.73273e-05
8.93783e-05
2.34613e-05
0.000103824
1.90593e-05
0.000119074
1.41962e-05
0.000134431
9.01253e-06
0.000148718
3.69749e-06
0.000160323
-1.54974e-06
0.000167444
-6.56903e-06
0.000168548
-1.12679e-05
0.00016292
-1.56183e-05
0.000150982
-1.96334e-05
0.000134133
-2.33372e-05
0.000114279
-2.6742e-05
9.32707e-05
-2.98375e-05
7.25014e-05
-3.25933e-05
5.27596e-05
-3.49665e-05
3.43051e-05
-3.69092e-05
1.7053e-05
-3.83742e-05
7.68423e-07
-3.93147e-05
-1.47857e-05
-3.96845e-05
-2.97586e-05
-3.94356e-05
-4.41702e-05
-3.85179e-05
-5.78945e-05
-3.68834e-05
-7.06574e-05
-3.44947e-05
-8.20391e-05
-3.13403e-05
-9.14825e-05
-2.74551e-05
-9.83143e-05
-2.29436e-05
-0.000101785
-1.80011e-05
-0.000101133
-1.29239e-05
-9.56696e-05
-8.1043e-06
-8.48557e-05
-4.00696e-06
-6.83487e-05
-1.13474e-06
-4.59655e-05
-1.7504e-05
1.18052e-06
-1.9309e-05
4.06738e-06
-5.0307e-05
8.0586e-06
-7.43635e-05
1.26072e-05
-9.1872e-05
1.7254e-05
-0.000103266
2.16534e-05
-0.000109163
2.55832e-05
-0.000110358
2.89337e-05
-0.000107747
3.16834e-05
-0.00010223
3.38704e-05
-9.46254e-05
3.55633e-05
-8.56246e-05
3.68411e-05
-7.57718e-05
3.77777e-05
-6.5472e-05
3.84354e-05
-5.50104e-05
3.88616e-05
-4.45765e-05
3.90891e-05
-3.42859e-05
3.91378e-05
-2.41985e-05
3.90161e-05
-1.43308e-05
3.87234e-05
-4.66341e-06
3.82511e-05
4.85559e-06
3.75828e-05
1.43106e-05
3.66954e-05
2.38204e-05
3.55581e-05
3.35395e-05
3.41327e-05
4.36579e-05
3.2374e-05
5.4394e-05
3.02319e-05
6.59776e-05
2.76575e-05
7.86139e-05
2.46118e-05
9.2424e-05
2.10813e-05
0.000107354
1.70931e-05
0.000123062
1.27278e-05
0.000138796
8.11877e-06
0.000153327
3.4315e-06
0.00016501
-1.17438e-06
0.00017205
-5.5868e-06
0.00017296
-9.75733e-06
0.000167091
-1.36869e-05
0.000154912
-1.73973e-05
0.000137843
-2.09023e-05
0.000117784
-2.41927e-05
9.6561e-05
-2.72346e-05
7.55433e-05
-2.99788e-05
5.55039e-05
-3.23715e-05
3.66978e-05