/*--------------------------------*- C++ -*----------------------------------*\
| =========                 |                                                 |
| \\      /  F ield         | OpenFOAM: The Open Source CFD Toolbox           |
|  \\    /   O peration     | Version:  2406                                  |
|   \\  /    A nd           | Website:  www.openfoam.com                      |
|    \\/     M anipulation  |                                                 |
\*---------------------------------------------------------------------------*/
FoamFile
{
    version     2.0;
    format      ascii;
    arch        "LSB;label=32;scalar=64";
    class       volScalarField;
    location    "20000";
    object      qin;
}
// * * * * * * * * * * * * * * * * * * * * * * * * * * * * * * * * * * * * * //

dimensions      [1 0 -3 0 0 0 0];

internalField   uniform 0;

boundaryField
{
    bottomwall
    {
        type            calculated;
        value           nonuniform List<scalar> 
60
(
443.15
443.333
443.479
443.633
443.75
443.814
443.855
443.9
443.963
444.075
444.267
444.532
444.822
445.078
445.269
445.405
445.517
445.639
445.788
445.965
446.156
446.325
446.418
446.375
446.168
445.848
445.574
445.565
445.941
446.511
446.611
445.197
441.29
434.726
426.942
421.39
423.228
438.19
470.941
523.451
594.049
677.52
766.232
851.831
926.885
985.91
1025.6
1044.42
1042.01
1018.75
975.833
915.548
841.713
759.769
676.343
598.323
531.57
480.193
445.125
422.689
)
;
    }
    topwall
    {
        type            calculated;
        value           nonuniform List<scalar> 
60
(
448.344
447.667
447.559
447.423
447.526
447.845
448.428
449.396
450.92
453.055
455.631
458.304
460.728
462.696
464.155
465.13
465.649
465.718
465.341
464.542
463.371
461.899
460.199
458.353
456.461
454.665
453.157
452.17
451.923
452.556
454.061
456.264
458.858
461.484
463.822
465.657
466.887
467.508
467.558
467.083
466.126
464.735
462.992
461.03
459.026
457.166
455.603
454.448
453.8
453.76
454.395
455.649
457.293
458.997
460.472
461.554
462.22
462.403
462.406
461.143
)
;
    }
    coldwall
    {
        type            calculated;
        value           nonuniform List<scalar> 
48
(
448.854
451.948
453.577
454.72
456.338
459.157
462.483
464.247
462.87
458.907
454.597
451.938
451.383
452.094
453.005
453.574
453.846
454.167
454.899
456.263
458.253
460.611
462.869
464.487
465.027
464.303
462.44
459.818
456.943
454.303
452.245
450.924
450.317
450.282
450.639
451.227
451.944
452.743
453.617
454.57
455.597
456.673
456.106
454.112
452.135
450.039
447.563
443.987
)
;
    }
    radinlet
    {
        type            calculated;
        value           nonuniform List<scalar> 
12
(
457.749
458.755
459.597
460.187
460.478
460.517
460.437
460.363
460.286
460.009
459.265
457.922
)
;
    }
    hotwall
    {
        type            calculated;
        value           nonuniform List<scalar> 
60
(
431.591
436.692
452.025
459.089
466.715
473.107
477.273
478.054
476.048
472.719
469.582
467.582
466.874
466.996
467.287
467.265
466.765
465.872
464.771
463.646
462.626
461.786
461.146
460.682
460.341
460.053
459.744
459.357
458.864
458.282
457.666
457.089
456.614
456.269
456.033
455.854
455.664
455.409
455.065
454.644
454.186
453.742
453.359
453.063
452.842
452.655
452.478
452.356
452.42
452.803
453.495
454.271
454.802
454.895
454.599
454.051
453.255
452.041
450.258
447.225
)
;
    }
    frontAndback
    {
        type            empty;
    }
}


// ************************************************************************* //
