/*--------------------------------*- C++ -*----------------------------------*\
| =========                 |                                                 |
| \\      /  F ield         | OpenFOAM: The Open Source CFD Toolbox           |
|  \\    /   O peration     | Version:  2406                                  |
|   \\  /    A nd           | Website:  www.openfoam.com                      |
|    \\/     M anipulation  |                                                 |
\*---------------------------------------------------------------------------*/
FoamFile
{
    version     2.0;
    format      ascii;
    arch        "LSB;label=32;scalar=64";
    class       volScalarField;
    location    "20000";
    object      RadNu;
}
// * * * * * * * * * * * * * * * * * * * * * * * * * * * * * * * * * * * * * //

dimensions      [0 0 0 0 0 0 0];

internalField   uniform 0;

boundaryField
{
    bottomwall
    {
        type            calculated;
        value           nonuniform List<scalar> 
60
(
0.343732
0.669923
0.853879
0.965184
1.03805
1.08948
1.12715
1.15533
1.1767
1.19213
1.20171
1.20666
1.2097
1.21373
1.22028
1.22914
1.23909
1.24888
1.25779
1.26579
1.27361
1.28277
1.29562
1.3148
1.34168
1.37431
1.40623
1.42845
1.43588
1.43652
1.4579
1.54358
1.73456
2.03798
2.3943
2.65996
2.62002
2.03472
0.708271
-1.44369
-4.3542
-7.80883
-11.4921
-15.0581
-18.1985
-20.6854
-22.3804
-23.2186
-23.1824
-22.2859
-20.5751
-18.143
-15.1473
-11.8144
-8.42296
-5.26523
-2.59494
-0.600552
0.646723
1.23215
)
;
    }
    topwall
    {
        type            calculated;
        value           nonuniform List<scalar> 
60
(
-0.483044
-0.315942
-0.184594
-0.0645903
0.0315125
0.104283
0.152311
0.1718
0.157185
0.107664
0.0317195
-0.0551499
-0.137591
-0.206171
-0.257959
-0.293325
-0.312742
-0.315817
-0.30208
-0.271976
-0.227134
-0.169966
-0.103188
-0.0297906
0.0463797
0.119732
0.182409
0.224872
0.237925
0.215671
0.158154
0.0723091
-0.0294571
-0.132583
-0.224107
-0.295302
-0.342321
-0.365068
-0.365306
-0.345078
-0.306165
-0.250611
-0.181799
-0.105233
-0.0282461
0.0414591
0.0974214
0.134736
0.1488
0.134339
0.0870086
0.00707126
-0.0986399
-0.21948
-0.34664
-0.476202
-0.609306
-0.743927
-0.892446
-1.00876
)
;
    }
    coldwall
    {
        type            calculated;
        value           nonuniform List<scalar> 
48
(
-0.592235
-0.727376
-0.798532
-0.848424
-0.91909
-1.04222
-1.18744
-1.26451
-1.20435
-1.03129
-0.843053
-0.726944
-0.702711
-0.733747
-0.773551
-0.798386
-0.81026
-0.824269
-0.856256
-0.91582
-1.00275
-1.10572
-1.20434
-1.27498
-1.29854
-1.26696
-1.1856
-1.07105
-0.945517
-0.830233
-0.740361
-0.682675
-0.656151
-0.654642
-0.670204
-0.695893
-0.727181
-0.76208
-0.800249
-0.841878
-0.88673
-0.933711
-0.908959
-0.821886
-0.735547
-0.644006
-0.535869
-0.379704
)
;
    }
    radinlet
    {
        type            calculated;
        value           nonuniform List<scalar> 
12
(
25.8571
25.8132
25.7764
25.7506
25.738
25.7363
25.7398
25.743
25.7463
25.7584
25.7909
25.8496
)
;
    }
    hotwall
    {
        type            calculated;
        value           nonuniform List<scalar> 
60
(
0.161668
-0.0611203
-0.730743
-1.03922
-1.37227
-1.65143
-1.83336
-1.86746
-1.77987
-1.63449
-1.49749
-1.41014
-1.37922
-1.38453
-1.39725
-1.39629
-1.37449
-1.33547
-1.28741
-1.23824
-1.19372
-1.15704
-1.12907
-1.10881
-1.09393
-1.08136
-1.06787
-1.05093
-1.02941
-1.004
-0.977096
-0.951903
-0.931163
-0.916063
-0.905795
-0.897968
-0.88966
-0.87851
-0.863496
-0.84513
-0.825108
-0.805708
-0.789011
-0.776084
-0.766409
-0.758256
-0.750522
-0.745189
-0.747969
-0.7647
-0.794946
-0.828811
-0.852015
-0.856096
-0.843169
-0.819242
-0.78446
-0.731437
-0.653589
-0.521132
)
;
    }
    frontAndback
    {
        type            empty;
    }
}


// ************************************************************************* //
