/*--------------------------------*- C++ -*----------------------------------*\
| =========                 |                                                 |
| \\      /  F ield         | OpenFOAM: The Open Source CFD Toolbox           |
|  \\    /   O peration     | Version:  2406                                  |
|   \\  /    A nd           | Website:  www.openfoam.com                      |
|    \\/     M anipulation  |                                                 |
\*---------------------------------------------------------------------------*/
FoamFile
{
    version     2.0;
    format      ascii;
    arch        "LSB;label=32;scalar=64";
    class       volScalarField;
    location    "20000";
    object      T;
}
// * * * * * * * * * * * * * * * * * * * * * * * * * * * * * * * * * * * * * //

dimensions      [0 0 0 1 0 0 0];

internalField   nonuniform List<scalar> 
3600
(
297.511
299.022
299.874
300.4
300.746
300.986
301.16
301.293
301.399
301.488
301.567
301.639
301.707
301.773
301.838
301.902
301.967
302.033
302.1
302.168
302.239
302.31
302.384
302.46
302.539
302.621
302.709
302.804
302.907
303.016
303.128
303.237
303.338
303.432
303.528
303.647
303.815
304.061
304.402
304.836
305.343
305.879
306.394
306.836
307.164
307.348
307.377
307.249
306.969
306.55
306.007
305.36
304.632
303.85
303.038
302.208
301.352
300.418
299.264
297.554
296.788
297.963
298.767
299.316
299.701
299.977
300.184
300.345
300.476
300.587
300.686
300.778
300.865
300.95
301.034
301.118
301.204
301.29
301.378
301.468
301.56
301.654
301.752
301.852
301.957
302.067
302.185
302.311
302.448
302.594
302.747
302.903
303.057
303.208
303.358
303.518
303.702
303.924
304.19
304.492
304.81
305.113
305.366
305.54
305.616
305.582
305.438
305.191
304.85
304.426
303.932
303.38
302.783
302.153
301.494
300.805
300.063
299.222
298.194
296.853
296.486
297.328
297.979
298.466
298.828
299.102
299.315
299.486
299.628
299.752
299.865
299.971
300.073
300.173
300.273
300.375
300.477
300.582
300.688
300.797
300.909
301.024
301.143
301.266
301.395
301.531
301.676
301.833
302.003
302.187
302.382
302.585
302.788
302.986
303.175
303.355
303.531
303.706
303.879
304.042
304.179
304.271
304.3
304.257
304.136
303.942
303.68
303.362
302.995
302.59
302.153
301.691
301.209
300.707
300.183
299.628
299.021
298.333
297.52
296.546
296.329
296.931
297.431
297.829
298.141
298.388
298.588
298.754
298.897
299.026
299.144
299.258
299.369
299.479
299.59
299.703
299.818
299.936
300.056
300.18
300.308
300.439
300.576
300.718
300.867
301.026
301.196
301.381
301.583
301.803
302.039
302.287
302.535
302.772
302.987
303.169
303.315
303.423
303.489
303.509
303.476
303.385
303.234
303.027
302.771
302.476
302.151
301.805
301.446
301.078
300.704
300.325
299.94
299.547
299.138
298.704
298.229
297.694
297.08
296.377
296.235
296.675
297.056
297.371
297.63
297.843
298.021
298.175
298.312
298.438
298.557
298.672
298.786
298.9
299.015
299.133
299.254
299.377
299.505
299.638
299.775
299.917
300.066
300.222
300.387
300.564
300.755
300.964
301.195
301.448
301.723
302.012
302.3
302.568
302.796
302.966
303.066
303.093
303.047
302.93
302.748
302.51
302.227
301.912
301.576
301.232
300.888
300.548
300.217
299.896
299.582
299.276
298.972
298.666
298.35
298.016
297.652
297.246
296.786
296.272
296.176
296.509
296.804
297.056
297.27
297.453
297.612
297.753
297.882
298.002
298.118
298.23
298.342
298.454
298.567
298.683
298.802
298.925
299.052
299.185
299.325
299.471
299.625
299.788
299.963
300.153
300.36
300.589
300.845
301.128
301.437
301.761
302.082
302.373
302.605
302.75
302.796
302.737
302.582
302.345
302.043
301.698
301.33
300.954
300.586
300.232
299.899
299.586
299.295
299.022
298.763
298.516
298.275
298.035
297.789
297.53
297.249
296.937
296.588
296.202
296.139
296.403
296.642
296.852
297.036
297.198
297.342
297.474
297.597
297.712
297.823
297.931
298.037
298.143
298.249
298.358
298.469
298.584
298.705
298.831
298.965
299.107
299.26
299.424
299.602
299.798
300.016
300.26
300.535
300.843
301.181
301.535
301.883
302.188
302.415
302.529
302.514
302.373
302.122
301.787
301.399
300.986
300.573
300.177
299.808
299.472
299.167
298.892
298.643
298.415
298.203
298.002
297.807
297.613
297.414
297.206
296.981
296.733
296.458
296.157
296.116
296.34
296.545
296.731
296.898
297.049
297.187
297.315
297.434
297.547
297.654
297.757
297.856
297.954
298.051
298.148
298.248
298.351
298.458
298.573
298.695
298.828
298.972
299.13
299.306
299.502
299.725
299.978
300.267
300.595
300.955
301.333
301.7
302.013
302.227
302.306
302.234
302.019
301.69
301.283
300.839
300.392
299.966
299.577
299.23
298.925
298.658
298.423
298.214
298.025
297.848
297.68
297.516
297.352
297.182
297.004
296.813
296.605
296.376
296.129
296.104
296.305
296.494
296.669
296.83
296.979
297.117
297.246
297.366
297.479
297.584
297.683
297.776
297.865
297.952
298.037
298.123
298.211
298.303
298.401
298.508
298.626
298.757
298.904
299.072
299.263
299.485
299.742
300.04
300.381
300.759
301.154
301.533
301.847
302.045
302.088
301.963
301.687
301.299
300.846
300.373
299.917
299.501
299.136
298.822
298.555
298.328
298.131
297.957
297.798
297.649
297.503
297.358
297.209
297.055
296.892
296.718
296.531
296.328
296.112
296.098
296.29
296.474
296.648
296.811
296.964
297.108
297.241
297.365
297.48
297.585
297.682
297.77
297.852
297.929
298.002
298.074
298.146
298.222
298.303
298.392
298.492
298.607
298.739
298.894
299.077
299.293
299.55
299.852
300.201
300.589
300.995
301.38
301.689
301.869
301.877
301.708
301.386
300.958
300.479
299.999
299.553
299.161
298.828
298.552
298.324
298.134
297.97
297.825
297.689
297.558
297.426
297.291
297.149
297
296.842
296.674
296.494
296.303
296.103
296.097
296.289
296.476
296.654
296.825
296.986
297.137
297.278
297.408
297.527
297.634
297.729
297.815
297.891
297.959
298.022
298.081
298.139
298.198
298.261
298.332
298.414
298.511
298.627
298.767
298.937
299.145
299.397
299.698
300.05
300.444
300.855
301.239
301.541
301.7
301.679
301.474
301.119
300.668
300.181
299.709
299.284
298.922
298.626
298.388
298.195
298.037
297.901
297.778
297.66
297.541
297.416
297.285
297.144
296.993
296.833
296.663
296.483
296.295
296.099
296.099
296.297
296.49
296.678
296.858
297.03
297.191
297.34
297.477
297.601
297.711
297.807
297.89
297.962
298.024
298.078
298.126
298.171
298.215
298.262
298.316
298.38
298.459
298.557
298.681
298.838
299.034
299.278
299.575
299.926
300.321
300.731
301.111
301.4
301.54
301.493
301.263
300.887
300.427
299.945
299.489
299.092
298.764
298.504
298.3
298.139
298.008
297.894
297.788
297.681
297.569
297.448
297.316
297.172
297.017
296.85
296.674
296.489
296.297
296.099
296.104
296.31
296.513
296.712
296.904
297.086
297.258
297.417
297.561
297.69
297.803
297.9
297.983
298.052
298.109
298.155
298.194
298.228
298.26
298.293
298.331
298.378
298.44
298.521
298.629
298.771
298.955
299.189
299.48
299.826
300.216
300.622
300.993
301.269
301.39
301.323
301.075
300.689
300.23
299.761
299.329
298.962
298.668
298.44
298.267
298.133
298.023
297.927
297.833
297.734
297.626
297.505
297.37
297.221
297.058
296.883
296.698
296.505
296.305
296.102
296.109
296.326
296.541
296.752
296.956
297.15
297.332
297.5
297.651
297.786
297.902
298.001
298.084
298.15
298.203
298.244
298.275
298.3
298.321
298.341
298.366
298.399
298.445
298.511
298.604
298.731
298.902
299.126
299.407
299.746
300.129
300.525
300.885
301.146
301.25
301.167
300.908
300.522
300.072
299.622
299.216
298.879
298.616
298.418
298.271
298.159
298.067
297.984
297.899
297.805
297.699
297.577
297.438
297.282
297.111
296.927
296.731
296.528
296.319
296.106
296.115
296.344
296.572
296.795
297.011
297.217
297.41
297.586
297.745
297.884
298.004
298.104
298.186
298.25
298.3
298.336
298.361
298.378
298.39
298.401
298.414
298.435
298.468
298.52
298.598
298.712
298.871
299.083
299.354
299.683
300.055
300.44
300.786
301.031
301.119
301.025
300.763
300.381
299.946
299.518
299.14
298.832
298.597
298.425
298.299
298.206
298.128
298.055
297.976
297.886
297.781
297.656
297.513
297.35
297.17
296.976
296.769
296.555
296.334
296.112
296.121
296.363
296.604
296.84
297.069
297.286
297.488
297.673
297.838
297.981
298.104
298.205
298.286
298.349
298.396
298.428
298.448
298.459
298.464
298.466
298.47
298.48
298.501
298.541
298.607
298.709
298.856
299.056
299.316
299.633
299.994
300.365
300.695
300.924
300.999
300.897
300.636
300.264
299.847
299.443
299.092
298.811
298.601
298.451
298.344
298.265
298.199
298.134
298.06
297.973
297.867
297.74
297.592
297.422
297.233
297.029
296.811
296.584
296.352
296.117
296.128
296.383
296.637
296.886
297.127
297.355
297.566
297.759
297.929
298.077
298.201
298.303
298.383
298.444
298.488
298.516
298.532
298.538
298.537
298.532
298.528
298.53
298.542
298.572
298.627
298.718
298.853
299.042
299.291
299.596
299.943
300.298
300.611
300.825
300.888
300.782
300.525
300.167
299.771
299.392
299.066
298.81
298.622
298.49
298.399
298.332
298.275
298.216
298.147
298.062
297.955
297.826
297.673
297.496
297.299
297.084
296.854
296.615
296.37
296.123
296.134
296.403
296.67
296.932
297.185
297.423
297.644
297.843
298.018
298.169
298.295
298.396
298.476
298.534
298.575
298.6
298.612
298.613
298.607
298.597
298.587
298.582
298.586
298.608
298.654
298.735
298.861
299.039
299.276
299.568
299.899
300.238
300.534
300.732
300.786
300.678
300.429
300.087
299.712
299.357
299.056
298.822
298.653
298.538
298.459
298.403
298.353
298.3
298.235
298.151
298.044
297.913
297.755
297.572
297.366
297.14
296.899
296.647
296.39
296.13
296.141
296.423
296.704
296.979
297.243
297.492
297.72
297.926
298.105
298.258
298.384
298.485
298.562
298.619
298.657
298.678
298.687
298.684
298.674
298.66
298.645
298.634
298.632
298.647
298.686
298.759
298.875
299.043
299.268
299.547
299.863
300.185
300.464
300.647
300.693
300.585
300.346
300.021
299.669
299.337
299.058
298.845
298.693
298.591
298.523
298.475
298.432
298.384
298.322
298.24
298.133
297.999
297.837
297.648
297.433
297.198
296.945
296.681
296.41
296.136
296.148
296.444
296.737
297.025
297.3
297.559
297.795
298.006
298.189
298.343
298.469
298.569
298.644
298.698
298.732
298.751
298.756
298.75
298.737
298.719
298.7
298.684
298.678
298.688
298.721
298.787
298.895
299.054
299.267
299.533
299.833
300.137
300.399
300.569
300.607
300.502
300.274
299.967
299.637
299.328
299.07
298.874
298.737
298.646
298.588
298.547
298.51
298.466
298.407
298.327
298.221
298.085
297.92
297.725
297.502
297.256
296.992
296.714
296.43
296.143
296.154
296.464
296.771
297.071
297.357
297.625
297.869
298.085
298.27
298.425
298.55
298.648
298.72
298.771
298.802
298.817
298.819
298.811
298.795
298.774
298.752
298.733
298.724
298.729
298.757
298.817
298.918
299.068
299.271
299.523
299.807
300.094
300.339
300.496
300.529
300.427
300.211
299.923
299.614
299.327
299.088
298.908
298.783
298.703
298.653
298.618
298.586
298.546
298.49
298.412
298.307
298.171
298.002
297.801
297.571
297.315
297.039
296.749
296.451
296.15
296.161
296.484
296.804
297.116
297.414
297.691
297.941
298.161
298.348
298.503
298.627
298.722
298.791
298.838
298.866
298.879
298.878
298.867
298.848
298.825
298.801
298.78
298.767
298.77
298.794
298.849
298.944
299.086
299.278
299.517
299.785
300.055
300.284
300.429
300.457
300.36
300.157
299.887
299.599
299.332
299.111
298.945
298.832
298.76
298.716
298.687
298.659
298.624
298.571
298.496
298.391
298.255
298.084
297.878
297.64
297.375
297.087
296.784
296.472
296.157
296.168
296.504
296.837
297.162
297.47
297.755
298.011
298.235
298.423
298.577
298.699
298.791
298.857
298.9
298.925
298.934
298.931
298.918
298.897
298.872
298.847
298.824
298.81
298.81
298.831
298.882
298.972
299.106
299.288
299.513
299.767
300.019
300.233
300.367
300.392
300.3
300.11
299.859
299.59
299.342
299.137
298.985
298.881
298.817
298.779
298.754
298.73
298.698
298.649
298.576
298.474
298.337
298.164
297.954
297.71
297.435
297.135
296.819
296.493
296.164
296.175
296.524
296.871
297.207
297.525
297.819
298.08
298.306
298.495
298.648
298.767
298.855
298.918
298.958
298.979
298.985
298.979
298.964
298.942
298.916
298.889
298.866
298.85
298.848
298.868
298.916
299
299.127
299.3
299.513
299.751
299.987
300.186
300.31
300.332
300.246
300.069
299.835
299.586
299.356
299.166
299.025
298.93
298.872
298.839
298.818
298.799
298.77
298.725
298.654
298.554
298.418
298.244
298.03
297.779
297.495
297.184
296.855
296.515
296.172
296.181
296.544
296.904
297.252
297.58
297.881
298.148
298.376
298.564
298.715
298.831
298.916
298.974
299.01
299.028
299.032
299.024
299.006
298.983
298.956
298.929
298.905
298.889
298.886
298.904
298.949
299.029
299.149
299.313
299.513
299.737
299.958
300.143
300.258
300.278
300.198
300.033
299.817
299.586
299.373
299.197
299.066
298.979
298.927
298.898
298.88
298.864
298.839
298.797
298.73
298.631
298.497
298.322
298.105
297.848
297.556
297.233
296.891
296.537
296.179
296.188
296.565
296.937
297.296
297.635
297.943
298.213
298.443
298.631
298.779
298.891
298.972
299.026
299.058
299.073
299.074
299.064
299.045
299.021
298.993
298.965
298.941
298.925
298.922
298.939
298.982
299.058
299.172
299.326
299.515
299.725
299.931
300.103
300.21
300.228
300.154
300.003
299.803
299.589
299.392
299.228
299.108
299.027
298.979
298.954
298.94
298.926
298.904
298.865
298.802
298.706
298.573
298.399
298.18
297.917
297.616
297.283
296.927
296.559
296.186
296.195
296.585
296.97
297.341
297.688
298.003
298.277
298.508
298.695
298.84
298.948
299.024
299.074
299.103
299.114
299.112
299.1
299.08
299.055
299.027
299
298.976
298.96
298.957
298.973
299.014
299.086
299.195
299.341
299.519
299.715
299.907
300.067
300.165
300.183
300.115
299.976
299.792
299.595
299.412
299.261
299.148
299.074
299.03
299.008
298.996
298.985
298.967
298.931
298.871
298.778
298.648
298.473
298.253
297.986
297.676
297.333
296.964
296.581
296.194
296.202
296.605
297.002
297.385
297.742
298.062
298.34
298.571
298.756
298.897
299.001
299.073
299.118
299.143
299.152
299.147
299.133
299.112
299.087
299.059
299.032
299.008
298.993
298.99
299.006
299.045
299.114
299.218
299.355
299.522
299.706
299.885
300.033
300.124
300.141
300.08
299.952
299.784
299.602
299.433
299.293
299.189
299.119
299.079
299.059
299.05
299.042
299.026
298.993
298.936
298.848
298.72
298.546
298.324
298.053
297.737
297.382
297.001
296.604
296.201
296.208
296.625
297.035
297.429
297.794
298.121
298.401
298.632
298.814
298.952
299.051
299.118
299.159
299.181
299.186
299.179
299.164
299.142
299.116
299.088
299.062
299.039
299.025
299.022
299.037
299.076
299.142
299.24
299.37
299.527
299.698
299.864
300.002
300.087
300.103
300.048
299.932
299.778
299.611
299.455
299.325
299.228
299.164
299.127
299.109
299.101
299.095
299.081
299.052
298.999
298.914
298.789
298.617
298.395
298.12
297.796
297.432
297.038
296.626
296.209
296.215
296.645
297.068
297.473
297.847
298.178
298.461
298.691
298.87
299.003
299.098
299.16
299.197
299.215
299.217
299.208
299.191
299.169
299.143
299.116
299.09
299.068
299.055
299.053
299.068
299.106
299.169
299.263
299.385
299.532
299.692
299.846
299.973
300.052
300.069
300.019
299.914
299.774
299.621
299.477
299.357
299.267
299.206
299.172
299.156
299.15
299.145
299.134
299.108
299.058
298.977
298.855
298.686
298.463
298.186
297.856
297.481
297.075
296.649
296.216
296.222
296.665
297.1
297.516
297.898
298.235
298.519
298.747
298.923
299.052
299.142
299.199
299.232
299.246
299.246
299.235
299.217
299.194
299.168
299.141
299.117
299.096
299.084
299.083
299.098
299.135
299.196
299.285
299.4
299.538
299.686
299.829
299.947
300.021
300.037
299.993
299.899
299.771
299.631
299.499
299.388
299.304
299.248
299.216
299.201
299.196
299.193
299.184
299.16
299.114
299.037
298.919
298.752
298.53
298.25
297.914
297.531
297.112
296.672
296.224
296.228
296.685
297.133
297.559
297.949
298.29
298.575
298.802
298.974
299.099
299.183
299.236
299.264
299.275
299.272
299.26
299.241
299.217
299.191
299.166
299.142
299.123
299.112
299.112
299.128
299.163
299.222
299.306
299.415
299.544
299.682
299.814
299.923
299.992
300.008
299.97
299.885
299.769
299.642
299.521
299.418
299.34
299.288
299.258
299.244
299.24
299.238
299.231
299.21
299.167
299.093
298.979
298.816
298.595
298.313
297.972
297.58
297.148
296.694
296.231
296.235
296.705
297.165
297.602
298
298.345
298.63
298.855
299.023
299.142
299.222
299.27
299.294
299.301
299.296
299.282
299.262
299.239
299.214
299.189
299.166
299.149
299.139
299.14
299.156
299.191
299.248
299.328
299.43
299.55
299.678
299.801
299.902
299.965
299.982
299.948
299.873
299.769
299.654
299.543
299.448
299.376
299.327
299.298
299.285
299.282
299.281
299.275
299.256
299.217
299.147
299.037
298.877
298.658
298.375
298.029
297.628
297.185
296.717
296.239
296.242
296.725
297.197
297.644
298.049
298.398
298.683
298.906
299.069
299.184
299.258
299.301
299.322
299.326
299.319
299.304
299.283
299.26
299.235
299.211
299.19
299.174
299.165
299.168
299.184
299.219
299.273
299.349
299.445
299.557
299.676
299.789
299.882
299.941
299.957
299.929
299.862
299.769
299.665
299.564
299.477
299.41
299.364
299.337
299.325
299.322
299.321
299.317
299.3
299.264
299.198
299.092
298.935
298.718
298.435
298.085
297.676
297.221
296.739
296.247
296.248
296.744
297.229
297.686
298.098
298.45
298.735
298.954
299.114
299.223
299.292
299.331
299.348
299.349
299.34
299.324
299.303
299.279
299.256
299.233
299.213
299.198
299.192
299.195
299.212
299.246
299.298
299.37
299.46
299.564
299.674
299.778
299.864
299.919
299.935
299.911
299.852
299.769
299.676
299.584
299.505
299.442
299.399
299.374
299.362
299.359
299.359
299.356
299.341
299.308
299.246
299.144
298.991
298.777
298.493
298.14
297.723
297.257
296.762
296.254
296.255
296.764
297.261
297.727
298.145
298.5
298.785
299.001
299.155
299.259
299.324
299.358
299.372
299.371
299.36
299.343
299.322
299.299
299.276
299.254
299.236
299.223
299.218
299.222
299.24
299.273
299.323
299.391
299.475
299.572
299.673
299.769
299.848
299.899
299.915
299.895
299.844
299.77
299.687
299.604
299.531
299.474
299.434
299.41
299.398
299.396
299.396
299.393
299.38
299.349
299.291
299.193
299.044
298.833
298.55
298.193
297.769
297.293
296.784
296.262
296.261
296.783
297.292
297.768
298.191
298.549
298.832
299.045
299.195
299.294
299.353
299.384
299.395
299.391
299.379
299.361
299.34
299.318
299.296
299.276
299.259
299.248
299.244
299.249
299.267
299.299
299.348
299.412
299.491
299.58
299.673
299.761
299.833
299.88
299.897
299.88
299.836
299.771
299.697
299.623
299.557
299.504
299.467
299.444
299.433
299.43
299.43
299.428
299.416
299.388
299.333
299.239
299.095
298.886
298.604
298.245
297.814
297.327
296.805
296.269
296.268
296.802
297.322
297.807
298.236
298.595
298.878
299.087
299.232
299.326
299.381
299.408
299.416
299.411
299.398
299.38
299.359
299.337
299.316
299.297
299.282
299.272
299.27
299.277
299.295
299.326
299.372
299.433
299.506
299.589
299.674
299.754
299.82
299.864
299.88
299.867
299.829
299.772
299.707
299.64
299.581
299.533
299.498
299.476
299.466
299.463
299.463
299.461
299.45
299.424
299.372
299.283
299.142
298.937
298.656
298.295
297.858
297.362
296.827
296.276
296.274
296.82
297.351
297.845
298.279
298.64
298.921
299.127
299.267
299.357
299.408
299.431
299.437
299.43
299.416
299.398
299.378
299.357
299.337
299.32
299.306
299.298
299.297
299.304
299.323
299.353
299.397
299.454
299.522
299.598
299.676
299.748
299.809
299.849
299.864
299.855
299.822
299.773
299.716
299.657
299.603
299.56
299.528
299.507
299.497
299.494
299.494
299.492
299.482
299.458
299.409
299.323
299.187
298.985
298.706
298.343
297.901
297.395
296.848
296.283
296.28
296.838
297.379
297.881
298.32
298.682
298.962
299.164
299.3
299.385
299.432
299.453
299.457
299.449
299.435
299.417
299.397
299.377
299.359
299.343
299.331
299.324
299.324
299.333
299.351
299.381
299.422
299.475
299.538
299.607
299.678
299.744
299.798
299.835
299.851
299.843
299.816
299.774
299.724
299.672
299.625
299.585
299.556
299.537
299.527
299.523
299.523
299.521
299.512
299.489
299.443
299.361
299.229
299.031
298.754
298.39
297.942
297.427
296.868
296.29
296.286
296.855
297.406
297.915
298.359
298.722
299
299.199
299.331
299.412
299.456
299.474
299.476
299.468
299.453
299.436
299.417
299.398
299.381
299.367
299.356
299.351
299.352
299.361
299.38
299.408
299.447
299.496
299.554
299.617
299.681
299.741
299.79
299.823
299.838
299.833
299.811
299.775
299.732
299.687
299.645
299.609
299.583
299.565
299.555
299.551
299.55
299.548
299.54
299.519
299.475
299.396
299.268
299.074
298.799
298.434
297.982
297.458
296.888
296.297
296.291
296.87
297.431
297.947
298.395
298.759
299.035
299.231
299.359
299.437
299.478
299.494
299.495
299.487
299.472
299.456
299.438
299.42
299.405
299.392
299.383
299.379
299.381
299.391
299.409
299.436
299.472
299.518
299.57
299.627
299.685
299.738
299.782
299.813
299.827
299.824
299.806
299.776
299.739
299.7
299.663
299.632
299.608
299.591
299.582
299.578
299.576
299.574
299.566
299.546
299.504
299.429
299.304
299.114
298.841
298.475
298.019
297.488
296.906
296.303
296.296
296.885
297.454
297.976
298.428
298.793
299.068
299.26
299.385
299.46
299.499
299.514
299.514
299.506
299.492
299.476
299.459
299.444
299.429
299.418
299.41
299.408
299.411
299.42
299.438
299.464
299.497
299.539
299.587
299.638
299.689
299.736
299.776
299.803
299.817
299.815
299.801
299.776
299.745
299.711
299.68
299.652
299.631
299.616
299.607
299.603
299.601
299.598
299.59
299.571
299.531
299.459
299.338
299.15
298.88
298.514
298.055
297.516
296.924
296.309
296.3
296.898
297.474
298.003
298.458
298.823
299.097
299.287
299.409
299.481
299.518
299.533
299.533
299.525
299.512
299.497
299.482
299.468
299.455
299.445
299.439
299.437
299.441
299.451
299.467
299.491
299.523
299.56
299.603
299.649
299.694
299.736
299.77
299.795
299.807
299.808
299.796
299.776
299.75
299.722
299.695
299.671
299.652
299.638
299.63
299.626
299.624
299.621
299.613
299.594
299.556
299.486
299.368
299.184
298.916
298.55
298.088
297.542
296.941
296.315
296.304
296.909
297.492
298.025
298.483
298.849
299.122
299.31
299.431
299.501
299.537
299.551
299.551
299.544
299.532
299.519
299.505
299.492
299.481
299.473
299.468
299.467
299.471
299.481
299.497
299.519
299.547
299.581
299.619
299.659
299.699
299.736
299.766
299.788
299.799
299.801
299.792
299.776
299.755
299.731
299.708
299.688
299.671
299.659
299.652
299.647
299.645
299.641
299.634
299.615
299.578
299.51
299.395
299.214
298.948
298.583
298.118
297.566
296.956
296.32
296.308
296.918
297.507
298.044
298.504
298.871
299.143
299.33
299.45
299.519
299.555
299.569
299.569
299.563
299.553
299.541
299.529
299.518
299.508
299.501
299.498
299.498
299.502
299.511
299.526
299.546
299.572
299.602
299.635
299.67
299.705
299.736
299.763
299.782
299.792
299.794
299.788
299.775
299.758
299.739
299.72
299.703
299.689
299.678
299.671
299.667
299.664
299.661
299.653
299.635
299.598
299.532
299.42
299.241
298.977
298.612
298.144
297.588
296.97
296.325
296.31
296.926
297.518
298.059
298.521
298.888
299.16
299.347
299.466
299.535
299.571
299.585
299.587
299.582
299.573
299.563
299.553
299.543
299.536
299.53
299.527
299.528
299.532
299.541
299.555
299.573
299.595
299.621
299.65
299.681
299.71
299.737
299.76
299.777
299.786
299.789
299.784
299.775
299.761
299.746
299.73
299.716
299.704
299.695
299.689
299.685
299.682
299.678
299.67
299.652
299.617
299.552
299.441
299.265
299.002
298.638
298.168
297.606
296.982
296.329
296.312
296.93
297.525
298.068
298.532
298.9
299.173
299.36
299.479
299.549
299.586
299.601
299.605
299.601
299.594
299.585
299.577
299.569
299.562
299.558
299.556
299.557
299.562
299.57
299.582
299.598
299.618
299.64
299.665
299.691
299.716
299.739
299.758
299.772
299.781
299.784
299.781
299.774
299.764
299.752
299.739
299.728
299.718
299.71
299.705
299.701
299.698
299.694
299.686
299.668
299.632
299.568
299.459
299.284
299.023
298.658
298.187
297.622
296.993
296.333
296.313
296.933
297.529
298.073
298.537
298.906
299.18
299.368
299.489
299.561
299.599
299.616
299.621
299.619
299.614
299.607
299.6
299.594
299.588
299.585
299.584
299.586
299.59
299.598
299.608
299.622
299.639
299.658
299.679
299.701
299.722
299.741
299.757
299.769
299.777
299.78
299.778
299.773
299.766
299.756
299.747
299.738
299.73
299.724
299.719
299.716
299.713
299.709
299.7
299.681
299.646
299.582
299.473
299.299
299.038
298.674
298.202
297.634
297.001
296.336
296.312
296.932
297.528
298.071
298.536
298.906
299.181
299.372
299.495
299.57
299.611
299.63
299.637
299.637
299.633
299.628
299.622
299.617
299.613
299.611
299.611
299.612
299.617
299.623
299.633
299.645
299.659
299.675
299.692
299.71
299.727
299.743
299.756
299.766
299.773
299.776
299.776
299.773
299.767
299.76
299.753
299.747
299.741
299.736
299.732
299.73
299.727
299.722
299.712
299.693
299.657
299.592
299.483
299.309
299.049
298.685
298.212
297.643
297.006
296.338
296.311
296.929
297.522
298.064
298.528
298.899
299.176
299.37
299.497
299.575
299.62
299.642
299.652
299.654
299.651
299.648
299.643
299.639
299.636
299.635
299.635
299.637
299.641
299.647
299.655
299.665
299.677
299.69
299.704
299.719
299.733
299.746
299.756
299.765
299.771
299.774
299.774
299.772
299.769
299.764
299.76
299.755
299.751
299.747
299.745
299.742
299.739
299.734
299.723
299.703
299.665
299.599
299.488
299.314
299.053
298.69
298.217
297.647
297.009
296.339
296.309
296.923
297.512
298.051
298.513
298.885
299.164
299.362
299.494
299.577
299.626
299.653
299.665
299.669
299.669
299.666
299.663
299.66
299.658
299.657
299.657
299.659
299.663
299.668
299.675
299.684
299.693
299.704
299.716
299.727
299.738
299.749
299.758
299.765
299.77
299.773
299.774
299.774
299.772
299.769
299.766
299.763
299.761
299.759
299.757
299.754
299.751
299.745
299.733
299.71
299.67
299.602
299.489
299.312
299.051
298.688
298.216
297.647
297.01
296.339
296.307
296.914
297.498
298.031
298.491
298.862
299.144
299.347
299.485
299.575
299.629
299.661
299.677
299.684
299.685
299.684
299.681
299.679
299.677
299.676
299.676
299.678
299.681
299.686
299.692
299.699
299.707
299.716
299.726
299.735
299.744
299.753
299.76
299.766
299.771
299.774
299.776
299.777
299.776
299.775
299.774
299.773
299.772
299.77
299.769
299.766
299.762
299.754
299.74
299.715
299.672
299.599
299.483
299.304
299.042
298.679
298.209
297.643
297.008
296.339
296.303
296.903
297.479
298.006
298.461
298.831
299.116
299.324
299.469
299.566
299.628
299.666
299.687
299.697
299.701
299.701
299.699
299.696
299.694
299.693
299.693
299.694
299.697
299.701
299.706
299.712
299.719
299.727
299.735
299.743
299.751
299.758
299.764
299.77
299.775
299.778
299.781
299.783
299.784
299.784
299.785
299.785
299.784
299.783
299.782
299.778
299.773
299.762
299.745
299.716
299.668
299.591
299.471
299.288
299.025
298.663
298.196
297.634
297.003
296.337
296.298
296.889
297.456
297.974
298.423
298.791
299.078
299.292
299.445
299.552
299.622
299.668
299.695
299.709
299.716
299.717
299.716
299.713
299.71
299.708
299.707
299.707
299.708
299.711
299.716
299.721
299.728
299.735
299.742
299.749
299.757
299.764
299.771
299.777
299.782
299.786
299.79
299.793
299.796
299.798
299.799
299.8
299.799
299.798
299.795
299.79
299.782
299.768
299.746
299.712
299.659
299.576
299.451
299.265
299
298.64
298.178
297.622
296.996
296.335
296.293
296.874
297.429
297.937
298.378
298.742
299.031
299.25
299.413
299.529
299.61
299.665
299.7
299.721
299.731
299.735
299.734
299.731
299.727
299.722
299.719
299.717
299.717
299.719
299.722
299.726
299.732
299.739
299.747
299.755
299.763
299.771
299.779
299.787
299.793
299.8
299.805
299.81
299.813
299.816
299.818
299.819
299.818
299.815
299.81
299.801
299.789
299.77
299.743
299.702
299.643
299.554
299.423
299.233
298.968
298.611
298.155
297.607
296.989
296.333
296.289
296.858
297.401
297.896
298.327
298.686
298.975
299.2
299.371
299.499
299.592
299.658
299.702
299.731
299.747
299.754
299.754
299.751
299.745
299.739
299.732
299.727
299.724
299.723
299.723
299.726
299.731
299.738
299.747
299.757
299.767
299.778
299.789
299.8
299.81
299.819
299.826
299.833
299.838
299.841
299.843
299.842
299.839
299.832
299.823
299.81
299.792
299.767
299.733
299.686
299.619
299.524
299.388
299.195
298.93
298.578
298.131
297.594
296.984
296.332
296.285
296.844
297.373
297.853
298.272
298.625
298.913
299.143
299.323
299.462
299.568
299.646
299.702
299.74
299.763
299.775
299.778
299.775
299.768
299.758
299.748
299.739
299.731
299.725
299.721
299.721
299.725
299.731
299.741
299.753
299.767
299.783
299.799
299.815
299.83
299.843
299.855
299.863
299.869
299.873
299.872
299.869
299.861
299.85
299.835
299.815
299.789
299.757
299.716
299.663
299.59
299.489
299.349
299.155
298.893
298.548
298.112
297.587
296.986
296.335
296.286
296.836
297.35
297.814
298.22
298.564
298.85
299.084
299.272
299.423
299.542
299.634
299.702
299.751
299.783
299.8
299.807
299.805
299.797
299.784
299.77
299.754
299.74
299.727
299.717
299.712
299.711
299.716
299.726
299.742
299.761
299.784
299.808
299.832
299.855
299.874
299.89
299.902
299.908
299.91
299.907
299.899
299.885
299.866
299.843
299.814
299.781
299.741
299.694
299.634
299.557
299.454
299.313
299.121
298.865
298.53
298.108
297.597
297.005
296.348
296.302
296.846
297.344
297.79
298.181
298.516
298.798
299.033
299.228
299.389
299.52
299.626
299.708
299.768
299.808
299.833
299.843
299.843
299.834
299.818
299.798
299.775
299.752
299.731
299.712
299.699
299.692
299.692
299.702
299.72
299.747
299.779
299.815
299.85
299.883
299.911
299.933
299.948
299.955
299.954
299.946
299.931
299.909
299.881
299.847
299.809
299.767
299.721
299.668
299.606
299.529
299.429
299.293
299.109
298.863
298.541
298.136
297.643
297.062
296.391
)
;

boundaryField
{
    bottomwall
    {
        type            ConvRadQin;
        hinf            60{50};
        Tinf            60{305};
        Kappa           60{2.2989};
        qr              qr;
        qin             qin;
        qem             qem;
        UnitVector      (1 1 1);
        value           nonuniform List<scalar> 
60
(
298.638
299.897
300.607
301.045
301.333
301.533
301.678
301.789
301.877
301.952
302.017
302.078
302.136
302.191
302.246
302.3
302.354
302.409
302.465
302.523
302.582
302.642
302.704
302.767
302.831
302.899
302.972
303.051
303.137
303.23
303.323
303.41
303.483
303.544
303.603
303.686
303.831
304.076
304.449
304.953
305.565
306.238