/*--------------------------------*- C++ -*----------------------------------*\
| =========                 |                                                 |
| \\      /  F ield         | OpenFOAM: The Open Source CFD Toolbox           |
|  \\    /   O peration     | Version:  2406                                  |
|   \\  /    A nd           | Website:  www.openfoam.com                      |
|    \\/     M anipulation  |                                                 |
\*---------------------------------------------------------------------------*/
FoamFile
{
    version     2.0;
    format      ascii;
    arch        "LSB;label=32;scalar=64";
    class       volScalarField;
    location    "20000";
    object      totalWallHeatFlux;
}
// * * * * * * * * * * * * * * * * * * * * * * * * * * * * * * * * * * * * * //

dimensions      [1 0 -3 0 0 0 0];

internalField   uniform 0;

boundaryField
{
    bottomwall
    {
        type            calculated;
        value           nonuniform List<scalar> 
60
(
318.082
255.147
219.657
197.772
183.363
173.37
166.106
160.572
156.144
152.419
149.126
146.094
143.221
140.443
137.719
135.014
132.296
129.54
126.73
123.855
120.911
117.899
114.82
111.672
108.43
105.041
101.415
97.46
93.1311
88.5112
83.8508
79.5217
75.8454
72.8232
69.8666
65.6812
58.4252
46.1755
27.5672
2.36299
-28.2709
-61.9047
-95.3516
-125.343
-149.128
-164.812
-171.398
-168.612
-156.666
-136.091
-107.693
-72.6047
-32.3305
11.3112
56.4288
101.525
146.187
192.056
244.85
319.06
)
;
    }
    topwall
    {
        type            calculated;
        value           nonuniform List<scalar> 
60
(
1.33923e-06
4.03085e-06
8.98028e-07
-7.3025e-08
1.25385e-08
2.62872e-06
-1.59833e-06
-2.66186e-06
4.25806e-06
4.15479e-06
-3.39917e-08
-3.92146e-06
2.70339e-06
4.64805e-06
4.84622e-06
-4.10807e-06
-3.29207e-06
-3.89054e-06
-1.05282e-08
1.87848e-06
2.6125e-06
4.98537e-06
-4.2619e-07
-1.91493e-07
9.28162e-08
-1.51927e-06
4.87102e-06
2.27983e-06
-3.48324e-06
1.69512e-06
-1.15771e-06
-1.75448e-07
-4.93075e-07
2.59986e-07
-1.16976e-06
3.63023e-06
-2.02758e-06
3.9325e-06
3.00064e-06
-4.33276e-06
4.83508e-06
-9.14218e-07
-2.9813e-06
1.13323e-06
1.18716e-07
-2.02839e-07
2.75793e-06
-4.30588e-06
1.25557e-06
-1.20039e-06
4.80783e-06
6.13901e-08
1.04281e-06
-3.45089e-06
3.93902e-06
-1.7103e-07
4.83341e-05
-3.38402e-05
4.52515e-06
-1.059e-05
)
;
    }
    coldwall
    {
        type            calculated;
        value           nonuniform List<scalar> 
48
(
-429.047
-232.433
-150.653
-108.216
-83.7531
-69.9724
-62.681
-58.0463
-53.379
-48.299
-44.1901
-42.404
-43.0381
-45.1315
-47.5933
-49.8526
-51.9025
-54.0266
-56.5359
-59.62
-63.2703
-67.2511
-71.1413
-74.4536
-76.7944
-77.9978
-78.175
-77.6685
-76.9356
-76.4143
-76.4165
-77.0806
-78.3832
-80.1947
-82.3467
-84.6903
-87.1246
-89.5988
-92.0945
-94.6014
-97.0987
-99.5458
-101.036
-97.8853
-94.7592
-91.8614
-89.8648
-91.0833
)
;
    }
    radinlet
    {
        type            calculated;
        value           nonuniform List<scalar> 
12
(
451.199
449.065
447.236
445.814
444.865
444.366
444.214
444.309
444.668
445.468
446.939
449.181
)
;
    }
    hotwall
    {
        type            calculated;
        value           nonuniform List<scalar> 
60
(
-425.444
-236.619
-165.745
-125.473
-103.206
-89.8884
-81.1572
-73.9497
-67.4463
-61.9875
-58.2273
-56.5062
-56.6079
-57.8766
-59.5623
-61.133
-62.3822
-63.3503
-64.1857
-65.0413
-66.029
-67.2102
-68.5997
-70.1744
-71.8835
-73.6606
-75.4368
-77.1569
-78.7941
-80.3595
-81.8987
-83.474
-85.1376
-86.9095
-88.7679
-90.658
-92.5131
-94.2775
-95.9219
-97.4475
-98.8785
-100.249
-101.589
-102.905
-104.168
-105.324
-106.33
-107.205
-108.044
-108.949
-109.892
-110.661
-110.965
-110.657
-109.85
-108.813
-107.851
-107.503
-109.436
-118.688
)
;
    }
    frontAndback
    {
        type            empty;
    }
}


// ************************************************************************* //
