/*--------------------------------*- C++ -*----------------------------------*\
| =========                 |                                                 |
| \\      /  F ield         | OpenFOAM: The Open Source CFD Toolbox           |
|  \\    /   O peration     | Version:  2406                                  |
|   \\  /    A nd           | Website:  www.openfoam.com                      |
|    \\/     M anipulation  |                                                 |
\*---------------------------------------------------------------------------*/
FoamFile
{
    version     2.0;
    format      ascii;
    arch        "LSB;label=32;scalar=64";
    class       volVectorField;
    location    "20000";
    object      U;
}
// * * * * * * * * * * * * * * * * * * * * * * * * * * * * * * * * * * * * * //

dimensions      [0 1 -1 0 0 0 0];

internalField   nonuniform List<vector> 
3600
(
(0.000732055 -0.000719402 0)
(0.0025165 -0.000678515 0)
(0.00437128 -0.000447756 0)
(0.0058986 -0.000315304 0)
(0.00732 -0.000275957 0)
(0.00873453 -0.000285372 0)
(0.0101914 -0.000310099 0)
(0.0116916 -0.000330504 0)
(0.0132054 -0.000337078 0)
(0.0146873 -0.000326516 0)
(0.016087 -0.000299149 0)
(0.017356 -0.000257399 0)
(0.0184531 -0.000204773 0)
(0.0193465 -0.00014518 0)
(0.020015 -8.24302e-05 0)
(0.0204482 -1.99113e-05 0)
(0.0206456 3.95766e-05 0)
(0.0206149 9.38269e-05 0)
(0.0203707 0.000141255 0)
(0.0199329 0.000180926 0)
(0.0193249 0.000212303 0)
(0.0185728 0.000235131 0)
(0.0177036 0.000249403 0)
(0.016745 0.000255389 0)
(0.015723 0.000253818 0)
(0.0146609 0.000246202 0)
(0.0135753 0.000235197 0)
(0.0124734 0.00022475 0)
(0.0113486 0.000219731 0)
(0.0101789 0.000224824 0)
(0.00892913 0.000242843 0)
(0.00755745 0.000273186 0)
(0.00602666 0.000311587 0)
(0.00431497 0.000351962 0)
(0.0024209 0.000390037 0)
(0.000358538 0.000425874 0)
(-0.00185249 0.000464349 0)
(-0.00419364 0.000511683 0)
(-0.00664425 0.000569465 0)
(-0.00917125 0.000631606 0)
(-0.0117188 0.00068581 0)
(-0.0142053 0.000717824 0)
(-0.0165309 0.00071621 0)
(-0.0185911 0.000675554 0)
(-0.0202918 0.000597247 0)
(-0.0215616 0.000488125 0)
(-0.0223572 0.000357874 0)
(-0.0226636 0.000216457 0)
(-0.0224905 7.31549e-05 0)
(-0.021868 -6.47042e-05 0)
(-0.0208401 -0.000191937 0)
(-0.0194595 -0.000304904 0)
(-0.0177836 -0.000401476 0)
(-0.0158685 -0.000482065 0)
(-0.013762 -0.000552144 0)
(-0.0114908 -0.00062605 0)
(-0.00904973 -0.00072924 0)
(-0.00641139 -0.000891011 0)
(-0.00344468 -0.00108213 0)
(-0.000922101 -0.000937176 0)
(0.000722884 -0.00255165 0)
(0.00333797 -0.00331349 0)
(0.007121 -0.00308163 0)
(0.0109512 -0.00283647 0)
(0.0148311 -0.00274627 0)
(0.0187553 -0.00276855 0)
(0.0227302 -0.00282717 0)
(0.0267302 -0.00286036 0)
(0.0306947 -0.0028294 0)
(0.03454 -0.00271564 0)
(0.0381723 -0.00251548 0)
(0.0414989 -0.0022359 0)
(0.044436 -0.00189058 0)
(0.046915 -0.00149687 0)
(0.048885 -0.00107335 0)
(0.0503144 -0.000638025 0)
(0.0511899 -0.000207172 0)
(0.0515156 0.000205265 0)
(0.05131 0.000588125 0)
(0.0506048 0.000933073 0)
(0.0494412 0.00123429 0)
(0.0478672 0.00148806 0)
(0.0459353 0.00169277 0)
(0.0437 0.00184922 0)
(0.0412136 0.00196138 0)
(0.0385229 0.00203768 0)
(0.0356627 0.00209237 0)
(0.0326496 0.00214611 0)
(0.0294747 0.00222446 0)
(0.026099 0.00235325 0)
(0.0224557 0.00255102 0)
(0.0184599 0.00282089 0)
(0.0140296 0.00314662 0)
(0.00910971 0.00349684 0)
(0.00369177 0.00383767 0)
(-0.00217962 0.00414433 0)
(-0.00840971 0.00440517 0)
(-0.014866 0.00461259 0)
(-0.0213833 0.00474936 0)
(-0.0277666 0.00478355 0)
(-0.0337985 0.00467648 0)
(-0.0392566 0.00439715 0)
(-0.043936 0.0039346 0)
(-0.0476709 0.00330253 0)
(-0.0503486 0.00253582 0)
(-0.0519134 0.00168184 0)
(-0.0523635 0.000790472 0)
(-0.0517413 -9.26274e-05 0)
(-0.0501273 -0.000929781 0)
(-0.0476263 -0.0016927 0)
(-0.0443591 -0.00236306 0)
(-0.0404542 -0.00293116 0)
(-0.0360399 -0.00339626 0)
(-0.0312354 -0.00376879 0)
(-0.0261428 -0.00407383 0)
(-0.0208414 -0.00435195 0)
(-0.0154021 -0.00464495 0)
(-0.00994447 -0.00493414 0)
(-0.00460671 -0.00493339 0)
(-0.000983172 -0.00342958 0)
(0.000411272 -0.00439729 0)
(0.0028045 -0.00705126 0)
(0.00714729 -0.0076521 0)
(0.0121735 -0.00774298 0)
(0.017643 -0.00780991 0)
(0.0233657 -0.00792664 0)
(0.029231 -0.0080323 0)
(0.0351411 -0.00804563 0)
(0.0409888 -0.00790426 0)
(0.0466576 -0.0075739 0)
(0.0520277 -0.00704639 0)
(0.0569836 -0.00633409 0)
(0.061421 -0.00546375 0)
(0.0652519 -0.00447074 0)
(0.0684077 -0.00339441 0)
(0.0708403 -0.00227427 0)
(0.0725223 -0.00114746 0)
(0.073446 -4.69406e-05 0)
(0.073621 0.000998959 0)
(0.0730727 0.00196779 0)
(0.0718396 0.00284295 0)
(0.0699702 0.00361302 0)
(0.0675201 0.00427196 0)
(0.0645483 0.00481989 0)
(0.0611139 0.00526475 0)
(0.0572703 0.00562483 0)
(0.053059 0.00593164 0)
(0.0485011 0.00623131 0)
(0.0435885 0.00658201 0)
(0.0382772 0.00704474 0)
(0.0324873 0.00766689 0)
(0.0261143 0.00846244 0)
(0.0190559 0.00939803 0)
(0.0112496 0.010395 0)
(0.00270792 0.0113513 0)
(-0.00645921 0.0121668 0)
(-0.0160401 0.0127622 0)
(-0.025746 0.0130751 0)
(-0.035235 0.0130465 0)
(-0.0441461 0.0126209 0)
(-0.0521355 0.0117613 0)
(-0.058912 0.0104678 0)
(-0.0642636 0.00878569 0)
(-0.0680683 0.00679983 0)
(-0.0702897 0.00461873 0)
(-0.0709627 0.00235612 0)
(-0.0701749 0.000116225 0)
(-0.0680525 -0.0020128 0)
(-0.0647467 -0.00396271 0)
(-0.0604204 -0.00568788 0)
(-0.0552437 -0.00716116 0)
(-0.0493886 -0.00837218 0)
(-0.0430238 -0.00932752 0)
(-0.0363113 -0.0100518 0)
(-0.0294047 -0.0105859 0)
(-0.0224567 -0.0109726 0)
(-0.0156512 -0.0112087 0)
(-0.00928274 -0.0111098 0)
(-0.00371106 -0.00999409 0)
(-0.000575979 -0.00596629 0)
(0.000171277 -0.00564072 0)
(0.00210757 -0.0104324 0)
(0.00629405 -0.0124629 0)
(0.0116833 -0.013425 0)
(0.0179329 -0.0140148 0)
(0.0247155 -0.0144348 0)
(0.0318028 -0.0146836 0)
(0.0390095 -0.0147005 0)
(0.0461701 -0.0144279 0)
(0.0531307 -0.0138338 0)
(0.0597483 -0.0129154 0)
(0.0658929 -0.0116956 0)
(0.0714504 -0.0102158 0)
(0.0763251 -0.00852957 0)
(0.0804409 -0.00669594 0)
(0.0837416 -0.00477475 0)
(0.0861901 -0.00282283 0)
(0.0877673 -0.000891569 0)
(0.0884709 0.000974098 0)
(0.088312 0.00273687 0)
(0.0873155 0.00436779 0)
(0.0855165 0.00584604 0)
(0.0829577 0.00715925 0)
(0.0796865 0.00830482 0)
(0.0757516 0.00929256 0)
(0.0711984 0.0101486 0)
(0.066062 0.01092 0)
(0.0603597 0.0116773 0)
(0.0540816 0.0125116 0)
(0.0471824 0.0135215 0)
(0.0395808 0.0147865 0)
(0.0311719 0.0163319 0)
(0.0218587 0.0180997 0)
(0.0116018 0.0199419 0)
(0.000468443 0.0216509 0)
(-0.0113295 0.0230015 0)
(-0.0234332 0.0238047 0)
(-0.0353854 0.0239231 0)
(-0.0466849 0.0232677 0)
(-0.0568545 0.0218027 0)
(-0.0655003 0.0195584 0)
(-0.0723516 0.0166348 0)
(-0.0772728 0.0131896 0)
(-0.0802504 0.00941211 0)
(-0.0813635 0.00549475 0)
(-0.080752 0.00160999 0)
(-0.0785867 -0.00209995 0)
(-0.0750594 -0.00552529 0)
(-0.070358 -0.00859028 0)
(-0.0646718 -0.0112462 0)
(-0.058189 -0.0134653 0)
(-0.0510982 -0.0152386 0)
(-0.0435902 -0.0165753 0)
(-0.0358594 -0.0175012 0)
(-0.0281108 -0.0180498 0)
(-0.0205722 -0.0182337 0)
(-0.0135248 -0.0179719 0)
(-0.0073669 -0.0169231 0)
(-0.00251607 -0.0141513 0)
(-0.000225251 -0.00756104 0)
(4.44427e-05 -0.0065065 0)
(0.00160208 -0.0133935 0)
(0.00542745 -0.0171581 0)
(0.0107602 -0.0193808 0)
(0.0172607 -0.0208251 0)
(0.0245418 -0.0217807 0)
(0.0322957 -0.0223114 0)
(0.0402653 -0.0223986 0)
(0.0482306 -0.0220117 0)
(0.0560012 -0.0211391 0)
(0.0634119 -0.0197964 0)
(0.0703213 -0.0180253 0)
(0.0766108 -0.0158866 0)
(0.0821839 -0.0134539 0)
(0.086965 -0.0108057 0)
(0.0908974 -0.00802076 0)
(0.0939416 -0.00517322 0)
(0.0960729 -0.00233037 0)
(0.0972803 0.000449174 0)
(0.0975618 0.0031155 0)
(0.0969262 0.00562865 0)
(0.0953899 0.00795929 0)
(0.0929748 0.0100889 0)
(0.0897071 0.0120117 0)
(0.0856138 0.0137377 0)
(0.0807199 0.0152988 0)
(0.0750432 0.0167541 0)
(0.0685873 0.0181949 0)
(0.0613337 0.0197417 0)
(0.053235 0.0215266 0)
(0.0442144 0.023657 0)
(0.0341805 0.0261621 0)
(0.023064 0.0289435 0)
(0.010877 0.0317567 0)
(-0.00223022 0.0342497 0)
(-0.0159183 0.0360306 0)
(-0.0296768 0.0367775 0)
(-0.0429003 0.0362849 0)
(-0.0549787 0.0344748 0)
(-0.0653923 0.031398 0)
(-0.0737786 0.0272237 0)
(-0.0799583 0.0222102 0)
(-0.0839194 0.0166596 0)
(-0.0857748 0.0108713 0)
(-0.0857122 0.00510663 0)
(-0.0839496 -0.000427569 0)
(-0.0807116 -0.00557779 0)
(-0.0762077 -0.0102387 0)
(-0.0706318 -0.0143428 0)
(-0.0641693 -0.017846 0)
(-0.0570035 -0.020721 0)
(-0.0493234 -0.022955 0)
(-0.04133 -0.0245483 0)
(-0.0332429 -0.0255114 0)
(-0.0253085 -0.0258515 0)
(-0.0178101 -0.0255355 0)
(-0.011085 -0.0244093 0)
(-0.0055562 -0.0220337 0)
(-0.00159794 -0.017393 0)
(-1.83881e-05 -0.008507 0)
(3.82466e-06 -0.0071593 0)
(0.00134851 -0.0159932 0)
(0.00487443 -0.0215845 0)
(0.010034 -0.0252801 0)
(0.0165338 -0.0278034 0)
(0.0239783 -0.0294771 0)
(0.0320206 -0.0304143 0)
(0.0403572 -0.0306425 0)
(0.048728 -0.0301708 0)
(0.0569133 -0.0290218 0)
(0.0647302 -0.0272417 0)
(0.0720292 -0.0249 0)
(0.0786911 -0.0220832 0)
(0.0846237 -0.0188877 0)
(0.0897574 -0.0154126 0)
(0.0940419 -0.0117538 0)
(0.0974421 -0.00800028 0)
(0.099935 -0.00423145 0)
(0.101506 -0.000515475 0)
(0.102148 0.00309021 0)
(0.101856 0.0065391 0)
(0.100628 0.00979675 0)
(0.098467 0.0128412 0)
(0.0953725 0.0156647 0)
(0.0913455 0.0182782 0)
(0.0863836 0.0207174 0)
(0.0804787 0.0230505 0)
(0.0736124 0.025384 0)
(0.0657508 0.0278605 0)
(0.0568403 0.0306365 0)
(0.0468106 0.0338356 0)
(0.0355929 0.0374754 0)
(0.0231617 0.0413948 0)
(0.00960085 0.0452233 0)
(-0.00483946 0.0484304 0)
(-0.019686 0.0504298 0)
(-0.0342954 0.0507694 0)
(-0.0479585 0.0492107 0)
(-0.0600214 0.0457499 0)
(-0.0699945 0.0405977 0)
(-0.0776083 0.0341239 0)
(-0.0828117 0.0267783 0)
(-0.0857235 0.0190107 0)
(-0.0865652 0.0112103 0)
(-0.0855978 0.00367552 0)
(-0.0830771 -0.00338564 0)
(-0.0792356 -0.00983905 0)
(-0.0742675 -0.0156041 0)
(-0.0683453 -0.0206297 0)
(-0.0616311 -0.0248776 0)
(-0.05429 -0.0283162 0)
(-0.046502 -0.0309187 0)
(-0.0384717 -0.0326634 0)
(-0.0304351 -0.0335313 0)
(-0.0226662 -0.0334921 0)
(-0.0154803 -0.0324668 0)
(-0.00923484 -0.0302518 0)
(-0.00433261 -0.026377 0)
(-0.00107265 -0.0198783 0)
(6.61565e-05 -0.00904741 0)
(1.61064e-05 -0.00774997 0)
(0.00130292 -0.0184021 0)
(0.00468158 -0.0258092 0)
(0.00971055 -0.0310578 0)
(0.0161439 -0.0347741 0)
(0.0235983 -0.0372722 0)
(0.0317138 -0.0386942 0)
(0.0401627 -0.0391091 0)
(0.0486603 -0.0385704 0)
(0.0569681 -0.0371431 0)
(0.0648922 -0.0349136 0)
(0.0722802 -0.0319871 0)
(0.0790162 -0.0284816 0)
(0.0850157 -0.0245202 0)
(0.0902196 -0.0202237 0)
(0.0945886 -0.0157052 0)
(0.0980976 -0.0110662 0)
(0.100731 -0.00639451 0)
(0.102478 -0.00176393 0)
(0.10333 0.00276574 0)
(0.103276 0.00714746 0)
(0.102304 0.0113469 0)
(0.100398 0.0153432 0)
(0.0975363 0.0191308 0)
(0.093693 0.0227237 0)
(0.0888367 0.0261621 0)
(0.0829297 0.0295213 0)
(0.0759265 0.0329183 0)
(0.0677722 0.0365086 0)
(0.0584031 0.0404608 0)
(0.0477548 0.0448973 0)
(0.0357857 0.0498022 0)
(0.0225233 0.0549257 0)
(0.00813202 0.0597425 0)
(-0.00703406 0.0635191 0)
(-0.0223807 0.0654688 0)
(-0.0371695 0.0650349 0)
(-0.050642 0.0620004 0)
(-0.062164 0.0565059 0)
(-0.0713295 0.0489849 0)
(-0.0779934 0.0400445 0)
(-0.0822349 0.0303308 0)
(-0.0842813 0.0204191 0)
(-0.0844239 0.0107512 0)
(-0.0829527 0.00162419 0)
(-0.080121 -0.00678524 0)
(-0.0761326 -0.0143845 0)
(-0.0711459 -0.0211267 0)
(-0.0652964 -0.0269778 0)
(-0.058714 -0.0319009 0)
(-0.0515403 -0.0358506 0)
(-0.0439431 -0.0387746 0)
(-0.0361258 -0.0406173 0)
(-0.0283339 -0.0413201 0)
(-0.0208566 -0.0408107 0)
(-0.0140237 -0.0389715 0)
(-0.00819238 -0.0355748 0)
(-0.00373316 -0.0301693 0)
(-0.000878456 -0.0219142 0)
(7.09917e-05 -0.00941791 0)
(5.52158e-05 -0.00837868 0)
(0.00139539 -0.0207805 0)
(0.00477468 -0.0299569 0)
(0.00976755 -0.0367582 0)
(0.0161586 -0.0416958 0)
(0.023578 -0.0450523 0)
(0.0316638 -0.046983 0)
(0.0400784 -0.0475924 0)
(0.0485252 -0.046979 0)
(0.0567569 -0.0452558 0)
(0.0645763 -0.0425553 0)
(0.0718331 -0.0390248 0)
(0.078419 -0.0348191 0)
(0.0842603 -0.0300912 0)
(0.0893112 -0.0249852 0)
(0.0935461 -0.0196312 0)
(0.0969527 -0.0141417 0)
(0.0995265 -0.00861071 0)
(0.101265 -0.00311337 0)
(0.102165 0.00229247 0)
(0.102215 0.00756459 0)
(0.101397 0.0126746 0)
(0.0996856 0.0176088 0)
(0.0970419 0.022369 0)
(0.0934186 0.0269765 0)
(0.0887579 0.0314788 0)
(0.0829936 0.0359582 0)
(0.0760517 0.0405385 0)
(0.067854 0.0453802 0)
(0.0583242 0.0506494 0)
(0.0474023 0.0564474 0)
(0.0350748 0.0626995 0)
(0.0214243 0.0690398 0)
(0.00669442 0.074765 0)
(-0.00866503 0.0789253 0)
(-0.023969 0.0805494 0)
(-0.0384291 0.0790188 0)
(-0.0512916 0.0741993 0)
(-0.0619903 0.0664379 0)
(-0.0702316 0.0564325 0)
(-0.0759963 0.0450373 0)
(-0.0794715 0.0330748 0)
(-0.0809539 0.0212075 0)
(-0.0807615 0.00988856 0)
(-0.079174 -0.000621507 0)
(-0.0764117 -0.0102016 0)
(-0.0726299 -0.0188118 0)
(-0.0679414 -0.0264387 0)
(-0.06244 -0.0330608 0)
(-0.0562225 -0.0386338 0)
(-0.0494073 -0.0430882 0)
(-0.0421494 -0.0463352 0)
(-0.034649 -0.0482756 0)
(-0.0271556 -0.0488046 0)
(-0.0199657 -0.0478074 0)
(-0.0134136 -0.0451358 0)
(-0.00784965 -0.0405572 0)
(-0.00361785 -0.0336673 0)
(-0.000907556 -0.0237729 0)
(3.32831e-05 -0.00977864 0)
(0.000103619 -0.00910065 0)
(0.00156109 -0.0232431 0)
(0.00504651 -0.0341418 0)
(0.0100901 -0.0424558 0)
(0.0164873 -0.0485881 0)
(0.0238729 -0.0527822 0)
(0.031886 -0.0551987 0)
(0.0401859 -0.0559736 0)
(0.048473 -0.0552513 0)
(0.0564996 -0.0531958 0)
(0.0640719 -0.0499907 0)
(0.0710475 -0.04583 0)
(0.0773289 -0.0409086 0)
(0.0828564 -0.035412 0)
(0.0875985 -0.0295087 0)
(0.0915443 -0.0233458 0)
(0.0946955 -0.0170455 0)
(0.0970599 -0.0107058 0)
(0.0986455 -0.00440068 0)
(0.0994558 0.0018175 0)
(0.0994852 0.0079156 0)
(0.098716 0.0138765 0)
(0.0971169 0.019699 0)
(0.0946408 0.025398 0)
(0.0912247 0.0310075 0)
(0.0867907 0.0365867 0)
(0.0812483 0.0422268 0)
(0.0744981 0.0480567 0)
(0.0664396 0.0542346 0)
(0.0569834 0.0609105 0)
(0.0460732 0.0681438 0)
(0.0337217 0.0757758 0)
(0.0200628 0.0832998 0)
(0.00541012 0.0898185 0)
(-0.00971008 0.0941667 0)
(-0.0245598 0.0952207 0)
(-0.0383454 0.0923501 0)
(-0.0503626 0.0855611 0)
(-0.0601416 0.0754517 0)
(-0.0675062 0.0630007 0)
(-0.0725438 0.0492952 0)
(-0.0755133 0.0352982 0)
(-0.07674 0.0217169 0)
(-0.0765309 0.00897789 0)
(-0.0751285 -0.00272064 0)
(-0.0727014 -0.0133266 0)
(-0.0693525 -0.0228531 0)
(-0.0651475 -0.0313154 0)
(-0.0601413 -0.0386961 0)
(-0.0544008 -0.0449338 0)
(-0.0480243 -0.0499247 0)
(-0.0411548 -0.0535348 0)
(-0.0339881 -0.0556139 0)
(-0.0267741 -0.0560071 0)
(-0.0198121 -0.0545572 0)
(-0.0134367 -0.0510912 0)
(-0.0079926 -0.0453826 0)
(-0.0038103 -0.0370851 0)
(-0.00106029 -0.0256473 0)
(-2.09369e-05 -0.010221 0)
(0.000151016 -0.00993728 0)
(0.00175192 -0.0258543 0)
(0.00540111 -0.0384409 0)
(0.0105518 -0.0482121 0)
(0.016993 -0.0554812 0)
(0.0243542 -0.0604555 0)
(0.0322734 -0.0633 0)
(0.04041 -0.0641825 0)
(0.0484671 -0.063295 0)
(0.0562031 -0.0608561 0)
(0.0634339 -0.0571037 0)
(0.0700298 -0.0522819 0)
(0.0759082 -0.0466277 0)
(0.0810245 -0.0403601 0)
(0.0853625 -0.0336723 0)
(0.0889258 -0.0267273 0)
(0.0917291 -0.0196564 0)
(0.0937918 -0.0125596 0)
(0.0951317 -0.00550789 0)
(0.0957609 0.00145425 0)
(0.0956798 0.00830552 0)
(0.0948746 0.0150438 0)
(0.0933146 0.0216849 0)
(0.0909491 0.028262 0)
(0.0877069 0.0348272 0)
(0.0834967 0.0414558 0)
(0.0782105 0.0482514 0)
(0.0717291 0.0553478 0)
(0.0639336 0.0628955 0)
(0.0547236 0.0710163 0)
(0.0440464 0.079709 0)
(0.031938 0.0887081 0)
(0.0185763 0.0973469 0)
(0.00432971 0.104526 0)
(-0.0102252 0.108881 0)
(-0.0243355 0.109175 0)
(-0.0372415 0.104817 0)
(-0.0483181 0.0959985 0)
(-0.0572025 0.0835904 0)
(-0.0638231 0.0688463 0)
(-0.0683432 0.0530557 0)
(-0.071056 0.0372802 0)
(-0.0722798 0.0222318 0)
(-0.0722848 0.00828231 0)
(-0.0712613 -0.00444722 0)
(-0.0693221 -0.0159759 0)
(-0.0665204 -0.0263647 0)
(-0.0628802 -0.0356491 0)
(-0.0584235 -0.0438073 0)
(-0.0531928 -0.0507512 0)
(-0.0472693 -0.0563353 0)
(-0.040785 -0.0603733 0)
(-0.0339294 -0.0626591 0)
(-0.0269505 -0.0629842 0)
(-0.0201473 -0.061149 0)
(-0.0138548 -0.0569579 0)
(-0.00841623 -0.050194 0)
(-0.00416223 -0.0405681 0)
(-0.00126403 -0.0276508 0)
(-7.61869e-05 -0.0107846 0)
(0.000192522 -0.0108884 0)
(0.00193807 -0.0286383 0)
(0.00577017 -0.042891 0)
(0.0110517 -0.0540608 0)
(0.0175528 -0.0623925 0)
(0.0248889 -0.0680668 0)
(0.0326938 -0.0712583 0)
(0.0406283 -0.0721703 0)
(0.0484024 -0.0710464 0)
(0.0557862 -0.0681639 0)
(0.0626107 -0.0638179 0)
(0.0687633 -0.0583043 0)
(0.074179 -0.0519028 0)
(0.0788301 -0.0448656 0)
(0.0827157 -0.0374092 0)
(0.0858525 -0.0297114 0)
(0.0882665 -0.0219106 0)
(0.0899864 -0.0141075 0)
(0.0910382 -0.00636851 0)
(0.0914408 0.00127095 0)
(0.0912008 0.00880296 0)
(0.0903092 0.0162425 0)
(0.0887386 0.0236254 0)
(0.086439 0.0310068 0)
(0.0833366 0.0384611 0)
(0.0793338 0.0460844 0)
(0.074312 0.0539961 0)
(0.068139 0.0623357 0)
(0.0606836 0.0712424 0)
(0.0518387 0.0808002 0)
(0.0415558 0.0909315 0)
(0.0298913 0.101246 0)
(0.0170571 0.110905 0)
(0.00345862 0.11861 0)
(-0.0103049 0.122819 0)
(-0.0235 0.122229 0)
(-0.0354299 0.116331 0)
(-0.0455651 0.105527 0)
(-0.0536451 0.0909669 0)
(-0.0596803 0.0741532 0)
(-0.0638774 0.0565386 0)
(-0.0665309 0.0392426 0)
(-0.0679268 0.0229509 0)
(-0.0682841 0.00796331 0)
(-0.0677373 -0.00568081 0)
(-0.0663476 -0.0180667 0)
(-0.0641257 -0.0292946 0)
(-0.0610623 -0.0394119 0)
(-0.0571538 -0.0483834 0)
(-0.0524234 -0.0560883 0)
(-0.0469371 -0.0623337 0)
(-0.0408155 -0.0668767 0)
(-0.0342401 -0.0694512 0)
(-0.0274537 -0.0697927 0)
(-0.0207537 -0.0676567 0)
(-0.0144762 -0.062824 0)
(-0.00896851 -0.0550852 0)
(-0.00457265 -0.0441997 0)
(-0.00147481 -0.0298363 0)
(-0.000125065 -0.0114771 0)
(0.000226797 -0.0119427 0)
(0.00210462 -0.0315925 0)
(0.00611316 -0.0474986 0)
(0.0115232 -0.0600084 0)
(0.0180782 -0.0693199 0)
(0.0253734 -0.0756005 0)
(0.0330358 -0.079043 0)
(0.040729 -0.079894 0)
(0.0481736 -0.0784549 0)
(0.0551559 -0.0750654 0)
(0.0615267 -0.0700811 0)
(0.0671944 -0.06385 0)
(0.0721141 -0.0566939 0)
(0.0762758 -0.048896 0)
(0.0796933 -0.0406938 0)
(0.082395 -0.0322771 0)
(0.0844156 -0.0237894 0)
(0.0857906 -0.0153305 0)
(0.0865512 -0.0069612 0)
(0.0867209 0.00129306 0)
(0.0863106 0.0094381 0)
(0.0853154 0.0175067 0)
(0.083712 0.025556 0)
(0.0814534 0.0336651 0)
(0.0784672 0.0419338 0)
(0.0746546 0.0504823 0)
(0.0698932 0.0594486 0)
(0.0640451 0.0689791 0)
(0.0569733 0.0791994 0)
(0.0485689 0.0901482 0)
(0.03879 0.10166 0)
(0.0277099 0.113209 0)
(0.0155645 0.123777 0)
(0.00277795 0.131879 0)
(-0.010054 0.135828 0)
(-0.0222444 0.134294 0)
(-0.0331783 0.126882 0)
(-0.0424255 0.11422 0)
(-0.0498148 0.097716 0)
(-0.0554127 0.0790898 0)
(-0.0594401 0.0599154 0)
(-0.0621678 0.0413356 0)
(-0.063835 0.0239887 0)
(-0.0646051 0.0080957 0)
(-0.0645604 -0.0063821 0)
(-0.0637188 -0.0195872 0)
(-0.0620585 -0.0316498 0)
(-0.0595451 -0.0426208 0)
(-0.0561565 -0.0524461 0)
(-0.0519 -0.0609683 0)
(-0.0468275 -0.0679443 0)
(-0.0410466 -0.0730724 0)
(-0.0347277 -0.0760237 0)
(-0.0281057 -0.076474 0)
(-0.0214745 -0.0741301 0)
(-0.015172 -0.0687442 0)
(-0.00955454 -0.0601081 0)
(-0.00498404 -0.0480184 0)
(-0.00167115 -0.0322185 0)
(-0.00016543 -0.0122896 0)
(0.000254401 -0.0130851 0)
(0.00224647 -0.0346997 0)
(0.00641033 -0.0522494 0)
(0.011929 -0.0660404 0)
(0.0185147 -0.0762438 0)
(0.0257392 -0.0830283 0)
(0.0332221 -0.0866173 0)
(0.0406316 -0.0873107 0)
(0.0477023 -0.0854751 0)
(0.0542412 -0.0815178 0)
(0.0601228 -0.0758566 0)
(0.0652794 -0.0688912 0)
(0.0696878 -0.0609834 0)
(0.0733558 -0.0524439 0)
(0.0763113 -0.0435274 0)
(0.0785922 -0.0344327 0)
(0.0802398 -0.0253052 0)
(0.0812933 -0.0162423 0)
(0.0817863 -0.00729784 0)
(0.0817442 0.0015129 0)
(0.0811794 0.0102093 0)
(0.0800897 0.0188417 0)
(0.078455 0.0274883 0)
(0.076232 0.0362526 0)
(0.0733517 0.0452613 0)
(0.0697181 0.0546603 0)
(0.0652102 0.0646082 0)
(0.0596905 0.0752591 0)
(0.0530229 0.0867231 0)
(0.0451022 0.0989886 0)
(0.0358952 0.111795 0)
(0.0254896 0.124474 0)
(0.0141354 0.135835 0)
(0.00225896 0.144219 0)
(-0.00956943 0.14783 0)
(-0.0207285 0.145348 0)
(-0.0306948 0.136512 0)
(-0.0391325 0.12217 0)
(-0.045942 0.103964 0)
(-0.0512221 0.0837885 0)
(-0.0551843 0.0633013 0)
(-0.0580606 0.0436421 0)
(-0.0600369 0.0253908 0)
(-0.0612236 0.00869077 0)
(-0.0616583 -0.00656598 0)
(-0.061326 -0.0205686 0)
(-0.0601816 -0.0334683 0)
(-0.0581743 -0.0453136 0)
(-0.055268 -0.0560285 0)
(-0.0514569 -0.0654178 0)
(-0.0467785 -0.0731882 0)
(-0.0413251 -0.0789783 0)
(-0.0352528 -0.0823948 0)
(-0.0287847 -0.0830493 0)
(-0.0222088 -0.0805939 0)
(-0.0158657 -0.0747447 0)
(-0.0101234 -0.0652846 0)
(-0.00536985 -0.0520344 0)
(-0.00184612 -0.0347922 0)
(-0.000197972 -0.0132079 0)
(0.000276614 -0.0143003 0)
(0.00236369 -0.0379362 0)
(0.00665455 -0.0571174 0)
(0.0122511 -0.0721284 0)
(0.0188326 -0.0831311 0)
(0.0259466 -0.0903117 0)
(0.0332065 -0.0939387 0)
(0.0402877 -0.0943766 0)
(0.0469428 -0.0920659 0)
(0.0530031 -0.0874865 0)
(0.05837 -0.0811192 0)
(0.0630015 -0.0734142 0)
(0.0668967 -0.0647692 0)
(0.070081 -0.0555184 0)
(0.0725947 -0.0459291 0)
(0.0744834 -0.0362045 0)
(0.0757924 -0.0264894 0)
(0.0765624 -0.0168762 0)
(0.0768265 -0.00741103 0)
(0.0766093 0.00190135 0)
(0.0759225 0.0110933 0)
(0.0747644 0.0202315 0)
(0.0731164 0.0294144 0)
(0.0709385 0.0387693 0)
(0.0681658 0.048449 0)
(0.0647073 0.0586257 0)
(0.060447 0.0694789 0)
(0.0552531 0.0811702 0)
(0.0489961 0.0937926 0)
(0.0415791 0.107281 0)
(0.0329805 0.121277 0)
(0.0232995 0.134971 0)
(0.012792 0.147005 0)
(0.00187221 0.155575 0)
(-0.00893136 0.158804 0)
(-0.0190751 0.155414 0)
(-0.0281283 0.145286 0)
(-0.0358402 0.129473 0)
(-0.0421647 0.109815 0)
(-0.0472121 0.0883408 0)
(-0.0511694 0.0667602 0)
(-0.0542211 0.0461915 0)
(-0.0565003 0.0271533 0)
(-0.0580707 0.00971858 0)
(-0.0589344 -0.0062788 0)
(-0.0590536 -0.0210638 0)
(-0.0583686 -0.0348015 0)
(-0.0568183 -0.0475341 0)
(-0.054357 -0.0591634 0)
(-0.0509668 -0.0694582 0)
(-0.0466703 -0.078077 0)
(-0.0415421 -0.0845998 0)
(-0.0357198 -0.0885668 0)
(-0.0294113 -0.0895212 0)
(-0.022896 -0.0870524 0)
(-0.0165156 -0.0808301 0)
(-0.0106517 -0.0706165 0)
(-0.00572161 -0.0562423 0)
(-0.00200038 -0.0375435 0)
(-0.000224492 -0.0142175 0)
(0.00029473 -0.0155748 0)
(0.00245834 -0.0412761 0)
(0.00684494 -0.0620702 0)
(0.0124826 -0.078235 0)
(0.0190179 -0.0899401 0)
(0.0259758 -0.0974059 0)
(0.0329662 -0.100961 0)
(0.0396754 -0.101049 0)
(0.0458776 -0.0981915 0)
(0.0514319 -0.0929452 0)
(0.0562686 -0.0858545 0)
(0.0603723 -0.0774169 0)
(0.0637638 -0.0680616 0)
(0.0664849 -0.0581405 0)
(0.0685863 -0.0479285 0)
(0.0701197 -0.0376293 0)
(0.0711319 -0.0273832 0)
(0.0716626 -0.0172755 0)
(0.0717428 -0.00734356 0)
(0.0713938 0.00241834 0)
(0.0706248 0.0120549 0)
(0.0694323 0.0216481 0)
(0.067798 0.0313147 0)
(0.0656836 0.041204 0)
(0.0630283 0.0514937 0)
(0.0597467 0.062381 0)
(0.0557307 0.0740651 0)
(0.0508576 0.0867139 0)
(0.0450089 0.100402 0)
(0.0381005 0.115009 0)
(0.0301238 0.130079 0)
(0.0211877 0.144665 0)
(0.0115468 0.157259 0)
(0.00159243 0.165933 0)
(-0.00820023 0.168767 0)
(-0.0173703 0.16454 0)
(-0.0255762 0.153277 0)
(-0.03264 0.136212 0)
(-0.0385526 0.115344 0)
(-0.0434211 0.0928007 0)
(-0.0473977 0.0703153 0)
(-0.0506179 0.0489755 0)
(-0.0531658 0.0292413 0)
(-0.0550663 0.011126 0)
(-0.0562958 -0.00558209 0)
(-0.0568019 -0.0211343 0)
(-0.0565176 -0.0357035 0)
(-0.0553765 -0.0493248 0)
(-0.0533262 -0.0618797 0)
(-0.050338 -0.0731046 0)
(-0.0464183 -0.0826137 0)
(-0.0416217 -0.0899305 0)
(-0.0360642 -0.094528 0)
(-0.0299343 -0.0958762 0)
(-0.0234992 -0.093493 0)
(-0.0170997 -0.0869893 0)
(-0.0111304 -0.0760923 0)
(-0.00603916 -0.0606284 0)
(-0.00213738 -0.0404564 0)
(-0.000246893 -0.015307 0)
(0.000309752 -0.0168966 0)
(0.00253266 -0.0446935 0)
(0.00698298 -0.0670728 0)
(0.0126223 -0.0843188 0)
(0.0190661 -0.096625 0)
(0.0258203 -0.104264 0)
(0.0324951 -0.107641 0)
(0.0387921 -0.10729 0)
(0.0445109 -0.103823 0)
(0.0495409 -0.0978773 0)
(0.0538424 -0.0900587 0)
(0.0574261 -0.0809081 0)
(0.0603333 -0.0708804 0)
(0.06262 -0.0603395 0)
(0.0643454 -0.0495624 0)
(0.0655645 -0.0387488 0)
(0.066324 -0.0280313 0)
(0.0666611 -0.0174862 0)
(0.0666026 -0.00714095 0)
(0.0661654 0.0030208 0)
(0.0653544 0.0130554 0)
(0.0641631 0.0230586 0)
(0.0625716 0.0331636 0)
(0.0605424 0.0435397 0)
(0.0580179 0.054387 0)
(0.0549186 0.065925 0)
(0.0511454 0.0783707 0)
(0.0465874 0.0918957 0)
(0.0411401 0.106554 0)
(0.0347352 0.122172 0)
(0.0273783 0.138194 0)
(0.0191863 0.153549 0)
(0.0104067 0.166597 0)
(0.00140035 0.175312 0)
(-0.00741764 0.177757 0)
(-0.0156693 0.172785 0)
(-0.0230949 0.160556 0)
(-0.029577 0.142455 0)
(-0.0351298 0.120603 0)
(-0.0398467 0.0971922 0)
(-0.0438413 0.0739611 0)
(-0.0472013 0.0519614 0)
(-0.0499683 0.0316023 0)
(-0.0521366 0.0128496 0)
(-0.0536649 -0.0045421 0)
(-0.0544935 -0.0208418 0)
(-0.0545538 -0.0362266 0)
(-0.0537776 -0.0507249 0)
(-0.0521082 -0.0642016 0)
(-0.0495068 -0.0763662 0)
(-0.0459635 -0.0867939 0)
(-0.0415111 -0.0949553 0)
(-0.036241 -0.100256 0)
(-0.0303184 -0.102089 0)
(-0.0239941 -0.0998905 0)
(-0.0176045 -0.0931992 0)
(-0.0115553 -0.0816918 0)
(-0.00632466 -0.0651744 0)
(-0.00226067 -0.0435152 0)
(-0.000266704 -0.0164673 0)
(0.000322336 -0.0182555 0)
(0.00258842 -0.0481631 0)
(0.00707067 -0.0720893 0)
(0.0126713 -0.0903365 0)
(0.0189779 -0.103139 0)
(0.0254816 -0.110838 0)
(0.0317982 -0.113936 0)
(0.0376488 -0.113066 0)
(0.0428623 -0.108941 0)
(0.0473596 -0.102276 0)
(0.0511312 -0.0937385 0)
(0.0542127 -0.0839063 0)
(0.0566635 -0.073254 0)
(0.0585513 -0.0621511 0)
(0.0599409 -0.0508715 0)
(0.0608886 -0.0396065 0)
(0.0614394 -0.0284786 0)
(0.0616263 -0.0175531 0)
(0.0614712 -0.00684651 0)
(0.0609854 0.003668 0)
(0.0601689 0.0140579 0)
(0.059011 0.0244311 0)
(0.0574894 0.0349358 0)
(0.055566 0.0457584 0)
(0.0531857 0.0571185 0)
(0.0502751 0.069255 0)
(0.0467441 0.0823989 0)
(0.042495 0.0967228 0)
(0.0374397 0.112259 0)
(0.0315273 0.128776 0)
(0.0247782 0.145632 0)
(0.0173154 0.161637 0)
(0.00937519 0.175041 0)
(0.00128272 0.183749 0)
(-0.0066094 0.185826 0)
(-0.0140027 0.180212 0)
(-0.0207106 0.167185 0)
(-0.0266646 0.148252 0)
(-0.0318915 0.12562 0)
(-0.036465 0.101518 0)
(-0.0404591 0.0776734 0)
(-0.0439184 0.0551039 0)
(-0.0468485 0.0341768 0)
(-0.0492208 0.0148236 0)
(-0.0509831 -0.00322373 0)
(-0.0520738 -0.0202449 0)
(-0.0524265 -0.0364192 0)
(-0.0519746 -0.0517697 0)
(-0.0506588 -0.0661499 0)
(-0.0484313 -0.079249 0)
(-0.0452663 -0.0906096 0)
(-0.0411737 -0.0996541 0)
(-0.0362178 -0.105723 0)
(-0.0305374 -0.108126 0)
(-0.0243622 -0.10621 0)
(-0.0180198 -0.0994282 0)
(-0.0119236 -0.0873882 0)
(-0.00657956 -0.0698591 0)
(-0.00237276 -0.0467048 0)
(-0.000284966 -0.0176919 0)
(0.000332855 -0.0196419 0)
(0.00262683 -0.0516608 0)
(0.00710997 -0.0770841 0)
(0.0126324 -0.0962452 0)
(0.0187574 -0.109436 0)
(0.0249671 -0.117087 0)
(0.0308882 -0.11981 0)
(0.036266 -0.118355 0)
(0.0409611 -0.113534 0)
(0.0449274 -0.106145 0)
(0.0481843 -0.0969104 0)
(0.05079 -0.0864388 0)
(0.0528192 -0.0752173 0)
(0.0543481 -0.0636153 0)
(0.0554445 -0.0518983 0)
(0.0561639 -0.0402459 0)
(0.0565477 -0.0287678 0)
(0.0566241 -0.017517 0)
(0.0564092 -0.00649868 0)
(0.0559087 0.00432449 0)
(0.055117 0.0150304 0)
(0.0540191 0.0257383 0)
(0.0525893 0.0366091 0)
(0.0507886 0.047844 0)
(0.0485638 0.0596788 0)
(0.0458467 0.0723682 0)
(0.0425569 0.0861531 0)
(0.0386106 0.101203 0)
(0.0339366 0.117526 0)
(0.0285024 0.134837 0)
(0.0223432 0.152409 0)
(0.015586 0.168953 0)
(0.00845311 0.182625 0)
(0.00123123 0.191288 0)
(-0.00578928 0.193033 0)
(-0.0123837 0.186881 0)
(-0.0184296 0.173217 0)
(-0.0238966 0.153639 0)
(-0.028817 0.130409 0)
(-0.0332417 0.105765 0)
(-0.0372075 0.0814176 0)
(-0.0407207 0.0583521 0)
(-0.0437576 0.0369048 0)
(-0.0462733 0.0169851 0)
(-0.0482098 -0.00168735 0)
(-0.0495076 -0.0193976 0)
(-0.0501055 -0.0363254 0)
(-0.0499403 -0.0524919 0)
(-0.0489523 -0.0677441 0)
(-0.0470862 -0.0817581 0)
(-0.044301 -0.0940516 0)
(-0.0405839 -0.104005 0)
(-0.0359708 -0.110894 0)
(-0.0305706 -0.113947 0)
(-0.0245878 -0.112411 0)
(-0.0183359 -0.105638 0)
(-0.0122309 -0.0931493 0)
(-0.00680366 -0.0746586 0)
(-0.00247484 -0.0500102 0)
(-0.000302273 -0.0189753 0)
(0.000341497 -0.0210471 0)
(0.00264874 -0.0551628 0)
(0.00710282 -0.0820227 0)
(0.0125091 -0.102004 0)
(0.0184111 -0.115474 0)
(0.024288 -0.122972 0)
(0.0297829 -0.125236 0)
(0.0346696 -0.12314 0)
(0.0388426 -0.117602 0)
(0.0422886 -0.109498 0)
(0.0450545 -0.0995996 0)
(0.0472178 -0.0885396 0)
(0.0488652 -0.0768104 0)
(0.050078 -0.0647748 0)
(0.0509245 -0.0526859 0)
(0.051457 -0.0407085 0)
(0.0517125 -0.0289378 0)
(0.0517133 -0.0174137 0)
(0.0514699 -0.00612981 0)
(0.0509818 0.0049615 0)
(0.0502385 0.015948 0)
(0.0492202 0.0269591 0)
(0.0478982 0.0381667 0)
(0.0462321 0.0497844 0)
(0.0441701 0.0620613 0)
(0.0416493 0.0752633 0)
(0.0385986 0.0896372 0)
(0.0349481 0.105346 0)
(0.0306442 0.122371 0)
(0.0256724 0.140373 0)
(0.020082 0.158551 0)
(0.0140025 0.175527 0)
(0.00763966 0.189391 0)
(0.00124108 0.197982 0)
(-0.00496275 0.199433 0)
(-0.0108141 0.192848 0)
(-0.0162452 0.178697 0)
(-0.0212559 0.158642 0)
(-0.0258785 0.13497 0)
(-0.030141 0.109912 0)
(-0.034046 0.085155 0)
(-0.0375675 0.0616552 0)
(-0.0406586 0.0397296 0)
(-0.0432627 0.0192767 0)
(-0.0453201 1.26548e-05 0)
(-0.0467758 -0.0183484 0)
(-0.047576 -0.0359859 0)
(-0.0476627 -0.052922 0)
(-0.0469772 -0.0690031 0)
(-0.045459 -0.0838995 0)
(-0.0430533 -0.0971118 0)
(-0.0397255 -0.107985 0)
(-0.0354827 -0.115737 0)
(-0.0304017 -0.119511 0)
(-0.024657 -0.118448 0)
(-0.0185428 -0.111785 0)
(-0.0124717 -0.0989388 0)
(-0.00699503 -0.0795462 0)
(-0.00256692 -0.0534155 0)
(-0.000318879 -0.0203126 0)
(0.000348354 -0.0224626 0)
(0.00265479 -0.0586468 0)
(0.00705119 -0.0868721 0)
(0.0123057 -0.107574 0)
(0.0179471 -0.121215 0)
(0.0234579 -0.128462 0)
(0.028503 -0.130193 0)
(0.0328884 -0.127414 0)
(0.036544 -0.121152 0)
(0.0394886 -0.112356 0)
(0.0417937 -0.101838 0)
(0.0435531 -0.0902478 0)
(0.0448615 -0.0780759 0)
(0.0458021 -0.0656731 0)
(0.0464409 -0.0532761 0)
(0.0468257 -0.0410328 0)
(0.0469875 -0.0290231 0)
(0.0469428 -0.0172734 0)