/*--------------------------------*- C++ -*----------------------------------*\
| =========                 |                                                 |
| \\      /  F ield         | OpenFOAM: The Open Source CFD Toolbox           |
|  \\    /   O peration     | Version:  2406                                  |
|   \\  /    A nd           | Website:  www.openfoam.com                      |
|    \\/     M anipulation  |                                                 |
\*---------------------------------------------------------------------------*/
FoamFile
{
    version     2.0;
    format      ascii;
    arch        "LSB;label=32;scalar=64";
    class       volScalarField;
    location    "20000";
    object      wallHeatFlux;
}
// * * * * * * * * * * * * * * * * * * * * * * * * * * * * * * * * * * * * * //

dimensions      [1 0 -3 0 0 0 0];

internalField   uniform 0;

boundaryField
{
    bottomwall
    {
        type            calculated;
        value           nonuniform List<scalar> 
60
(
310.998
241.341
202.06
177.881
161.971
150.918
142.878
136.763
131.895
127.851
124.361
121.227
118.291
115.43
112.571
109.683
106.76
103.803
100.809
97.7692
94.6642
91.4633
88.12
84.5761
80.7804
76.7185
72.4356
68.0222
63.5401
58.9072
53.8062
47.7113
40.0992
30.8241
20.5243
10.8643
4.43138
4.24364
12.971
32.1149
61.4614
99.0213
141.48
184.978
225.911
261.476
289.822
309.881
321.082
323.182
316.322
301.29
279.828
254.784
230.011
210.032
199.664
204.433
231.522
293.668
)
;
    }
    topwall
    {
        type            calculated;
        value           nonuniform List<scalar> 
60
(
9.95467
6.51099
3.80414
1.33109
-0.649415
-2.14908
-3.13886
-3.54048
-3.23931
-2.21876
-0.653682
1.13654
2.8355
4.24881
5.31607
6.04489
6.44504
6.50843
6.22532
5.60493
4.68083
3.5027
2.12652
0.61393
-0.955803
-2.46747
-3.75913
-4.63421
-4.90321
-4.4446
-3.25926
-1.49016
0.607058
2.73229
4.61844
6.08564
7.05461
7.5234
7.5283
7.11144
6.30951
5.16464
3.74654
2.16866
0.582101
-0.854397
-2.00768
-2.77666
-3.0665
-2.76849
-1.79309
-0.145726
2.03279
4.52309
7.14363
9.81367
12.5567
15.331
18.3917
20.7888
)
;
    }
    coldwall
    {
        type            calculated;
        value           nonuniform List<scalar> 
48
(
-416.842
-217.444
-134.196
-90.7316
-64.8123
-48.4942
-38.2099
-31.987
-28.5595
-27.046
-26.8163
-27.423
-28.5565
-30.0103
-31.6518
-33.3993
-35.2045
-37.0399
-38.89
-40.7466
-42.6055
-44.4643
-46.3221
-48.1786
-50.0338
-51.8881
-53.742
-55.596
-57.4502
-59.3047
-61.159
-63.0119
-64.8611
-66.7037
-68.535
-70.3492
-72.1387
-73.8937
-75.6028
-77.2518
-78.8248
-80.3037
-82.3037
-80.9477
-79.6009
-78.5896
-78.8215
-83.2583
)
;
    }
    radinlet
    {
        type            calculated;
        value           nonuniform List<scalar> 
12
(
-81.6685
-82.8978
-83.9692
-84.8598
-85.5476
-86.0121
-86.236
-86.2065
-85.9166
-85.3663
-84.5647
-83.5317
)
;
    }
    hotwall
    {
        type            calculated;
        value           nonuniform List<scalar> 
60
(
-428.775
-235.359
-150.685
-104.057
-74.9262
-55.8553
-43.3749
-35.4648
-30.7663
-28.3037
-27.3668
-27.4457
-28.1847
-29.3439
-30.7675
-32.358
-34.0565
-35.8286
-37.6546
-39.5235
-41.4286
-43.3657
-45.3317
-47.3239
-49.3395
-51.3758
-53.43
-55.4991
-57.5799
-59.6689
-61.7625
-63.857
-65.948
-68.0311
-70.1011
-72.1525
-74.1788
-76.173
-78.1268
-80.0309
-81.8745
-83.6451
-85.329
-86.9108
-88.3733
-89.6974
-90.8627
-91.8475
-92.63
-93.1896
-93.5095
-93.5803
-93.4062
-93.0146
-92.474
-91.9294
-91.6849
-92.4298
-95.967
-107.949
)
;
    }
    frontAndback
    {
        type            empty;
    }
}


// ************************************************************************* //
