/*--------------------------------*- C++ -*----------------------------------*\
| =========                 |                                                 |
| \\      /  F ield         | OpenFOAM: The Open Source CFD Toolbox           |
|  \\    /   O peration     | Version:  2306                                  |
|   \\  /    A nd           | Website:  www.openfoam.com                      |
|    \\/     M anipulation  |                                                 |
\*---------------------------------------------------------------------------*/
FoamFile
{
    version     2.0;
    format      ascii;
    arch        "LSB;label=32;scalar=64";
    class       volScalarField;
    location    "3.5";
    object      Keff;
}
// * * * * * * * * * * * * * * * * * * * * * * * * * * * * * * * * * * * * * //

dimensions      [1 1 -3 -1 0 0 0];

internalField   nonuniform List<scalar> 
32768
(
67.2037
67.2017
67.1977
67.1915
67.1832
67.1729
67.1605
67.146
67.1294
67.1107
67.0899
67.0669
67.0418
67.0144
66.9849
66.9531
66.9192
66.8829
66.8444
66.8036
66.7604
66.715
66.6672
66.617
66.5645
66.5096
66.4523
66.3927
66.3307
66.2663
66.1995
66.1304
66.059
65.9853
65.9093
65.8311
65.7507
65.6683
65.5837
65.4972
65.4087
65.3184
65.2263
65.1326
65.0373
64.9406
64.8426
64.7433
64.643
64.5417
64.4396
64.3369
64.2336
64.13
64.0261
63.9221
63.8183
63.7147
63.6114
63.5087
63.4067
63.3056
63.2055
63.1065
63.0088
62.9125
62.8178
62.7249
62.6338
62.5446
62.4575
62.3727
62.2902
62.2102
62.1327
62.0579
61.9858
61.9166
61.8504
61.7873
61.7273
61.6705
61.6171
61.5671
61.5206
61.4776
61.4382
61.4026
61.3708
61.3427
61.3186
61.2984
61.2823
61.2702
61.2622
61.2583
61.2586
61.263
61.2717
61.2846
61.3017
61.3231
61.3486
61.3784
61.4123
61.4503
61.4924
61.5386
61.5887
61.6426
61.7004
61.7619
61.8269
61.8955
61.9673
62.0423
62.1204
62.2013
62.2848
62.3707
62.4588
62.5489
62.6407
62.7339
62.8283
62.9235
63.0194
63.1156
63.2118
63.3078
63.4034
63.4984
63.5925
63.6856
63.7776
63.8684
63.9578
64.0459
64.1327
64.218
64.302
64.3846
64.4658
64.5457
64.6243
64.7017
64.7777
64.8525
64.9261
64.9984
65.0694
65.1391
65.2076
65.2746
65.3404
65.4047
65.4677
65.5292
65.5893
65.6479
65.705
65.7606
65.8148
65.8674
65.9185
65.9682
66.0163
66.063
66.1082
66.1519
66.1942
66.2351
66.2747
66.3128
66.3496
66.3852
66.4194
66.4524
66.4842
66.5147
66.5442
66.5725
66.5997
66.6258
66.651
66.6751
66.6982
66.7205
66.7418
66.7623
66.7819
66.8007
66.8187
66.836
66.8525
66.8683
66.8835
66.898
66.9119
66.9252
66.9379
66.9501
66.9617
66.9728
66.9835
66.9936
67.0034
67.0127
67.0215
67.03
67.0381
67.0459
67.0533
67.0603
67.0671
67.0735
67.0797
67.0856
67.0912
67.0965
67.1017
67.1066
67.1112
67.1157
67.12
67.124
67.1279
67.1316
67.1352
67.1386
67.1418
67.1449
67.1479
67.1507
67.1534
67.156
67.1585
67.1608
67.1631
67.1653
67.1674
67.1694
67.1713
67.1731
67.1749
67.1766
67.1783
67.1798
67.1814
67.1828
67.1842
67.1856
67.1869
67.1883
67.1893
67.1913
67.2037
67.2017
67.1977
67.1915
67.1833
67.1729
67.1605
67.1461
67.1295
67.1108
67.0899
67.067
67.0418
67.0145
66.985
66.9532
66.9192
66.883
66.8445
66.8036
66.7605
66.715
66.6672
66.6171
66.5645
66.5096
66.4523
66.3926
66.3306
66.2661
66.1993
66.1302
66.0587
65.9849
65.9089
65.8306
65.7502
65.6676
65.5829
65.4963
65.4077
65.3173
65.2251
65.1312
65.0358
64.939
64.8408
64.7414
64.6409
64.5395
64.4372
64.3343
64.2309
64.1271
64.023
63.9189
63.8149
63.7111
63.6077
63.5049
63.4027
63.3014
63.2012
63.102
63.0042
62.9078
62.813
62.7199
62.6287
62.5394
62.4523
62.3674
62.2848
62.2046
62.1271
62.0522
61.98
61.9108
61.8445
61.7813
61.7212
61.6644
61.6109
61.5608
61.5142
61.4712
61.4318
61.3961
61.3642
61.3362
61.312
61.2918
61.2756
61.2635
61.2554
61.2515
61.2518
61.2563
61.2649
61.2778
61.295
61.3163
61.3419
61.3717
61.4056
61.4437
61.4858
61.532
61.5822
61.6362
61.6941
61.7556
61.8208
61.8894
61.9614
62.0365
62.1147
62.1957
62.2793
62.3654
62.4537
62.544
62.6359
62.7293
62.8239
62.9194
63.0154
63.1118
63.2083
63.3046
63.4004
63.4956
63.5899
63.6833
63.7756
63.8666
63.9563
64.0446
64.1316
64.2171
64.3013
64.3841
64.4655
64.5456
64.6243
64.7018
64.778
64.8529
64.9266
64.999
65.0701
65.1399
65.2084
65.2756
65.3414
65.4058
65.4688
65.5304
65.5905
65.6491
65.7063
65.7619
65.8161
65.8687
65.9198
65.9695
66.0176
66.0643
66.1095
66.1532
66.1955
66.2364
66.2759
66.3141
66.3509
66.3864
66.4206
66.4535
66.4853
66.5158
66.5452
66.5735
66.6007
66.6268
66.6519
66.676
66.6991
66.7213
66.7426
66.7631
66.7827
66.8014
66.8194
66.8367
66.8532
66.869
66.8841
66.8986
66.9125
66.9258
66.9384
66.9506
66.9622
66.9733
66.9839
66.9941
67.0038
67.0131
67.0219
67.0304
67.0385
67.0462
67.0536
67.0606
67.0674
67.0738
67.08
67.0858
67.0914
67.0968
67.1019
67.1068
67.1114
67.1159
67.1201
67.1242
67.1281
67.1318
67.1353
67.1387
67.1419
67.145
67.148
67.1508
67.1535
67.1561
67.1586
67.1609
67.1632
67.1654
67.1675
67.1694
67.1714
67.1732
67.175
67.1767
67.1783
67.1799
67.1814
67.1829
67.1843
67.1857
67.187
67.1884
67.1894
67.1913
67.2037
67.2017
67.1977
67.1915
67.1833
67.173
67.1606
67.1461
67.1295
67.1108
67.09
67.0671
67.0419
67.0146
66.9851
66.9534
66.9194
66.8831
66.8446
66.8038
66.7607
66.7152
66.6674
66.6172
66.5646
66.5096
66.4523
66.3926
66.3304
66.2659
66.199
66.1297
66.0581
65.9842
65.9081
65.8296
65.749
65.6662
65.5814
65.4945
65.4057
65.315
65.2226
65.1285
65.0328
64.9357
64.8372
64.7375
64.6367
64.5349
64.4324
64.3291
64.2254
64.1212
64.0169
63.9124
63.8081
63.704
63.6003
63.4971
63.3947
63.2931
63.1925
63.0931
62.9951
62.8984
62.8034
62.71
62.6186
62.5291
62.4417
62.3566
62.2738
62.1935
62.1158
62.0407
61.9684
61.899
61.8326
61.7692
61.7091
61.6521
61.5985
61.5483
61.5016
61.4585
61.419
61.3832
61.3512
61.3231
61.2988
61.2785
61.2623
61.2501
61.242
61.2381
61.2383
61.2427
61.2514
61.2643
61.2814
61.3028
61.3284
61.3582
61.3922
61.4304
61.4726
61.5189
61.5692
61.6234
61.6814
61.7431
61.8084
61.8773
61.9494
62.0248
62.1032
62.1845
62.2684
62.3548
62.4434
62.534
62.6263
62.7201
62.8151
62.911
63.0075
63.1043
63.2013
63.298
63.3943
63.49
63.5849
63.6788
63.7715
63.863
63.9532
64.042
64.1294
64.2154
64.2999
64.3831
64.4649
64.5453
64.6244
64.7021
64.7786
64.8538
64.9277
65.0003
65.0716
65.1416
65.2102
65.2775
65.3434
65.408
65.4711
65.5327
65.5929
65.6516
65.7088
65.7645
65.8187
65.8713
65.9225
65.9721
66.0203
66.0669
66.1121
66.1558
66.1981
66.239
66.2784
66.3165
66.3533
66.3887
66.4229
66.4558
66.4875
66.518
66.5474
66.5756
66.6027
66.6288
66.6538
66.6779
66.7009
66.7231
66.7443
66.7647
66.7842
66.8029
66.8209
66.8381
66.8545
66.8703
66.8854
66.8998
66.9137
66.9269
66.9395
66.9516
66.9632
66.9743
66.9848
66.995
67.0046
67.0139
67.0227
67.0311
67.0392
67.0469
67.0542
67.0613
67.068
67.0744
67.0805
67.0863
67.0919
67.0973
67.1024
67.1072
67.1119
67.1163
67.1205
67.1246
67.1284
67.1321
67.1356
67.139
67.1422
67.1453
67.1482
67.151
67.1537
67.1563
67.1588
67.1611
67.1634
67.1655
67.1676
67.1696
67.1715
67.1733
67.1751
67.1768
67.1784
67.18
67.1815
67.183
67.1844
67.1858
67.187
67.1884
67.1894
67.1914
67.2037
67.2017
67.1977
67.1915
67.1833
67.173
67.1606
67.1462
67.1296
67.111
67.0902
67.0672
67.0421
67.0148
66.9853
66.9536
66.9196
66.8834
66.8449
66.8041
66.7609
66.7154
66.6675
66.6173
66.5647
66.5097
66.4523
66.3924
66.3302
66.2655
66.1985
66.1291
66.0573
65.9832
65.9068
65.8281
65.7473
65.6642
65.5791
65.4919
65.4027
65.3117
65.2189
65.1244
65.0283
64.9307
64.8318
64.7316
64.6304
64.5282
64.4251
64.3214
64.2171
64.1125
64.0076
63.9027
63.7979
63.6933
63.5891
63.4855
63.3826
63.2806
63.1796
63.0798
62.9813
62.8843
62.7889
62.6952
62.6034
62.5136
62.4259
62.3405
62.2574
62.1769
62.0989
62.0235
61.951
61.8814
61.8148
61.7512
61.6908
61.6337
61.5799
61.5295
61.4826
61.4393
61.3997
61.3638
61.3317
61.3034
61.279
61.2586
61.2423
61.23
61.2218
61.2178
61.218
61.2224
61.231
61.2439
61.2611
61.2825
61.3082
61.3381
61.3722
61.4104
61.4528
61.4993
61.5497
61.6041
61.6624
61.7243
61.7899
61.8591
61.9316
62.0073
62.0861
62.1677
62.2521
62.3389
62.428
62.5191
62.612
62.7063
62.8019
62.8984
62.9956
63.0931
63.1907
63.2882
63.3853
63.4817
63.5773
63.672
63.7654
63.8577
63.9486
64.0381
64.1261
64.2127
64.2979
64.3816
64.4639
64.5449
64.6244
64.7026
64.7795
64.855
64.9293
65.0022
65.0738
65.144
65.2129
65.2804
65.3465
65.4112
65.4745
65.5363
65.5966
65.6553
65.7126
65.7684
65.8226
65.8753
65.9265
65.9761
66.0243
66.0709
66.1161
66.1597
66.202
66.2428
66.2822
66.3203
66.357
66.3923
66.4264
66.4593
66.4909
66.5213
66.5506
66.5787
66.6057
66.6317
66.6567
66.6806
66.7036
66.7257
66.7468
66.7671
66.7866
66.8052
66.8231
66.8402
66.8566
66.8723
66.8873
66.9017
66.9154
66.9286
66.9412
66.9532
66.9647
66.9757
66.9862
66.9963
67.0059
67.0151
67.0239
67.0322
67.0403
67.0479
67.0552
67.0622
67.0689
67.0752
67.0813
67.0871
67.0927
67.098
67.103
67.1079
67.1125
67.1169
67.1211
67.1251
67.1289
67.1326
67.1361
67.1394
67.1426
67.1457
67.1486
67.1514
67.1541
67.1566
67.1591
67.1614
67.1637
67.1658
67.1679
67.1698
67.1717
67.1736
67.1753
67.177
67.1786
67.1802
67.1817
67.1831
67.1845
67.1859
67.1872
67.1885
67.1895
67.1914
67.2037
67.2017
67.1977
67.1916
67.1833
67.1731
67.1607
67.1463
67.1298
67.1111
67.0904
67.0674
67.0424
67.0151
66.9856
66.9539
66.92
66.8837
66.8452
66.8044
66.7612
66.7157
66.6678
66.6175
66.5649
66.5098
66.4522
66.3923
66.3299
66.2651
66.1979
66.1283
66.0563
65.9819
65.9052
65.8262
65.745
65.6616
65.576
65.4884
65.3988
65.3073
65.214
65.1189
65.0223
64.9241
64.8246
64.7239
64.622
64.5191
64.4154
64.311
64.2061
64.1008
63.9953
63.8898
63.7843
63.6791
63.5743
63.47
63.3665
63.2639
63.1624
63.062
62.963
62.8655
62.7696
62.6754
62.5832
62.4929
62.4048
62.319
62.2356
62.1546
62.0763
62.0007
61.9278
61.8579
61.791
61.7271
61.6665
61.6091
61.5551
61.5045
61.4574
61.4139
61.374
61.3379
61.3056
61.2771
61.2526
61.2321
61.2156
61.2032
61.1949
61.1908
61.1909
61.1953
61.2039
61.2168
61.234
61.2554
61.2811
61.3111
61.3454
61.3838
61.4264
61.473
61.5237
61.5784
61.6369
61.6993
61.7652
61.8348
61.9077
61.9839
62.0632
62.1454
62.2303
62.3177
62.4074
62.4992
62.5928
62.6879
62.7843
62.8816
62.9797
63.0781
63.1767
63.2751
63.3732
63.4706
63.5673
63.6629
63.7574
63.8506
63.9424
64.0328
64.1218
64.2092
64.2952
64.3797
64.4627
64.5443
64.6245
64.7033
64.7807
64.8567
64.9314
65.0048
65.0767
65.1473
65.2165
65.2843
65.3507
65.4156
65.4791
65.541
65.6015
65.6604
65.7178
65.7736
65.8279
65.8806
65.9318
65.9815
66.0296
66.0762
66.1214
66.165
66.2072
66.2479
66.2873
66.3252
66.3618
66.3971
66.4311
66.4639
66.4954
66.5257
66.5548
66.5829
66.6098
66.6357
66.6605
66.6843
66.7072
66.7292
66.7502
66.7704
66.7897
66.8083
66.826
66.843
66.8593
66.8749
66.8898
66.9041
66.9177
66.9308
66.9433
66.9553
66.9667
66.9776
66.9881
66.998
67.0076
67.0167
67.0254
67.0337
67.0417
67.0493
67.0565
67.0635
67.0701
67.0764
67.0824
67.0882
67.0937
67.0989
67.1039
67.1087
67.1133
67.1177
67.1218
67.1258
67.1296
67.1333
67.1367
67.14
67.1432
67.1462
67.1491
67.1519
67.1545
67.1571
67.1595
67.1618
67.164
67.1662
67.1682
67.1702
67.172
67.1738
67.1756
67.1772
67.1788
67.1804
67.1819
67.1833
67.1847
67.1861
67.1873
67.1887
67.1897
67.1916
67.2037
67.2017
67.1977
67.1916
67.1834
67.1731
67.1608
67.1464
67.1299
67.1113
67.0906
67.0677
67.0427
67.0154
66.986
66.9543
66.9204
66.8842
66.8457
66.8049
66.7617
66.7161
66.6682
66.6179
66.5651
66.5099
66.4523
66.3922
66.3296
66.2646
66.1972
66.1273
66.055
65.9803
65.9032
65.8239
65.7422
65.6583
65.5723
65.4841
65.394
65.3019
65.2079
65.1122
65.0148
64.916
64.8157
64.7142
64.6115
64.5079
64.4034
64.2982
64.1924
64.0863
63.98
63.8736
63.7673
63.6612
63.5557
63.4507
63.3464
63.2431
63.1408
63.0398
62.9401
62.8419
62.7454
62.6506
62.5578
62.467
62.3784
62.2921
62.2082
62.1268
62.0481
61.972
61.8988
61.8285
61.7612
61.697
61.6361
61.5784
61.524
61.4731
61.4257
61.382
61.3419
61.3055
61.273
61.2443
61.2196
61.1989
61.1822
61.1696
61.1612
61.157
61.1571
61.1613
61.1699
61.1828
61.2
61.2215
61.2473
61.2774
61.3118
61.3504
61.3932
61.4402
61.4912
61.5462
61.6051
61.6679
61.7343
61.8043
61.8778
61.9546
62.0345
62.1174
62.203
62.2912
62.3817
62.4744
62.5688
62.6649
62.7623
62.8607
62.9598
63.0594
63.1591
63.2588
63.3581
63.4568
63.5546
63.6515
63.7472
63.8417
63.9347
64.0263
64.1163
64.2049
64.2918
64.3773
64.4612
64.5436
64.6246
64.7041
64.7822
64.8589
64.9341
65.008
65.0805
65.1515
65.2211
65.2893
65.3559
65.4211
65.4848
65.547
65.6076
65.6667
65.7242
65.7801
65.8345
65.8873
65.9385
65.9882
66.0363
66.0829
66.128
66.1716
66.2137
66.2544
66.2936
66.3315
66.368
66.4031
66.437
66.4696
66.501
66.5312
66.5602
66.5881
66.6149
66.6406
66.6653
66.689
66.7117
66.7335
66.7544
66.7745
66.7937
66.812
66.8297
66.8465
66.8627
66.8782
66.893
66.9071
66.9207
66.9336
66.946
66.9579
66.9692
66.98
66.9904
67.0002
67.0097
67.0187
67.0273
67.0356
67.0435
67.051
67.0582
67.065
67.0716
67.0778
67.0838
67.0895
67.0949
67.1001
67.1051
67.1098
67.1143
67.1187
67.1228
67.1267
67.1305
67.1341
67.1375
67.1408
67.1439
67.1469
67.1498
67.1525
67.1551
67.1576
67.16
67.1623
67.1645
67.1666
67.1686
67.1706
67.1724
67.1742
67.1759
67.1776
67.1791
67.1807
67.1821
67.1836
67.1849
67.1863
67.1875
67.1889
67.1898
67.1917
67.2037
67.2017
67.1977
67.1916
67.1835
67.1732
67.1609
67.1466
67.1301
67.1116
67.0909
67.0681
67.0431
67.0159
66.9865
66.9548
66.9209
66.8848
66.8463
66.8054
66.7622
66.7167
66.6687
66.6183
66.5654
66.5101
66.4523
66.3921
66.3293
66.2641
66.1964
66.1262
66.0535
65.9785
65.901
65.8211
65.739
65.6545
65.5679
65.4791
65.3882
65.2954
65.2007
65.1042
65.006
64.9062
64.8051
64.7026
64.599
64.4944
64.3889
64.2827
64.176
64.0688
63.9615
63.8541
63.7468
63.6398
63.5333
63.4274
63.3222
63.218
63.1149
63.013
62.9125
62.8136
62.7163
62.6209
62.5274
62.436
62.3467
62.2598
62.1754
62.0934
62.0142
61.9376
61.864
61.7932
61.7255
61.6609
61.5995
61.5415
61.4868
61.4355
61.3878
61.3437
61.3033
61.2666
61.2338
61.2049
61.1799
61.159
61.1421
61.1294
61.1208
61.1164
61.1164
61.1206
61.1291
61.142
61.1592
61.1808
61.2067
61.2369
61.2715
61.3103
61.3534
61.4007
61.4521
61.5075
61.5669
61.6301
61.6971
61.7678
61.8419
61.9194
62
62.0837
62.1702
62.2593
62.3508
62.4445
62.54
62.6372
62.7358
62.8355
62.9359
63.0369
63.138
63.2391
63.3399
63.4401
63.5395
63.6379
63.7351
63.831
63.9255
64.0184
64.1098
64.1996
64.2878
64.3744
64.4595
64.5429
64.6248
64.7052
64.7841
64.8615
64.9375
65.012
65.085
65.1566
65.2267
65.2952
65.3623
65.4278
65.4918
65.5542
65.6151
65.6743
65.732
65.788
65.8425
65.8953
65.9466
65.9963
66.0444
66.0909
66.136
66.1795
66.2215
66.2621
66.3012
66.339
66.3753
66.4104
66.4441
66.4765
66.5077
66.5378
66.5666
66.5943
66.6209
66.6465
66.671
66.6945
66.7171
66.7387
66.7595
66.7793
66.7984
66.8166
66.8341
66.8508
66.8668
66.8821
66.8967
66.9108
66.9242
66.937
66.9492
66.961
66.9722
66.9829
66.9931
67.0029
67.0122
67.0211
67.0297
67.0378
67.0456
67.053
67.0601
67.0669
67.0733
67.0795
67.0854
67.091
67.0964
67.1015
67.1064
67.1111
67.1156
67.1198
67.1239
67.1278
67.1315
67.1351
67.1384
67.1417
67.1448
67.1477
67.1505
67.1532
67.1558
67.1583
67.1606
67.1629
67.1651
67.1671
67.1691
67.171
67.1729
67.1746
67.1763
67.1779
67.1795
67.181
67.1825
67.1839
67.1852
67.1865
67.1878
67.1891
67.19
67.1919
67.2037
67.2017
67.1977
67.1917
67.1835
67.1733
67.1611
67.1468
67.1304
67.1119
67.0913
67.0685
67.0435
67.0164
66.9871
66.9555
66.9216
66.8855
66.847
66.8062
66.763
66.7174
66.6693
66.6189
66.5659
66.5105
66.4525
66.3921
66.3291
66.2636
66.1956
66.125
66.052
65.9765
65.8985
65.8181
65.7353
65.6502
65.5629
65.4733
65.3817
65.288
65.1924
65.0949
64.9957
64.895
64.7927
64.6892
64.5845
64.4787
64.3721
64.2647
64.1568
64.0485
63.94
63.8314
63.723
63.6149
63.5072
63.4002
63.294
63.1887
63.0846
62.9817
62.8803
62.7805
62.6824
62.5861
62.4918
62.3996
62.3097
62.2221
62.137
62.0545
61.9746
61.8975
61.8233
61.752
61.6838
61.6188
61.5569
61.4984
61.4433
61.3916
61.3435
61.2991
61.2583
61.2213
61.1881
61.1589
61.1336
61.1124
61.0953
61.0823
61.0736
61.069
61.0688
61.0729
61.0814
61.0943
61.1115
61.1331
61.1592
61.1896
61.2244
61.2635
61.3069
61.3545
61.4063
61.4622
61.5222
61.586
61.6537
61.725
61.7999
61.8782
61.9598
62.0444
62.1319
62.2221
62.3147
62.4096
62.5064
62.6049
62.7049
62.806
62.908
63.0106
63.1134
63.2162
63.3187
63.4207
63.5218
63.622
63.7209
63.8186
63.9147
64.0093
64.1023
64.1936
64.2832
64.3712
64.4575
64.5421
64.6251
64.7066
64.7864
64.8647
64.9415
65.0167
65.0904
65.1626
65.2332
65.3023
65.3698
65.4357
65.5
65.5628
65.6239
65.6833
65.7411
65.7973
65.8519
65.9048
65.9561
66.0058
66.0539
66.1004
66.1453
66.1888
66.2307
66.2711
66.3101
66.3477
66.3839
66.4188
66.4523
66.4846
66.5156
66.5455
66.5741
66.6016
66.628
66.6534
66.6777
66.701
66.7234
66.7448
66.7653
66.785
66.8038
66.8219
66.8392
66.8557
66.8715
66.8867
66.9011
66.915
66.9282
66.9409
66.953
66.9646
66.9756
66.9862
66.9963
67.0059
67.0151
67.024
67.0324
67.0404
67.0481
67.0554
67.0624
67.069
67.0754
67.0815
67.0873
67.0928
67.0981
67.1032
67.108
67.1126
67.117
67.1212
67.1252
67.129
67.1327
67.1362
67.1395
67.1427
67.1457
67.1486
67.1514
67.1541
67.1566
67.159
67.1614
67.1636
67.1657
67.1678
67.1697
67.1716
67.1734
67.1751
67.1768
67.1784
67.1799
67.1814
67.1828
67.1842
67.1855
67.1868
67.188
67.1893
67.1903
67.1921
67.2037
67.2017
67.1978
67.1917
67.1836
67.1735
67.1613
67.147
67.1307
67.1123
67.0917
67.069
67.0441
67.0171
66.9878
66.9563
66.9225
66.8864
66.8479
66.8071
66.7639
66.7183
66.6702
66.6196
66.5666
66.511
66.4529
66.3922
66.329
66.2632
66.1948
66.1239
66.0504
65.9743
65.8958
65.8148
65.7313
65.6455
65.5573
65.4669
65.3743
65.2797
65.183
65.0845
64.9841
64.8822
64.7788
64.674
64.5679
64.4609
64.3529
64.2442
64.1349
64.0252
63.9154
63.8055
63.6957
63.5863
63.4773
63.3691
63.2616
63.1552
63.0499
62.9459
62.8435
62.7426
62.6435
62.5463
62.4511
62.3581
62.2673
62.179
62.0931
62.0099
61.9293
61.8516
61.7768
61.7049
61.6362
61.5706
61.5082
61.4492
61.3936
61.3415
61.2929
61.248
61.2068
61.1694
61.1359
61.1063
61.0807
61.0592
61.0418
61.0285
61.0195
61.0148
61.0144
61.0184
61.0268
61.0396
61.0569
61.0786
61.1047
61.1353
61.1704
61.2098
61.2535
61.3016
61.3539
61.4104
61.4709
61.5354
61.6039
61.676
61.7518
61.8311
61.9136
61.9993
62.088
62.1794
62.2734
62.3696
62.4679
62.568
62.6696
62.7724
62.8761
62.9805
63.0852
63.19
63.2945
63.3984
63.5016
63.6038
63.7048
63.8044
63.9024
63.9989
64.0937
64.1867
64.278
64.3675
64.4553
64.5413
64.6256
64.7082
64.7892
64.8685
64.9462
65.0222
65.0967
65.1696
65.2408
65.3105
65.3785
65.4449
65.5096
65.5726
65.634
65.6937
65.7517
65.808
65.8627
65.9157
65.967
66.0167
66.0647
66.1112
66.1561
66.1994
66.2412
66.2815
66.3204
66.3578
66.3938
66.4285
66.4618
66.4939
66.5247
66.5543
66.5827
66.61
66.6361
66.6612
66.6853
66.7084
66.7305
66.7517
66.772
66.7915
66.8101
66.8279
66.845
66.8613
66.8769
66.8919
66.9061
66.9198
66.9329
66.9453
66.9573
66.9687
66.9796
66.99
66.9999
67.0094
67.0185
67.0272
67.0354
67.0433
67.0509
67.0581
67.0649
67.0715
67.0778
67.0838
67.0895
67.0949
67.1001
67.1051
67.1098
67.1143
67.1187
67.1228
67.1267
67.1305
67.1341
67.1375
67.1407
67.1439
67.1469
67.1497
67.1524
67.155
67.1575
67.1599
67.1622
67.1644
67.1665
67.1685
67.1704
67.1722
67.174
67.1757
67.1773
67.1789
67.1804
67.1818
67.1832
67.1846
67.1859
67.1872
67.1883
67.1896
67.1905
67.1923
67.2037
67.2018
67.1978
67.1918
67.1837
67.1736
67.1615
67.1473
67.1311
67.1127
67.0922
67.0696
67.0448
67.0178
66.9886
66.9572
66.9235
66.8874
66.849
66.8082
66.765
66.7194
66.6713
66.6206
66.5675
66.5117
66.4534
66.3925
66.329
66.2629
66.1941
66.1227
66.0487
65.9721
65.893
65.8112
65.727
65.6403
65.5513
65.4599
65.3663
65.2705
65.1726
65.0729
64.9713
64.868
64.7632
64.6569
64.5494
64.4409
64.3314
64.2211
64.1103
63.9991
63.8877
63.7763
63.665
63.5541
63.4437
63.334
63.2252
63.1174
63.0108
62.9056
62.8019
62.6999
62.5997
62.5014
62.4053
62.3113
62.2196
62.1304
62.0437
61.9597
61.8784
61.7999
61.7244
61.6519
61.5825
61.5163
61.4534
61.3938
61.3377
61.2851
61.236
61.1906
61.149
61.1111
61.0771
61.0471
61.0211
60.9992
60.9815
60.9679
60.9587
60.9537
60.9532
60.957
60.9653
60.9781
60.9953
61.0171
61.0434
61.0742
61.1095
61.1492
61.1934
61.2419
61.2948
61.3518
61.4131
61.4784
61.5477
61.6208
61.6976
61.7779
61.8616
61.9486
62.0386
62.1314
62.2268
62.3246
62.4246
62.5264
62.6298
62.7345
62.8402
62.9467
63.0535
63.1604
63.2672
63.3734
63.4788
63.5833
63.6866
63.7884
63.8887
63.9873
64.0841
64.1791
64.2723
64.3635
64.4529
64.5405
64.6263
64.7102
64.7924
64.8728
64.9516
65.0286
65.104
65.1776
65.2496
65.3199
65.3884
65.4553
65.5204
65.5838
65.6455
65.7055
65.7637
65.8202
65.875
65.928
65.9794
66.0291
66.0771
66.1235
66.1682
66.2115
66.2531
66.2932
66.3319
66.3691
66.4049
66.4394
66.4725
66.5043
66.5348
66.5642
66.5923
66.6193
66.6452
66.6701
66.6939
66.7167
66.7386
66.7595
66.7796
66.7988
66.8171
66.8347
66.8515
66.8676
66.883
66.8977
66.9118
66.9252
66.9381
66.9503
66.9621
66.9733
66.984
66.9942
67.004
67.0133
67.0222
67.0307
67.0389
67.0466
67.054
67.0611
67.0678
67.0743
67.0804
67.0863
67.0919
67.0972
67.1023
67.1072
67.1118
67.1163
67.1205
67.1245
67.1284
67.1321
67.1356
67.1389
67.1421
67.1452
67.1481
67.1509
67.1536
67.1561
67.1586
67.1609
67.1631
67.1653
67.1673
67.1693
67.1711
67.1729
67.1747
67.1763
67.1779
67.1794
67.1809
67.1823
67.1837
67.185
67.1863
67.1875
67.1887
67.1899
67.1908
67.1926
67.2037
67.2018
67.1978
67.1919
67.1838
67.1738
67.1618
67.1476
67.1315
67.1132
67.0928
67.0703
67.0456
67.0188
66.9897
66.9583
66.9247
66.8887
66.8503
66.8096
66.7664
66.7207
66.6726
66.6219
66.5686
66.5127
66.4542
66.3931
66.3293
66.2628
66.1936
66.1217
66.0472
65.97
65.8901
65.8076
65.7225
65.6349
65.5448
65.4524
65.3576
65.2605
65.1614
65.0602
64.9572
64.8524
64.746
64.6382
64.529
64.4188
64.3076
64.1956
64.0831
63.9701
63.857
63.7439
63.6309
63.5183
63.4063
63.295
63.1846
63.0753
62.9673
62.8607
62.7557
62.6524
62.5509
62.4515
62.3542
62.2592
62.1665
62.0763
61.9887
61.9038
61.8217
61.7425
61.6662
61.593
61.523
61.4561
61.3925
61.3323
61.2756
61.2224
61.1728
61.1268
61.0846
61.0463
61.0118
60.9813
60.9549
60.9326
60.9145
60.9006
60.891
60.8858
60.885
60.8886
60.8968
60.9095
60.9268
60.9486
60.975
61.006
61.0416
61.0817
61.1263
61.1754
61.2288
61.2866
61.3486
61.4148
61.485
61.5592
61.6371
61.7187
61.8037
61.892
61.9835
62.0779
62.175
62.2745
62.3763
62.4801
62.5855
62.6923
62.8003
62.909
63.0182
63.1276
63.2368
63.3456
63.4536
63.5606
63.6664
63.7707
63.8734
63.9744
64.0735
64.1707
64.2659
64.3592
64.4505
64.5398
64.6271
64.7126
64.7962
64.8779
64.9578
65.0359
65.1122
65.1867
65.2595
65.3305
65.3997
65.4671
65.5327
65.5965
65.6585
65.7188
65.7772
65.8339
65.8887
65.9419
65.9932
66.0429
66.0909
66.1372
66.1819
66.2249
66.2664
66.3063
66.3448
66.3818
66.4173
66.4515
66.4844
66.5159
66.5462
66.5752
66.6031
66.6298
66.6554
66.6799
66.7034
66.726
66.7475
66.7682
66.7879
66.8068
66.8249
66.8422
66.8588
66.8746
66.8897
66.9042
66.918
66.9312
66.9438
66.9559
66.9674
66.9784
66.9889
66.9989
67.0085
67.0176
67.0264
67.0347
67.0427
67.0503
67.0575
67.0644
67.071
67.0773
67.0833
67.0891
67.0945
67.0998
67.1047
67.1095
67.114
67.1184
67.1225
67.1265
67.1302
67.1338
67.1372
67.1405
67.1436
67.1466
67.1495
67.1522
67.1548
67.1573
67.1597
67.162
67.1641
67.1662
67.1682
67.1701
67.172
67.1737
67.1754
67.177
67.1786
67.1801
67.1815
67.1829
67.1842
67.1855
67.1867
67.1879
67.1891
67.1903
67.1912
67.1929
67.2037
67.2018
67.1979
67.1919
67.184
67.174
67.162
67.148
67.132
67.1138
67.0935
67.0712
67.0466
67.0198
66.9909
66.9596
66.9261
66.8902
66.8519
66.8112
66.7681
66.7224
66.6742
66.6235
66.5701
66.5141
66.4554
66.394
66.3298
66.263
66.1933
66.1209
66.0458
65.9679
65.8873
65.8039
65.7179
65.6293
65.5381
65.4444
65.3483
65.2499
65.1493
65.0466
64.942
64.8355
64.7274
64.6177
64.5067
64.3946
64.2815
64.1676
64.0531
63.9383
63.8232
63.7082
63.5933
63.4789
63.365
63.252
63.1399
63.0289
62.9193
62.8112
62.7047
62.5999
62.4972
62.3965
62.298
62.2018
62.108
62.0168
61.9282
61.8424
61.7594
61.6793
61.6022
61.5282
61.4574
61.3898
61.3256
61.2647
61.2073
61.1534
61.1032
61.0567
61.0139
60.975
60.94
60.909
60.882
60.8593
60.8407
60.8264
60.8164
60.8109
60.8098
60.8133
60.8213
60.8339
60.8512
60.8731
60.8996
60.9308
60.9667
61.0072
61.0523
61.1019
61.156
61.2146
61.2775
61.3446
61.4159
61.4912
61.5704
61.6533
61.7398
61.8297
61.9228
62.0189
62.1178
62.2193
62.3231
62.429
62.5367
62.6459
62.7563
62.8676
62.9794
63.0915
63.2034
63.315
63.4258
63.5356
63.6442
63.7513
63.8567
63.9603
64.062
64.1616
64.2591
64.3546
64.4479
64.5391
64.6283
64.7154
64.8005
64.8837
64.9649
65.0442
65.1215
65.197
65.2706
65.3424
65.4122
65.4802
65.5464
65.6106
65.673
65.7336
65.7922
65.8491
65.9041
65.9573
66.0087
66.0583
66.1062
66.1524
66.1969
66.2398
66.2811
66.3208
66.359
66.3958
66.4311
66.4649
66.4975
66.5287
66.5586
66.5874
66.6149
66.6413
66.6665
66.6908
66.7139
66.7361
66.7574
66.7777
66.7971
66.8157
66.8335
66.8505
66.8667
66.8823
66.8971
66.9113
66.9248
66.9378
66.9501
66.9619
66.9732
66.984
66.9943
67.0041
67.0134
67.0224
67.0309
67.039
67.0468
67.0542
67.0613
67.0681
67.0745
67.0807
67.0865
67.0921
67.0975
67.1025
67.1074
67.112
67.1165
67.1207
67.1247
67.1286
67.1322
67.1357
67.1391
67.1423
67.1453
67.1482
67.151
67.1536
67.1562
67.1586
67.1609
67.1631
67.1652
67.1673
67.1692
67.1711
67.1728
67.1746
67.1762
67.1778
67.1793
67.1807
67.1821
67.1835
67.1848
67.186
67.1872
67.1884
67.1895
67.1907
67.1915
67.1932
67.2037
67.2018
67.1979
67.192
67.1842
67.1743
67.1624
67.1485
67.1325
67.1145
67.0944
67.0721
67.0477
67.0211
66.9923
66.9611
66.9277
66.892
66.8538
66.8132
66.7701
66.7244
66.6762
66.6254
66.572
66.5158
66.4569
66.3952
66.3308
66.2635
66.1934
66.1205
66.0447
65.966
65.8846
65.8003
65.7133
65.6235
65.5311
65.4361
65.3386
65.2387
65.1365
65.0321
64.9257
64.8174
64.7073
64.5957
64.4826
64.3684
64.2532
64.1372
64.0206
63.9036
63.7864
63.6692
63.5523
63.4358
63.3199
63.2049
63.091
62.9782
62.8668
62.757
62.6489
62.5426
62.4384
62.3363
62.2365
62.139
62.0441
61.9517
61.8621
61.7753
61.6913
61.6103
61.5324
61.4575
61.3859
61.3176
61.2525
61.1909
61.1328
61.0783
61.0274
60.9802
60.9368
60.8972
60.8616
60.83
60.8026
60.7792
60.7602
60.7454
60.735
60.7291
60.7278
60.731
60.7388
60.7513
60.7685
60.7904
60.8171
60.8485
60.8847
60.9256
60.9712
61.0215
61.0763
61.1357
61.1996
61.2678
61.3402
61.4168
61.4973
61.5817
61.6698
61.7614
61.8563
61.9544
62.0553
62.159
62.265
62.3733
62.4835
62.5952
62.7083
62.8223
62.937
63.052
63.167
63.2816
63.3955
63.5084
63.62
63.7302
63.8385
63.945
64.0495
64.1518
64.2519
64.3497
64.4453
64.5387
64.6298
64.7188
64.8056
64.8903
64.9729
65.0535
65.132
65.2085
65.2831
65.3557
65.4263
65.4949
65.5616
65.6263
65.6891
65.7499
65.8088
65.8659
65.921
65.9742
66.0256
66.0752
66.123
66.1691
66.2135
66.2562
66.2972
66.3367
66.3747
66.4111
66.4461
66.4796
66.5118
66.5427
66.5723
66.6006
66.6278
66.6538
66.6787
66.7026
66.7254
66.7472
66.7681
66.788
66.8071
66.8254
66.8428
66.8595
66.8754
66.8906
66.9051
66.919
66.9323
66.9449
66.957
66.9685
66.9795
66.99
67.0001
67.0097
67.0188
67.0275
67.0358
67.0438
67.0513
67.0586
67.0654
67.072
67.0783
67.0843
67.09
67.0954
67.1006
67.1056
67.1103
67.1148
67.1191
67.1232
67.1271
67.1308
67.1344
67.1378
67.141
67.1441
67.1471
67.1499
67.1526
67.1552
67.1576
67.16
67.1622
67.1644
67.1664
67.1684
67.1703
67.1721
67.1738
67.1755
67.1771
67.1786
67.18
67.1815
67.1828
67.1841
67.1854
67.1866
67.1877
67.1889
67.1899
67.1911
67.1919
67.1935
67.2037
67.2018
67.198
67.1922
67.1843
67.1745
67.1628
67.149
67.1332
67.1153
67.0953
67.0732
67.049
67.0225
66.9939
66.9629
66.9297
66.894
66.856
66.8155
66.7725
66.7269
66.6787
66.6278
66.5743
66.518
66.4589
66.397
66.3322
66.2645
66.1939
66.1204
66.0439
65.9645
65.8822
65.7969
65.7088
65.6178
65.5241
65.4277
65.3286
65.227
65.1231
65.0168
64.9084
64.7981
64.6859
64.5721
64.4568
64.3403
64.2227
64.1044
63.9854
63.866
63.7465
63.627
63.5078
63.389
63.271
63.1539
63.0378
62.9231
62.8098
62.6981
62.5883
62.4804
62.3746
62.271
62.1697
62.0709
61.9747
61.8812
61.7904
61.7025
61.6175
61.5356
61.4567
61.381
61.3085
61.2393
61.1735
61.1111
61.0523
60.997
60.9453
60.8974
60.8533
60.8131
60.7768
60.7446
60.7164
60.6925
60.6729
60.6576
60.6468
60.6405
60.6387
60.6416
60.6492
60.6615
60.6787
60.7006
60.7274
60.7591
60.7956
60.8369
60.8831
60.934
60.9896
61.0499
61.1148
61.1841
61.2579
61.3358
61.4179
61.5039
61.5937
61.6872
61.7841
61.8843
61.9874
62.0934
62.202
62.3128
62.4256
62.5402
62.6562
62.7733
62.8911
63.0093
63.1275
63.2454
63.3627
63.479
63.5939
63.7074
63.819
63.9286
64.0361
64.1414
64.2443
64.3447
64.4428
64.5385
64.6318
64.7227
64.8114
64.8978
64.9819
65.0639
65.1437
65.2214
65.2969
65.3704
65.4418
65.5111
65.5784
65.6436
65.7068
65.768
65.8271
65.8843
65.9395
65.9928
66.0442
66.0938
66.1415
66.1874
66.2316
66.274
66.3148
66.354
66.3917
66.4278
66.4624
66.4956
66.5274
66.5579
66.5871
66.615
66.6418
66.6674
66.6919
66.7154
66.7378
66.7592
66.7797
66.7992
66.8179
66.8358
66.8529
66.8692
66.8847
66.8996
66.9138
66.9273
66.9403
66.9526
66.9644
66.9756
66.9864
66.9966
67.0064
67.0157
67.0246
67.033
67.0411
67.0488
67.0562
67.0632
67.0699
67.0763
67.0824
67.0882
67.0937
67.099
67.104
67.1088
67.1134
67.1178
67.1219
67.1259
67.1297
67.1333
67.1367
67.14
67.1432
67.1462
67.149
67.1518
67.1544
67.1569
67.1592
67.1615
67.1637
67.1658
67.1677
67.1696
67.1715
67.1732
67.1749
67.1765
67.178
67.1795
67.1809
67.1822
67.1835
67.1848
67.186
67.1872
67.1883
67.1894
67.1904
67.1915
67.1923
67.1939
67.2037
67.2018
67.1981
67.1923
67.1846
67.1749
67.1632
67.1496
67.1339
67.1162
67.0964
67.0745
67.0505
67.0242
66.9957
66.965
66.9319
66.8965
66.8586
66.8182
66.7753
66.7298
66.6816
66.6308
66.5772
66.5207
66.4615
66.3993
66.3342
66.2661
66.195
66.1208
66.0437
65.9634
65.8801
65.7938
65.7045
65.6123
65.5171
65.4191
65.3184
65.215
65.1091
65.0008
64.8903
64.7777
64.6632
64.547
64.4293
64.3102
64.1901
64.0692
63.9476
63.8256
63.7035
63.5815
63.4598
63.3386
63.2182
63.0987
62.9805
62.8636
62.7482
62.6346
62.5228
62.4131
62.3056
62.2004
62.0977
61.9975
61.8999
61.8051
61.7132
61.6241
61.5381
61.4551
61.3752
61.2986
61.2252
61.1551
61.0885
61.0253
60.9656
60.9095
60.8571
60.8084
60.7635
60.7225
60.6855
60.6526
60.6237
60.5992
60.5789
60.563
60.5517
60.5448
60.5427
60.5452
60.5525
60.5647
60.5817