/*--------------------------------*- C++ -*----------------------------------*\
| =========                 |                                                 |
| \\      /  F ield         | OpenFOAM: The Open Source CFD Toolbox           |
|  \\    /   O peration     | Version:  2306                                  |
|   \\  /    A nd           | Website:  www.openfoam.com                      |
|    \\/     M anipulation  |                                                 |
\*---------------------------------------------------------------------------*/
FoamFile
{
    version     2.0;
    format      ascii;
    arch        "LSB;label=32;scalar=64";
    class       volScalarField;
    location    "3.5";
    object      p;
}
// * * * * * * * * * * * * * * * * * * * * * * * * * * * * * * * * * * * * * //

dimensions      [0 2 -2 0 0 0 0];

internalField   nonuniform List<scalar> 
32768
(
0.266181
0.266048
0.265759
0.265304
0.264683
0.263899
0.262952
0.26184
0.260561
0.259113
0.257494
0.255702
0.253735
0.251591
0.249266
0.246758
0.244064
0.241181
0.238105
0.234834
0.231365
0.227694
0.223817
0.219732
0.215435
0.210924
0.206195
0.201245
0.196073
0.190675
0.18505
0.179195
0.17311
0.166794
0.160245
0.153465
0.146453
0.13921
0.13174
0.124043
0.116123
0.107983
0.0996294
0.0910659
0.0822991
0.0733358
0.0641836
0.054851
0.0453472
0.0356821
0.0258663
0.0159113
0.00582909
-0.00436772
-0.0146659
-0.0250517
-0.0355109
-0.0460289
-0.0565907
-0.067181
-0.0777843
-0.088385
-0.0989673
-0.109515
-0.120013
-0.130445
-0.140795
-0.151048
-0.161188
-0.171201
-0.18107
-0.190782
-0.200322
-0.209676
-0.21883
-0.227771
-0.236486
-0.244961
-0.253184
-0.261144
-0.268828
-0.276225
-0.283325
-0.290117
-0.296591
-0.302736
-0.308545
-0.314008
-0.319116
-0.323864
-0.328242
-0.332246
-0.335869
-0.339106
-0.341952
-0.344406
-0.346463
-0.348122
-0.349383
-0.350245
-0.35071
-0.35078
-0.350459
-0.349751
-0.348661
-0.347196
-0.345365
-0.343175
-0.340638
-0.337763
-0.334564
-0.331052
-0.327242
-0.323149
-0.318788
-0.314176
-0.309328
-0.304263
-0.298997
-0.293549
-0.287936
-0.282176
-0.276288
-0.270288
-0.264193
-0.258021
-0.251788
-0.245508
-0.239197
-0.232869
-0.226537
-0.220214
-0.213911
-0.20764
-0.201411
-0.195233
-0.189116
-0.183069
-0.177098
-0.171212
-0.165417
-0.15972
-0.154125
-0.148638
-0.143265
-0.138008
-0.132872
-0.127859
-0.122973
-0.118216
-0.113588
-0.109092
-0.104728
-0.100496
-0.0963969
-0.0924289
-0.0885917
-0.084884
-0.0813043
-0.0778507
-0.0745213
-0.0713137
-0.0682255
-0.0652542
-0.0623969
-0.0596507
-0.0570128
-0.0544802
-0.0520497
-0.0497183
-0.0474829
-0.0453403
-0.0432875
-0.0413214
-0.039439
-0.0376372
-0.0359131
-0.0342638
-0.0326865
-0.0311783
-0.0297367
-0.0283589
-0.0270423
-0.0257846
-0.0245832
-0.0234358
-0.0223403
-0.0212943
-0.0202958
-0.0193427
-0.0184331
-0.017565
-0.0167368
-0.0159465
-0.0151925
-0.0144733
-0.0137872
-0.0131328
-0.0125086
-0.0119133
-0.0113455
-0.010804
-0.0102876
-0.00979508
-0.00932541
-0.0088775
-0.00845033
-0.00804294
-0.00765439
-0.00728381
-0.00693034
-0.00659317
-0.00627152
-0.00596466
-0.00567187
-0.00539247
-0.00512582
-0.00487129
-0.0046283
-0.00439627
-0.00417466
-0.00396296
-0.00376067
-0.00356731
-0.00338243
-0.00320559
-0.00303638
-0.0028744
-0.00271926
-0.0025706
-0.00242807
-0.00229134
-0.00216006
-0.00203395
-0.00191268
-0.00179599
-0.00168359
-0.00157521
-0.0014706
-0.00136951
-0.0012717
-0.00117693
-0.00108497
-0.000995623
-0.000908659
-0.000823875
-0.000741066
-0.000660047
-0.000580594
-0.000502591
-0.000425676
-0.000350098
-0.000274614
-0.000201609
-0.000124336
-5.66218e-05
0.266341
0.266209
0.26592
0.265465
0.264845
0.264062
0.263116
0.262004
0.260726
0.259279
0.257661
0.25587
0.253904
0.251761
0.249437
0.24693
0.244238
0.241356
0.238281
0.235011
0.231543
0.227872
0.223996
0.219911
0.215614
0.211103
0.206373
0.201423
0.196249
0.190849
0.185222
0.179365
0.173277
0.166957
0.160404
0.153619
0.146601
0.139353
0.131876
0.124172
0.116244
0.108096
0.099733
0.0911598
0.0823826
0.0734084
0.0642448
0.0549003
0.0453841
0.0357061
0.0258772
0.0159087
0.00581276
-0.00439799
-0.0147102
-0.0251102
-0.0355836
-0.0461157
-0.0566915
-0.0672957
-0.0779128
-0.0885269
-0.0991223
-0.109683
-0.120194
-0.130638
-0.140999
-0.151264
-0.161415
-0.171438
-0.181318
-0.191039
-0.200589
-0.209951
-0.219114
-0.228063
-0.236785
-0.245268
-0.253498
-0.261465
-0.269156
-0.27656
-0.283666
-0.290463
-0.296942
-0.303094
-0.308907
-0.314375
-0.319488
-0.32424
-0.328623
-0.33263
-0.336256
-0.339496
-0.342346
-0.344801
-0.34686
-0.348521
-0.349782
-0.350644
-0.351109
-0.351178
-0.350855
-0.350144
-0.349051
-0.347582
-0.345746
-0.343551
-0.341007
-0.338126
-0.334918
-0.331398
-0.327579
-0.323477
-0.319105
-0.314482
-0.309622
-0.304545
-0.299266
-0.293805
-0.288179
-0.282406
-0.276503
-0.270489
-0.26438
-0.258194
-0.251946
-0.245652
-0.239327
-0.232984
-0.226639
-0.220302
-0.213986
-0.207702
-0.201461
-0.195271
-0.189143
-0.183085
-0.177104
-0.171209
-0.165405
-0.159699
-0.154096
-0.148602
-0.143222
-0.137959
-0.132818
-0.1278
-0.12291
-0.118149
-0.113518
-0.109019
-0.104652
-0.100418
-0.0963172
-0.0923479
-0.0885097
-0.0848014
-0.0812213
-0.0777677
-0.0744384
-0.0712312
-0.0681437
-0.0651731
-0.0623168
-0.0595718
-0.0569351
-0.0544039
-0.0519749
-0.049645
-0.0474112
-0.0452704
-0.0432193
-0.041255
-0.0393743
-0.0375744
-0.0358521
-0.0342047
-0.0326292
-0.0311229
-0.029683
-0.028307
-0.0269923
-0.0257363
-0.0245366
-0.0233909
-0.022297
-0.0212526
-0.0202557
-0.0193041
-0.018396
-0.0175294
-0.0167026
-0.0159137
-0.0151611
-0.0144431
-0.0137583
-0.013105
-0.012482
-0.0118878
-0.0113211
-0.0107807
-0.0102652
-0.00977373
-0.00930499
-0.00885797
-0.00843167
-0.00802511
-0.00763736
-0.00726755
-0.00691482
-0.00657836
-0.00625739
-0.00595118
-0.00565901
-0.00538022
-0.00511414
-0.00486017
-0.00461771
-0.00438619
-0.00416507
-0.00395384
-0.003752
-0.00355907
-0.0033746
-0.00319816
-0.00302933
-0.00286772
-0.00271293
-0.00256462
-0.00242241
-0.00228599
-0.00215501
-0.00202919
-0.00190821
-0.00179178
-0.00167964
-0.00157152
-0.00146715
-0.00136629
-0.00126871
-0.00117416
-0.00108242
-0.000993279
-0.000906518
-0.000821934
-0.000739319
-0.000658491
-0.000579224
-0.000501407
-0.000424667
-0.000349277
-0.000273936
-0.000201154
-0.000123884
-5.67419e-05
0.266663
0.266531
0.266243
0.265788
0.265169
0.264387
0.263442
0.262332
0.261056
0.259611
0.257995
0.256207
0.254243
0.252102
0.249781
0.247276
0.244586
0.241706
0.238634
0.235366
0.231899
0.228229
0.224354
0.22027
0.215973
0.211461
0.206731
0.201779
0.196602
0.191199
0.185568
0.179705
0.173611
0.167284
0.160723
0.153928
0.1469
0.13964
0.132149
0.124431
0.116487
0.108322
0.0999409
0.0913482
0.0825503
0.0735543
0.0643677
0.0549992
0.0454581
0.0357545
0.0258991
0.0159036
0.00578003
-0.00445871
-0.0147992
-0.0252276
-0.0357294
-0.0462899
-0.0568939
-0.067526
-0.0781705
-0.0888117
-0.0994336
-0.11002
-0.120556
-0.131024
-0.14141
-0.151697
-0.16187
-0.171914
-0.181814
-0.191555
-0.201123
-0.210503
-0.219683
-0.228648
-0.237386
-0.245884
-0.254129
-0.262109
-0.269813
-0.27723
-0.284348
-0.291157
-0.297648
-0.30381
-0.309634
-0.315111
-0.320234
-0.324995
-0.329386
-0.333401
-0.337034
-0.34028
-0.343135
-0.345595
-0.347657
-0.34932
-0.350582
-0.351445
-0.351909
-0.351975
-0.351648
-0.350932
-0.349833
-0.348356
-0.346511
-0.344305
-0.341748
-0.338853
-0.33563
-0.332093
-0.328256
-0.324134
-0.319742
-0.315096
-0.310213
-0.305111
-0.299808
-0.29432
-0.288667
-0.282866
-0.276936
-0.270893
-0.264756
-0.25854
-0.252263
-0.245941
-0.239587
-0.233216
-0.226843
-0.220479
-0.214137
-0.207827
-0.201561
-0.195348
-0.189197
-0.183118
-0.177116
-0.171202
-0.16538
-0.159657
-0.154038
-0.14853
-0.143137
-0.137862
-0.132709
-0.127682
-0.122783
-0.118014
-0.113376
-0.108871
-0.1045
-0.100262
-0.0961573
-0.0921854
-0.0883453
-0.0846357
-0.0810549
-0.0776012
-0.0742723
-0.071066
-0.0679797
-0.0650107
-0.0621563
-0.0594136
-0.0567795
-0.054251
-0.0518249
-0.0494982
-0.0472677
-0.0451302
-0.0430827
-0.0411219
-0.0392449
-0.0374486
-0.03573
-0.0340863
-0.0325145
-0.0310118
-0.0295756
-0.0282032
-0.026892
-0.0256395
-0.0244433
-0.023301
-0.0222104
-0.0211692
-0.0201754
-0.019227
-0.0183218
-0.0174582
-0.0166341
-0.015848
-0.015098
-0.0143826
-0.0137003
-0.0130495
-0.0124288
-0.0118368
-0.0112723
-0.0107339
-0.0102205
-0.00973097
-0.0092641
-0.00881888
-0.00839431
-0.00798942
-0.00760327
-0.007235
-0.00688374
-0.0065487
-0.00622909
-0.00592419
-0.00563328
-0.00535569
-0.00509077
-0.00483791
-0.00459651
-0.00436601
-0.00414587
-0.00393558
-0.00373464
-0.00354257
-0.00335894
-0.00318329
-0.00301523
-0.00285435
-0.00270027
-0.00255263
-0.00241107
-0.00227527
-0.00214491
-0.00201966
-0.00189924
-0.00178336
-0.00167174
-0.00156411
-0.00146023
-0.00135985
-0.00126272
-0.00116861
-0.00107731
-0.000988584
-0.000902231
-0.000818045
-0.000735821
-0.000655373
-0.000576481
-0.000499031
-0.000422652
-0.000347619
-0.000272628
-0.0002002
-0.000123285
-5.65479e-05
0.267145
0.267013
0.266726
0.266272
0.265655
0.264875
0.263932
0.262824
0.261551
0.260108
0.258496
0.256711
0.254751
0.252614
0.250296
0.247795
0.245108
0.242232
0.239163
0.235898
0.232433
0.228766
0.224892
0.220809
0.216513
0.212
0.207268
0.202313
0.197133
0.191725
0.186087
0.180217
0.174114
0.167776
0.161202
0.154393
0.147349
0.140071
0.132561
0.12482
0.116853
0.108663
0.100254
0.0916316
0.0828026
0.0737736
0.0645525
0.055148
0.0455694
0.035827
0.0259318
0.0158955
0.00573041
-0.00455046
-0.0149335
-0.0254047
-0.0359493
-0.0465525
-0.057199
-0.067873
-0.0785589
-0.0892407
-0.0999023
-0.110528
-0.121101
-0.131606
-0.142027
-0.152348
-0.162554
-0.17263
-0.18256
-0.19233
-0.201926
-0.211333
-0.220538
-0.229528
-0.238289
-0.246809
-0.255076
-0.263077
-0.270801
-0.278237
-0.285373
-0.2922
-0.298708
-0.304886
-0.310726
-0.316218
-0.321355
-0.326129
-0.330532
-0.334559
-0.338202
-0.341458
-0.34432
-0.346787
-0.348855
-0.350522
-0.351786
-0.352649
-0.353111
-0.353175
-0.352842
-0.352119
-0.351009
-0.349521
-0.347661
-0.345439
-0.342864
-0.339947
-0.336701
-0.333139
-0.329275
-0.325123
-0.320699
-0.31602
-0.311102
-0.305964
-0.300622
-0.295095
-0.289402
-0.283559
-0.277587
-0.271501
-0.26532
-0.259061
-0.252741
-0.246375
-0.239978
-0.233565
-0.22715
-0.220745
-0.214363
-0.208015
-0.201712
-0.195463
-0.189278
-0.183166
-0.177134
-0.17119
-0.165341
-0.159593
-0.153951
-0.148421
-0.143008
-0.137715
-0.132546
-0.127504
-0.122592
-0.117811
-0.113163
-0.10865
-0.104271
-0.100026
-0.0959169
-0.0919411
-0.0880982
-0.0843867
-0.080805
-0.0773511
-0.0740228
-0.0708177
-0.0677333
-0.0647669
-0.0619155
-0.0591762
-0.0565459
-0.0540215
-0.0515999
-0.049278
-0.0470524
-0.04492
-0.0428777
-0.0409224
-0.0390508
-0.03726
-0.035547
-0.0339088
-0.0323425
-0.0308454
-0.0294146
-0.0280476
-0.0267418
-0.0254945
-0.0243034
-0.0231662
-0.0220806
-0.0210443
-0.0200552
-0.0191113
-0.0182107
-0.0173514
-0.0165316
-0.0157496
-0.0150036
-0.0142921
-0.0136135
-0.0129663
-0.0123491
-0.0117605
-0.0111992
-0.010664
-0.0101536
-0.00966693
-0.00920287
-0.00876035
-0.00833837
-0.00793597
-0.00755223
-0.00718625
-0.00683721
-0.0065043
-0.00618673
-0.00588379
-0.00559476
-0.00531897
-0.00505578
-0.00480458
-0.00456477
-0.0043358
-0.00411713
-0.00390824
-0.00370865
-0.00351788
-0.00333549
-0.00316103
-0.00299411
-0.00283433
-0.00268131
-0.00253468
-0.0023941
-0.00225924
-0.00212978
-0.0020054
-0.00188582
-0.00177074
-0.0016599
-0.00155303
-0.00144988
-0.0013502
-0.00125376
-0.00116031
-0.00106965
-0.000981557
-0.000895815
-0.000812226
-0.000730584
-0.000650708
-0.000572375
-0.000495477
-0.00041964
-0.000345141
-0.000270683
-0.000198776
-0.000122411
-5.61587e-05
0.267787
0.267656
0.267369
0.266917
0.266301
0.265524
0.264584
0.26348
0.26221
0.260772
0.259163
0.257383
0.255428
0.253295
0.250983
0.248487
0.245805
0.242933
0.239868
0.236607
0.233146
0.229482
0.225611
0.221529
0.217233
0.212719
0.207985
0.203027
0.197842
0.192428
0.186782
0.180902
0.174786
0.168434
0.161844
0.155016
0.14795
0.140648
0.133111
0.125342
0.117343
0.109118
0.100673
0.0920111
0.0831403
0.0740672
0.0647998
0.0553469
0.0457181
0.0359238
0.0259752
0.0158842
0.00566335
-0.00467405
-0.0151142
-0.0256427
-0.0362448
-0.0469053
-0.0576085
-0.0683388
-0.0790801
-0.0898163
-0.100531
-0.111208
-0.121832
-0.132386
-0.142854
-0.153221
-0.163471
-0.173588
-0.183559
-0.193368
-0.203001
-0.212444
-0.221683
-0.230705
-0.239498
-0.248048
-0.256343
-0.264371
-0.272122
-0.279583
-0.286744
-0.293595
-0.300125
-0.306325
-0.312185
-0.317698
-0.322854
-0.327645
-0.332065
-0.336107
-0.339765
-0.343033
-0.345907
-0.348383
-0.350458
-0.35213
-0.353397
-0.354261
-0.354721
-0.35478
-0.354441
-0.353707
-0.352585
-0.351081
-0.349202
-0.346958
-0.344358
-0.341413
-0.338136
-0.33454
-0.330639
-0.326447
-0.321981
-0.317258
-0.312293
-0.307106
-0.301713
-0.296133
-0.290385
-0.284488
-0.278458
-0.272315
-0.266076
-0.259759
-0.25338
-0.246956
-0.240501
-0.234031
-0.22756
-0.221101
-0.214665
-0.208265
-0.201912
-0.195616
-0.189385
-0.18323
-0.177157
-0.171174
-0.165289
-0.159507
-0.153834
-0.148275
-0.142835
-0.137518
-0.132327
-0.127265
-0.122335
-0.117539
-0.112878
-0.108352
-0.103964
-0.0997114
-0.0955952
-0.0916144
-0.0877677
-0.0840538
-0.0804708
-0.0770168
-0.0736894
-0.0704861
-0.0674043
-0.0644412
-0.0615939
-0.0588592
-0.056234
-0.0537153
-0.0512997
-0.0489841
-0.0467652
-0.0446397
-0.0426044
-0.0406563
-0.038792
-0.0370086
-0.035303
-0.0336722
-0.0321133
-0.0306236
-0.0292001
-0.0278403
-0.0265416
-0.0253013
-0.0241172
-0.0229867
-0.0219077
-0.0208778
-0.0198951
-0.0189574
-0.0180627
-0.0172092
-0.0163951
-0.0156185
-0.0148779
-0.0141715
-0.0134979
-0.0128555
-0.0122429
-0.0116589
-0.0111019
-0.0105709
-0.0100645
-0.00958173
-0.0091214
-0.00868247
-0.00826395
-0.00786487
-0.00748432
-0.00712141
-0.00677531
-0.00644523
-0.00613038
-0.00583004
-0.00554351
-0.00527013
-0.00500924
-0.00476025
-0.00452256
-0.00429562
-0.0040789
-0.00387189
-0.00367409
-0.00348504
-0.0033043
-0.00313143
-0.00296603
-0.00280771
-0.00265609
-0.00251082
-0.00237154
-0.00223792
-0.00210966
-0.00198644
-0.00186797
-0.00175397
-0.00164417
-0.0015383
-0.00143612
-0.00133738
-0.00124184
-0.00114928
-0.00105947
-0.000972212
-0.000887283
-0.000804487
-0.000723621
-0.000644504
-0.000566917
-0.00049075
-0.000415636
-0.000341848
-0.0002681
-0.000196881
-0.000121244
-5.56264e-05
0.268589
0.268458
0.268173
0.267723
0.267109
0.266335
0.265399
0.264299
0.263033
0.2616
0.259997
0.258223
0.256274
0.254148
0.251841
0.249352
0.246676
0.24381
0.240751
0.237495
0.234039
0.230378
0.22651
0.22243
0.218135
0.213621
0.208884
0.203922
0.198732
0.193309
0.187653
0.181761
0.17563
0.16926
0.162649
0.155797
0.148705
0.141373
0.133803
0.125998
0.117959
0.109691
0.101199
0.0924882
0.0835648
0.0744362
0.0651105
0.0555967
0.0459046
0.0360449
0.026029
0.015869
0.00557801
-0.00483059
-0.0153426
-0.0259434
-0.0366178
-0.0473503
-0.0581251
-0.0689261
-0.0797371
-0.0905416
-0.101323
-0.112066
-0.122753
-0.133368
-0.143895
-0.154319
-0.164624
-0.174794
-0.184815
-0.194673
-0.204352
-0.213839
-0.223121
-0.232184
-0.241015
-0.249602
-0.257933
-0.265996
-0.273779
-0.281272
-0.288464
-0.295344
-0.301903
-0.30813
-0.314017
-0.319554
-0.324734
-0.329548
-0.333989
-0.338051
-0.341726
-0.34501
-0.347898
-0.350386
-0.35247
-0.354149
-0.355421
-0.356286
-0.356744
-0.356797
-0.356449
-0.355704
-0.354565
-0.353041
-0.351139
-0.348867
-0.346236
-0.343256
-0.339941
-0.336302
-0.332354
-0.328113
-0.323594
-0.318815
-0.313791
-0.308542
-0.303085
-0.297439
-0.291622
-0.285654
-0.279554
-0.273338
-0.267026
-0.260635
-0.254183
-0.247685
-0.241158
-0.234616
-0.228075
-0.221546
-0.215044
-0.208579
-0.202163
-0.195807
-0.189519
-0.183308
-0.177184
-0.171152
-0.165221
-0.159397
-0.153684
-0.148089
-0.142616
-0.137269
-0.13205
-0.126964
-0.122012
-0.117197
-0.112519
-0.107979
-0.103578
-0.0993156
-0.0951913
-0.0912042
-0.087353
-0.0836361
-0.0800517
-0.0765976
-0.0732714
-0.0700705
-0.0669921
-0.0640333
-0.0611911
-0.0584623
-0.0558437
-0.053332
-0.0509241
-0.0486164
-0.0464059
-0.044289
-0.0422627
-0.0403235
-0.0384685
-0.0366943
-0.034998
-0.0333766
-0.031827
-0.0303465
-0.0289322
-0.0275814
-0.0262916
-0.0250602
-0.0238846
-0.0227626
-0.0216918
-0.0206701
-0.0196952
-0.0187652
-0.0178781
-0.0170319
-0.0162248
-0.0154551
-0.0147211
-0.0140211
-0.0133537
-0.0127174
-0.0121106
-0.0115321
-0.0109806
-0.0104548
-0.00995345
-0.0094755
-0.00901982
-0.00858538
-0.00817117
-0.00777623
-0.00739966
-0.00704058
-0.00669816
-0.0063716
-0.00606014
-0.00576306
-0.00547965
-0.00520926
-0.00495124
-0.004705
-0.00446996
-0.00424556
-0.00403127
-0.00382658
-0.00363102
-0.00344412
-0.00326543
-0.00309454
-0.00293104
-0.00277454
-0.00262468
-0.00248108
-0.00234342
-0.00221136
-0.00208459
-0.00196281
-0.00184573
-0.00173307
-0.00162456
-0.00151994
-0.00141897
-0.0013214
-0.00122699
-0.00113553
-0.00104679
-0.000960571
-0.000876655
-0.000794847
-0.000714946
-0.000636776
-0.000560117
-0.000484863
-0.000410649
-0.000337746
-0.000264883
-0.000194519
-0.000119789
-5.49613e-05
0.26955
0.26942
0.269136
0.268688
0.268077
0.267307
0.266375
0.26528
0.26402
0.262594
0.260998
0.25923
0.257289
0.25517
0.252872
0.25039
0.247722
0.244863
0.241811
0.238562
0.235112
0.231456
0.227591
0.223514
0.21922
0.214705
0.209967
0.205
0.199803
0.194372
0.188703
0.182796
0.176647
0.170256
0.163621
0.156741
0.149617
0.142249
0.134639
0.126789
0.118703
0.110383
0.101835
0.0930646
0.0840777
0.0748819
0.0654857
0.0558981
0.0461294
0.0361904
0.0260929
0.0158495
0.00547337
-0.0050215
-0.0156206
-0.0263089
-0.0370708
-0.0478906
-0.0587519
-0.0696384
-0.0805335
-0.0914205
-0.102283
-0.113104
-0.123867
-0.134556
-0.145154
-0.155647
-0.166018
-0.176251
-0.186333
-0.196249
-0.205983
-0.215524
-0.224856
-0.233968
-0.242845
-0.251477
-0.259851
-0.267955
-0.275778
-0.283309
-0.290538
-0.297453
-0.304046
-0.310306
-0.316224
-0.321792
-0.327
-0.331842
-0.336309
-0.340394
-0.344091
-0.347395
-0.3503
-0.352803
-0.354899
-0.356586
-0.357864
-0.35873
-0.359186
-0.359234
-0.358875
-0.358115
-0.356958
-0.35541
-0.35348
-0.351175
-0.348506
-0.345485
-0.342122
-0.338432
-0.334428
-0.330127
-0.325545
-0.320697
-0.315602
-0.310278
-0.304743
-0.299017
-0.293117
-0.287065
-0.280877
-0.274574
-0.268173
-0.261694
-0.255152
-0.248566
-0.24195
-0.235322
-0.228695
-0.222083
-0.215499
-0.208956
-0.202464
-0.196035
-0.189677
-0.183401
-0.177214
-0.171124
-0.165138
-0.159262
-0.153502
-0.147864
-0.14235
-0.136967
-0.131715
-0.1266
-0.121622
-0.116783
-0.112085
-0.107528
-0.103112
-0.0988378
-0.0947038
-0.0907094
-0.0868529
-0.0831327
-0.0795468
-0.0760928
-0.0727682
-0.0695702
-0.066496
-0.0635425
-0.0607066
-0.057985
-0.0553744
-0.0528714
-0.0504727
-0.0481748
-0.0459744
-0.043868
-0.0418524
-0.0399242
-0.0380802
-0.0363173
-0.0346322
-0.033022
-0.0314836
-0.0300142
-0.0286109
-0.0272711
-0.025992
-0.0247711
-0.023606
-0.0224941
-0.0214333
-0.0204213
-0.0194559
-0.0185351
-0.017657
-0.0168195
-0.0160209
-0.0152594
-0.0145334
-0.0138412
-0.0131812
-0.0125521
-0.0119523
-0.0113805
-0.0108355
-0.0103159
-0.00982057
-0.00934842
-0.00889833
-0.00846925
-0.0080602
-0.00767023
-0.00729842
-0.00694393
-0.0066059
-0.00628357
-0.00597616
-0.00568297
-0.00540329
-0.00513648
-0.0048819
-0.00463896
-0.00440707
-0.0041857
-0.00397432
-0.00377242
-0.00357954
-0.0033952
-0.00321898
-0.00305045
-0.00288922
-0.0027349
-0.00258713
-0.00244554
-0.00230981
-0.00217961
-0.00205463
-0.00193458
-0.00181916
-0.0017081
-0.00160113
-0.00149801
-0.00139848
-0.0013023
-0.00120925
-0.0011191
-0.00103164
-0.00094666
-0.000863953
-0.000783326
-0.000704581
-0.000627541
-0.000551992
-0.000477828
-0.000404689
-0.000332844
-0.000261038
-0.000191697
-0.000118051
-5.41658e-05
0.270669
0.270539
0.270257
0.269812
0.269205
0.268439
0.267512
0.266424
0.265171
0.263751
0.262164
0.260405
0.258472
0.256363
0.254074
0.251602
0.248943
0.246093
0.24305
0.239809
0.236365
0.232716
0.228856
0.224782
0.22049
0.215975
0.211234
0.206263
0.201058
0.195617
0.189935
0.184011
0.177842
0.171426
0.164762
0.157849
0.150688
0.143278
0.135621
0.12772
0.119578
0.111197
0.102583
0.0937425
0.0846808
0.0754059
0.0659265
0.056252
0.0463929
0.0363603
0.0261666
0.0158246
0.00534815
-0.00524851
-0.0159503
-0.0267418
-0.037607
-0.0485295
-0.0594927
-0.0704798
-0.0814739
-0.0924579
-0.103415
-0.114328
-0.125181
-0.135956
-0.146638
-0.157211
-0.167659
-0.177966
-0.188119
-0.198102
-0.207901
-0.217503
-0.226895
-0.236063
-0.244994
-0.253678
-0.262101
-0.270253
-0.278122
-0.285698
-0.292969
-0.299926
-0.306559
-0.312857
-0.318813
-0.324416
-0.329658
-0.334532
-0.339029
-0.343143
-0.346867
-0.350194
-0.35312
-0.35564
-0.357751
-0.359449
-0.360733
-0.361602
-0.362056
-0.362097
-0.361728
-0.360951
-0.359772
-0.358197
-0.356234
-0.353891
-0.351178
-0.348106
-0.344689
-0.340938
-0.33687
-0.332498
-0.32784
-0.322912
-0.317733
-0.312321
-0.306695
-0.300873
-0.294876
-0.288724
-0.282434
-0.276027
-0.269522
-0.262937
-0.256291
-0.2496
-0.242881
-0.23615
-0.229422
-0.222712
-0.216032
-0.209396
-0.202815
-0.1963
-0.189861
-0.183507
-0.177247
-0.171088
-0.165037
-0.159101
-0.153286
-0.147596
-0.142036
-0.136609
-0.13132
-0.12617
-0.121161
-0.116295
-0.111574
-0.106997
-0.102565
-0.0982763
-0.0941314
-0.0901286
-0.0862662
-0.0825424
-0.0789548
-0.0755012
-0.0721786
-0.0689844
-0.0659153
-0.0629683
-0.06014
-0.0574269
-0.0548258
-0.0523331
-0.0499453
-0.0476589
-0.0454705
-0.0433765
-0.0413735
-0.0394582
-0.0376273
-0.0358775
-0.0342056
-0.0326086
-0.0310833
-0.029627
-0.0282366
-0.0269095
-0.025643
-0.0244345
-0.0232815
-0.0221815
-0.0211323
-0.0201317
-0.0191774
-0.0182674
-0.0173997
-0.0165724
-0.0157837
-0.0150318
-0.0143151
-0.0136318
-0.0129806
-0.0123598
-0.0117682
-0.0112042
-0.0106667
-0.0101544
-0.00966613
-0.00920072
-0.00875712
-0.00833429
-0.00793125
-0.00754705
-0.00718079
-0.00683162
-0.00649871
-0.00618129
-0.0058786
-0.00558993
-0.00531459
-0.00505194
-0.00480136
-0.00456224
-0.00433403
-0.00411619
-0.00390818
-0.00370953
-0.00351975
-0.0033384
-0.00316504
-0.00299926
-0.00284066
-0.00268887
-0.00254353
-0.00240428
-0.00227079
-0.00214275
-0.00201985
-0.0019018
-0.0017883
-0.0016791
-0.00157393
-0.00147254
-0.00137468
-0.00128013
-0.00118865
-0.00110003
-0.00101405
-0.00093051
-0.000849208
-0.000769952
-0.000692547
-0.00061682
-0.000542559
-0.000469661
-0.000397772
-0.000327154
-0.000256575
-0.00018842
-0.000116034
-5.32418e-05
0.271945
0.271816
0.271536
0.271094
0.270491
0.26973
0.26881
0.267729
0.266484
0.265073
0.263495
0.261746
0.259824
0.257726
0.255448
0.252987
0.250339
0.247501
0.244468
0.241236
0.237801
0.234159
0.230306
0.226237
0.221947
0.217433
0.212689
0.207714
0.202501
0.197048
0.191351
0.185408
0.179216
0.172772
0.166076
0.159126
0.151922
0.144464
0.136754
0.128794
0.120587
0.112136
0.103447
0.0945246
0.0853765
0.0760102
0.0664346
0.0566595
0.0466956
0.0365548
0.0262497
0.0157936
0.00520081
-0.00551371
-0.0163345
-0.0272454
-0.0382299
-0.0492712
-0.0603522
-0.0714555
-0.0825638
-0.0936597
-0.104726
-0.115745
-0.1267
-0.137575
-0.148353
-0.159017
-0.169553
-0.179945
-0.190179
-0.200239
-0.210112
-0.219784
-0.229243
-0.238475
-0.247468
-0.256211
-0.26469
-0.272897
-0.280818
-0.288444
-0.295765
-0.302769
-0.309447
-0.31579
-0.321788
-0.327433
-0.332715
-0.337626
-0.342159
-0.346305
-0.350059
-0.353415
-0.356365
-0.358906
-0.361034
-0.362746
-0.364038
-0.364911
-0.365364
-0.365398
-0.365016
-0.364221
-0.363017
-0.361411
-0.359411
-0.357024
-0.354261
-0.351133
-0.347652
-0.343832
-0.339688
-0.335235
-0.33049
-0.32547
-0.320194
-0.31468
-0.308947
-0.303016
-0.296907
-0.290638
-0.28423
-0.277704
-0.271078
-0.264371
-0.257603
-0.250791
-0.243951
-0.237102
-0.230258
-0.223434
-0.216644
-0.209901
-0.203216
-0.196602
-0.190069
-0.183625
-0.17728
-0.171042
-0.164917
-0.158912
-0.153033
-0.147284
-0.14167
-0.136195
-0.130861
-0.125672
-0.120628
-0.115732
-0.110984
-0.106385
-0.101933
-0.0976295
-0.0934723
-0.0894602
-0.0855913
-0.0818636
-0.0782746
-0.0748216
-0.0715018
-0.0683121
-0.0652492
-0.0623098
-0.0594904
-0.0567874
-0.0541974
-0.0517167
-0.0493416
-0.0470685
-0.044894
-0.0428143
-0.0408259
-0.0389255
-0.0371097
-0.035375
-0.0337183
-0.0321364
-0.0306263
-0.0291849
-0.0278094
-0.026497
-0.0252449
-0.0240505
-0.0229114
-0.0218251
-0.0207892
-0.0198015
-0.0188599
-0.0179622
-0.0171066
-0.0162909
-0.0155135
-0.0147726
-0.0140665
-0.0133935
-0.0127522
-0.012141
-0.0115586
-0.0110036
-0.0104747
-0.00997067
-0.00949037
-0.00903265
-0.00859645
-0.00818074
-0.00778454
-0.00740692
-0.00704698
-0.00670388
-0.0063768
-0.00606497
-0.00576764
-0.00548412
-0.00521373
-0.00495582
-0.00470978
-0.00447502
-0.00425099
-0.00403715
-0.00383299
-0.00363803
-0.00345178
-0.00327382
-0.00310372
-0.00294106
-0.00278546
-0.00263655
-0.00249397
-0.00235738
-0.00222644
-0.00210086
-0.00198032
-0.00186454
-0.00175324
-0.00164615
-0.00154302
-0.0014436
-0.00134765
-0.00125493
-0.00116524
-0.00107835
-0.000994059
-0.000912158
-0.000832453
-0.000754755
-0.000678873
-0.000604637
-0.000531841
-0.000460381
-0.000389911
-0.000320688
-0.000251504
-0.000184696
-0.000113741
-5.21916e-05
0.273377
0.273249
0.272971
0.272533
0.271935
0.27118
0.270267
0.269194
0.267959
0.266558
0.264991
0.263254
0.261344
0.259259
0.256994
0.254546
0.251911
0.249085
0.246064
0.242844
0.23942
0.235788
0.231942
0.227878
0.223592
0.219079
0.214335
0.209354
0.204133
0.198668
0.192955
0.186991
0.180773
0.174299
0.167567
0.160575
0.153323
0.145811
0.138041
0.130015
0.121734
0.113204
0.104428
0.095414
0.0861675
0.076697
0.0670117
0.0571218
0.0470385
0.036774
0.0263415
0.0157551
0.00502952
-0.0058196
-0.0167761
-0.0278233
-0.038944
-0.0501208
-0.0613359
-0.0725715
-0.0838097
-0.0950326
-0.106222
-0.117362
-0.128434
-0.139421
-0.150306
-0.161075
-0.17171
-0.182197
-0.192521
-0.202668
-0.212623
-0.222374
-0.231908
-0.241212
-0.250274
-0.259082
-0.267625
-0.275892
-0.283873
-0.291556
-0.298931
-0.305988
-0.312718
-0.319111
-0.325158
-0.330849
-0.336176
-0.34113
-0.345704
-0.349889
-0.353678
-0.357066
-0.360045
-0.362611
-0.36476
-0.366487
-0.367791
-0.368669
-0.369121
-0.369149
-0.368753
-0.367938
-0.366707
-0.365067
-0.363024
-0.360588
-0.357769
-0.354576
-0.351024
-0.347126
-0.342896
-0.33835
-0.333506
-0.328381
-0.322994
-0.317364
-0.311511
-0.305455
-0.299216
-0.292815
-0.286273
-0.27961
-0.272846
-0.266
-0.259093
-0.252142
-0.245166
-0.238181
-0.231205
-0.224251
-0.217335
-0.210469
-0.203668
-0.196941
-0.1903
-0.183755
-0.177313
-0.170985
-0.164775
-0.158692
-0.15274
-0.146925
-0.141251
-0.13572
-0.130337
-0.125104
-0.120021
-0.115091
-0.110313
-0.105688
-0.101216
-0.0968952
-0.0927245
-0.0887023
-0.0848266
-0.0810949
-0.0775046
-0.0740528
-0.0707364
-0.0675522
-0.0644966
-0.0615661
-0.0587571
-0.0560658
-0.0534886
-0.0510216
-0.0486611
-0.0464034
-0.0442447
-0.0421813
-0.0402096
-0.0383261
-0.0365274
-0.0348099
-0.0331704
-0.0316058
-0.0301127
-0.0286883
-0.0273296
-0.0260337
-0.0247979
-0.0236195
-0.0224961
-0.0214251
-0.0204042
-0.0194312
-0.0185039
-0.0176201
-0.0167779
-0.0159754
-0.0152107
-0.0144821
-0.0137879
-0.0131264
-0.0124963
-0.0118959
-0.0113238
-0.0107789
-0.0102596
-0.00976493
-0.0092936
-0.00884452
-0.00841662
-0.00800889
-0.00762036
-0.00725011
-0.00689725
-0.00656095
-0.00624039
-0.00593483
-0.00564351
-0.00536576
-0.0051009
-0.00484829
-0.00460734
-0.00437747
-0.00415812
-0.00394877
-0.00374891
-0.00355807
-0.00337578
-0.00320162
-0.00303515
-0.00287599
-0.00272375
-0.00257805
-0.00243856
-0.00230494
-0.00217686
-0.00205402
-0.00193613
-0.00182289
-0.00171404
-0.00160932
-0.00150846
-0.00141124
-0.00131742
-0.00122677
-0.00113908
-0.00105413
-0.000971714
-0.000891645
-0.000813724
-0.000737768
-0.000663589
-0.000591021
-0.000519861
-0.000450008
-0.000381125
-0.000313461
-0.000245836
-0.000180534
-0.000111179
-5.10177e-05
0.274964
0.274837
0.274562
0.274128
0.273536
0.272788
0.271883
0.270819
0.269594
0.268206
0.266651
0.264928
0.263032
0.260961
0.258711
0.256279
0.253659
0.250848
0.247842
0.244635
0.241223
0.237602
0.233766
0.22971
0.225429
0.220918
0.216173
0.211188
0.205959
0.200481
0.194751
0.188765
0.182519
0.176012
0.169239
0.162201
0.154896
0.147325
0.139488
0.131386
0.123024
0.114404
0.105532
0.0964143
0.087057
0.077469
0.06766
0.0576404
0.0474221
0.0370179
0.0264415
0.0157078
0.00483214
-0.00616909
-0.017279
-0.02848
-0.0397544
-0.0510839
-0.0624502
-0.0738347
-0.0852189
-0.0965845
-0.107913
-0.119187
-0.130389
-0.141502
-0.152508
-0.163392
-0.174138
-0.18473
-0.195155
-0.205397
-0.215444
-0.225282
-0.234899
-0.244282
-0.25342
-0.262301
-0.270914
-0.279248
-0.287293
-0.295039
-0.302475
-0.309592
-0.316379
-0.322828
-0.328929
-0.334673
-0.340051
-0.345054
-0.349673
-0.353902
-0.357733
-0.361157
-0.36417
-0.366766
-0.368939
-0.370685
-0.372002
-0.372887
-0.373341
-0.373362
-0.372952
-0.372115
-0.370855
-0.369177
-0.367088
-0.364598
-0.361715
-0.358451
-0.354819
-0.350832
-0.346506
-0.341857
-0.336902
-0.331659
-0.326147
-0.320386
-0.314396
-0.308199
-0.301815
-0.295265
-0.28857
-0.281753
-0.274832
-0.26783
-0.260766
-0.253659
-0.246528
-0.239391
-0.232264
-0.225164
-0.218106
-0.211103
-0.204169
-0.197315
-0.190553
-0.183893
-0.177344
-0.170914
-0.16461
-0.158439
-0.152406
-0.146517
-0.140775
-0.135183
-0.129745
-0.124462
-0.119336
-0.114368
-0.109558
-0.104906
-0.10041
-0.096071
-0.0918858
-0.0878529
-0.08397
-0.0802344
-0.0766432
-0.0731932
-0.0698812
-0.0667035
-0.0636565
-0.0607364
-0.0579393
-0.0552615
-0.0526989
-0.0502475
-0.0479036
-0.0456631
-0.0435223
-0.0414773
-0.0395245
-0.03766
-0.0358805
-0.0341823
-0.0325622
-0.0310167
-0.0295428
-0.0281374
-0.0267974
-0.02552
-0.0243023
-0.0231418
-0.0220359
-0.020982
-0.0199779
-0.0190212
-0.0181097
-0.0172414
-0.0164142
-0.0156262
-0.0148756
-0.0141607
-0.0134797
-0.0128311
-0.0122133
-0.0116248
-0.0110643
-0.0105305
-0.010022
-0.00953757
-0.00907616
-0.00863663
-0.00821792
-0.00781903
-0.00743899
-0.0070769
-0.00673188
-0.00640309
-0.00608976
-0.00579112
-0.00550646
-0.00523508
-0.00497633
-0.0047296
-0.00449427
-0.00426979
-0.00405561
-0.00385121
-0.00365611
-0.00346982
-0.00329191
-0.00312194
-0.00295949
-0.00280419
-0.00265565
-0.00251351
-0.00237743
-0.00224709
-0.00212216
-0.00200235
-0.00188737