/*--------------------------------*- C++ -*----------------------------------*\
| =========                 |                                                 |
| \\      /  F ield         | OpenFOAM: The Open Source CFD Toolbox           |
|  \\    /   O peration     | Version:  2306                                  |
|   \\  /    A nd           | Website:  www.openfoam.com                      |
|    \\/     M anipulation  |                                                 |
\*---------------------------------------------------------------------------*/
FoamFile
{
    version     2.0;
    format      ascii;
    arch        "LSB;label=32;scalar=64";
    class       surfaceScalarField;
    location    "3.5";
    object      phi;
}
// * * * * * * * * * * * * * * * * * * * * * * * * * * * * * * * * * * * * * //

dimensions      [0 3 -1 0 0 0 0];

oriented        oriented;

internalField   nonuniform List<scalar> 
65152
(
0.0062505
-5.02214e-07
0.00625201
-1.50818e-06
0.00625452
-2.51435e-06
0.00625805
-3.52182e-06
0.00626258
-4.53223e-06
0.00626813
-5.54661e-06
0.00627469
-6.56562e-06
0.00628228
-7.58995e-06
0.0062909
-8.62037e-06
0.00630056
-9.6576e-06
0.00631126
-1.07023e-05
0.00632302
-1.1755e-05
0.00633583
-1.28161e-05
0.00634972
-1.38862e-05
0.00636468
-1.49653e-05
0.00638074
-1.60538e-05
0.00639789
-1.71516e-05
0.00641615
-1.82587e-05
0.00643552
-1.93748e-05
0.00645602
-2.04997e-05
0.00647766
-2.16327e-05
0.00650043
-2.27733e-05
0.00652435
-2.39205e-05
0.00654942
-2.50734e-05
0.00657565
-2.62307e-05
0.00660304
-2.73911e-05
0.0066316
-2.8553e-05
0.00666131
-2.97145e-05
0.00669219
-3.08739e-05
0.00672421
-3.20288e-05
0.00675739
-3.3177e-05
0.00679171
-3.4316e-05
0.00682715
-3.54431e-05
0.00686371
-3.65553e-05
0.00690136
-3.76498e-05
0.00694008
-3.87233e-05
0.00697985
-3.97726e-05
0.00702065
-4.07944e-05
0.00706243
-4.17852e-05
0.00710517
-4.27416e-05
0.00714883
-4.366e-05
0.00719337
-4.45369e-05
0.00723874
-4.53689e-05
0.00728489
-4.61526e-05
0.00733178
-4.68846e-05
0.00737934
-4.75618e-05
0.00742752
-4.8181e-05
0.00747626
-4.87395e-05
0.00752549
-4.92346e-05
0.00757516
-4.96637e-05
0.00762518
-5.00249e-05
0.0076755
-5.0316e-05
0.00772603
-5.05354e-05
0.00777671
-5.06819e-05
0.00782747
-5.07542e-05
0.00787822
-5.07516e-05
0.00792889
-5.06737e-05
0.00797941
-5.05202e-05
0.00802971
-5.02912e-05
0.00807969
-4.9987e-05
0.0081293
-4.96082e-05
0.00817846
-4.91556e-05
0.00822709
-4.86302e-05
0.00827512
-4.80333e-05
0.00832249
-4.7366e-05
0.00836912
-4.66301e-05
0.00841494
-4.5827e-05
0.0084599
-4.49584e-05
0.00850393
-4.40262e-05
0.00854696
-4.3032e-05
0.00858894
-4.19777e-05
0.0086298
-4.08651e-05
0.0086695
-3.9696e-05
0.00870797
-3.84722e-05
0.00874517
-3.71955e-05
0.00878103
-3.58674e-05
0.00881552
-3.44896e-05
0.00884859
-3.30637e-05
0.00888018
-3.15913e-05
0.00891025
-3.00738e-05
0.00893876
-2.85126e-05
0.00896567
-2.69092e-05
0.00899094
-2.5265e-05
0.00901452
-2.35814e-05
0.00903638
-2.18597e-05
0.00905648
-2.01014e-05
0.00907479
-1.8308e-05
0.00909127
-1.64809e-05
0.00910589
-1.4622e-05
0.00911862
-1.27328e-05
0.00912944
-1.08153e-05
0.00913831
-8.87143e-06
0.00914521
-6.90336e-06
0.00915013
-4.91339e-06
0.00915303
-2.90404e-06
0.00915391
-8.78008e-07
0.00915275
1.16187e-06
0.00914954
3.21247e-06
0.00914427
5.27063e-06
0.00913693
7.33284e-06
0.00912754
9.39547e-06
0.00911608
1.14547e-05
0.00910258
1.35066e-05
0.00908703
1.5547e-05
0.00906946
1.75715e-05
0.00904988
1.95757e-05
0.00902833
2.15551e-05
0.00900482
2.35047e-05
0.0089794
2.54197e-05
0.00895211
2.72948e-05
0.00892298
2.91247e-05
0.00889208
3.09036e-05
0.00885945
3.26256e-05
0.00882517
3.42843e-05
0.0087893
3.58731e-05
0.00875191
3.73848e-05
0.0087131
3.88122e-05
0.00867295
4.01475e-05
0.00863157
4.13831e-05
0.00858906
4.25112e-05
0.00854553
4.35245e-05
0.00850112
4.44161e-05
0.00845594
4.51802e-05
0.00841012
4.5812e-05
0.00836382
4.63085e-05
0.00831715
4.66684e-05
0.00827025
4.68927e-05
0.00822327
4.69844e-05
0.00817632
4.69491e-05
0.00812953
4.67947e-05
0.008083
4.6531e-05
0.00803683
4.61695e-05
0.0079911
4.57233e-05
0.0079459
4.5206e-05
0.00790127
4.46317e-05
0.00785725
4.40139e-05
0.00781389
4.33656e-05
0.00777119
4.26983e-05
0.00772917
4.20219e-05
0.00768782
4.13445e-05
0.00764715
4.06719e-05
0.00760714
4.00083e-05
0.00756778
3.93556e-05
0.00752907
3.87143e-05
0.00749099
3.80835e-05
0.00745353
3.7461e-05
0.00741668
3.68442e-05
0.00738045
3.623e-05
0.00734484
3.5615e-05
0.00730984
3.49962e-05
0.00727547
3.43709e-05
0.00724173
3.37367e-05
0.00720864
3.30921e-05
0.00717621
3.24359e-05
0.00714444
3.17675e-05
0.00711335
3.10872e-05
0.00708296
3.03953e-05
0.00705326
2.96928e-05
0.00702428
2.89811e-05
0.00699602
2.82615e-05
0.00696848
2.75357e-05
0.00694168
2.68057e-05
0.00691561
2.60731e-05
0.00689027
2.53397e-05
0.00686566
2.46075e-05
0.00684178
2.38779e-05
0.00681863
2.31528e-05
0.00679619
2.24336e-05
0.00677447
2.17217e-05
0.00675345
2.10184e-05
0.00673313
2.03247e-05
0.00671349
1.96419e-05
0.00669452
1.89707e-05
0.0066762
1.83121e-05
0.00665854
1.76666e-05
0.0066415
1.7035e-05
0.00662508
1.64176e-05
0.00660927
1.5815e-05
0.00659404
1.52274e-05
0.00657939
1.46551e-05
0.00656529
1.40983e-05
0.00655173
1.3557e-05
0.0065387
1.30315e-05
0.00652618
1.25216e-05
0.00651415
1.20273e-05
0.0065026
1.15485e-05
0.00649152
1.10851e-05
0.00648088
1.06369e-05
0.00647068
1.02037e-05
0.00646089
9.78532e-06
0.00645151
9.38149e-06
0.00644252
8.99192e-06
0.0064339
8.61635e-06
0.00642565
8.25445e-06
0.00641774
7.90592e-06
0.00641017
7.57042e-06
0.00640292
7.24764e-06
0.00639599
6.93721e-06
0.00638935
6.63881e-06
0.006383
6.35209e-06
0.00637692
6.07669e-06
0.00637111
5.81227e-06
0.00636555
5.55849e-06
0.00636023
5.315e-06
0.00635515
5.08147e-06
0.00635029
4.85756e-06
0.00634565
4.64294e-06
0.00634121
4.43728e-06
0.00633697
4.24027e-06
0.00633292
4.0516e-06
0.00632905
3.87097e-06
0.00632535
3.69808e-06
0.00632182
3.53263e-06
0.00631845
3.37436e-06
0.00631522
3.22298e-06
0.00631215
3.07824e-06
0.00630921
2.93987e-06
0.0063064
2.80763e-06
0.00630372
2.68127e-06
0.00630116
2.56057e-06
0.00629871
2.4453e-06
0.00629638
2.33524e-06
0.00629415
2.23019e-06
0.00629202
2.12994e-06
0.00628998
2.03429e-06
0.00628804
1.94307e-06
0.00628618
1.85609e-06
0.00628441
1.77317e-06
0.00628271
1.69416e-06
0.0062811
1.6189e-06
0.00627955
1.54722e-06
0.00627807
1.479e-06
0.00627666
1.41407e-06
0.0062753
1.35231e-06
0.00627401
1.2936e-06
0.00627277
1.2378e-06
0.00627159
1.18481e-06
0.00627045
1.1345e-06
0.00626937
1.08678e-06
0.00626832
1.04153e-06
0.00626733
9.9867e-07
0.00626637
9.58097e-07
0.00626545
9.19726e-07
0.00626456
8.83474e-07
0.00626371
8.49261e-07
0.0062629
8.17013e-07
0.00626211
7.86657e-07
0.00626135
7.5813e-07
0.00626062
7.31359e-07
0.00625992
7.06303e-07
0.00625923
6.82868e-07
0.00625857
6.61049e-07
0.00625793
6.40755e-07
0.00625731
6.21633e-07
0.0062567
6.05273e-07
5.84871e-07
0.0062505
-1.00493e-06
0.00625201
-3.01455e-06
0.00625452
-5.02587e-06
0.00625804
-7.04078e-06
0.00626257
-9.06125e-06
0.00626811
-1.10893e-05
0.00627467
-1.31265e-05
0.00628226
-1.51746e-05
0.00629087
-1.72349e-05
0.00630052
-1.93088e-05
0.00631122
-2.13978e-05
0.00632297
-2.35028e-05
0.00633577
-2.56249e-05
0.00634965
-2.77649e-05
0.00636461
-2.99232e-05
0.00638066
-3.21002e-05
0.0063978
-3.4296e-05
0.00641605
-3.65106e-05
0.00643542
-3.87434e-05
0.00645592
-4.09938e-05
0.00647754
-4.32608e-05
0.00650031
-4.55429e-05
0.00652423
-4.78385e-05
0.0065493
-5.01457e-05
0.00657554
-5.24619e-05
0.00660293
-5.47844e-05
0.00663149
-5.711e-05
0.00666121
-5.94353e-05
0.00669209
-6.17563e-05
0.00672413
-6.40687e-05
0.00675732
-6.63678e-05
0.00679165
-6.86486e-05
0.00682712
-7.09057e-05
0.00686369
-7.31334e-05
0.00690137
-7.53256e-05
0.00694012
-7.7476e-05
0.00697993
-7.95782e-05
0.00702076
-8.16253e-05
0.00706258
-8.36106e-05
0.00710537
-8.55269e-05
0.00714908
-8.73673e-05
0.00719366
-8.91248e-05
0.00723909
-9.07923e-05
0.0072853
-9.2363e-05
0.00733224
-9.38303e-05
0.00737987
-9.51877e-05
0.00742812
-9.64291e-05
0.00747693
-9.75488e-05
0.00752623
-9.85414e-05
0.00757597
-9.94019e-05
0.00762607
-0.000100126
0.00767647
-0.00010071
0.00772708
-0.00010115
0.00777784
-0.000101444
0.00782868
-0.000101589
0.00787951
-0.000101585
0.00793027
-0.000101429
0.00798087
-0.000101122
0.00803124
-0.000100663
0.00808131
-0.000100054
0.008131
-9.92954e-05
0.00818023
-9.8389e-05
0.00822894
-9.73369e-05
0.00827704
-9.61413e-05
0.00832448
-9.48052e-05
0.00837118
-9.33315e-05
0.00841708
-9.17233e-05
0.00846211
-8.99842e-05
0.0085062
-8.81176e-05
0.00854929
-8.61272e-05
0.00859133
-8.40165e-05
0.00863226
-8.17893e-05
0.00867201
-7.9449e-05
0.00871054
-7.69994e-05
0.00874778
-7.44439e-05
0.0087837
-7.17857e-05
0.00881824
-6.90283e-05
0.00885135
-6.61747e-05
0.00888299
-6.32281e-05
0.00891311
-6.01913e-05
0.00894166
-5.70673e-05
0.00896861
-5.38588e-05
0.00899391
-5.05687e-05
0.00901753
-4.71997e-05
0.00903943
-4.37546e-05
0.00905956
-4.02362e-05
0.0090779
-3.66475e-05
0.00909441
-3.29915e-05
0.00910906
-2.92716e-05
0.00912182
-2.54911e-05
0.00913266
-2.16538e-05
0.00914155
-1.77636e-05
0.00914847
-1.38249e-05
0.0091534
-9.84228e-06
0.00915632
-5.82065e-06
0.00915721
-1.76527e-06
0.00915605
2.31747e-06
0.00915284
6.42216e-06
0.00914757
1.05421e-05
0.00914023
1.46702e-05
0.00913083
1.87994e-05
0.00911936
2.29219e-05
0.00910584
2.70298e-05
0.00909027
3.11147e-05
0.00907267
3.51681e-05
0.00905307
3.91809e-05
0.00903148
4.31439e-05
0.00900794
4.70476e-05
0.00898247
5.08818e-05
0.00895513
5.46364e-05
0.00892596
5.83004e-05
0.008895
6.18625e-05
0.00886231
6.53106e-05
0.00882797
6.86321e-05
0.00879202
7.18136e-05
0.00875457
7.4841e-05
0.00871568
7.76996e-05
0.00867545
8.03742e-05
0.00863399
8.28493e-05
0.00859139
8.51094e-05
0.00854777
8.71399e-05
0.00850326
8.89271e-05
0.00845798
9.04591e-05
0.00841207
9.17265e-05
0.00836566
9.2723e-05
0.00831888
9.34461e-05
0.00827187
9.38976e-05
0.00822477
9.40835e-05
0.00817771
9.40151e-05
0.00813079
9.37076e-05
0.00808414
9.31809e-05
0.00803786
9.2458e-05
0.00799201
9.15648e-05
0.00794669
9.05287e-05
0.00790195
8.93777e-05
0.00785782
8.81393e-05
0.00781435
8.68391e-05
0.00777154
8.55004e-05
0.00772942
8.41431e-05
0.00768798
8.27833e-05
0.00764722
8.14331e-05
0.00760713
8.01005e-05
0.0075677
7.87897e-05
0.00752891
7.75018e-05
0.00749076
7.62348e-05
0.00745323
7.49848e-05
0.00741633
7.37462e-05
0.00738005
7.25129e-05
0.00734439
7.12782e-05
0.00730935
7.00362e-05
0.00727494
6.87812e-05
0.00724116
6.75088e-05
0.00720804
6.62156e-05
0.00717558
6.48993e-05
0.00714379
6.35591e-05
0.00711268
6.2195e-05
0.00708227
6.0808e-05
0.00705256
5.94e-05
0.00702357
5.79736e-05
0.0069953
5.65317e-05
0.00696775
5.50776e-05
0.00694094
5.36151e-05
0.00691487
5.21476e-05
0.00688953
5.06789e-05
0.00686493
4.92124e-05
0.00684105
4.77517e-05
0.0068179
4.62998e-05
0.00679548
4.48599e-05
0.00677377
4.34348e-05
0.00675276
4.20269e-05
0.00673244
4.06386e-05
0.00671281
3.9272e-05
0.00669385
3.79288e-05
0.00667556
3.66108e-05
0.0066579
3.53193e-05
0.00664088
3.40555e-05
0.00662448
3.28204e-05
0.00660868
3.16148e-05
0.00659347
3.04393e-05
0.00657883
2.92945e-05
0.00656475
2.81808e-05
0.00655121
2.70983e-05
0.00653819
2.60472e-05
0.00652568
2.50274e-05
0.00651367
2.40389e-05
0.00650214
2.30814e-05
0.00649107
2.21548e-05
0.00648045
2.12586e-05
0.00647026
2.03925e-05
0.00646049
1.9556e-05
0.00645112
1.87486e-05
0.00644214
1.79698e-05
0.00643354
1.72189e-05
0.0064253
1.64955e-05
0.00641741
1.57987e-05
0.00640985
1.51281e-05
0.00640261
1.44828e-05
0.00639569
1.38624e-05
0.00638906
1.32659e-05
0.00638272
1.26928e-05
0.00637666
1.21424e-05
0.00637085
1.16139e-05
0.00636531
1.11067e-05
0.00636
1.062e-05
0.00635493
1.01533e-05
0.00635008
9.7058e-06
0.00634545
9.27688e-06
0.00634102
8.86589e-06
0.00633679
8.47218e-06
0.00633274
8.09515e-06
0.00632888
7.73419e-06
0.00632519
7.38869e-06
0.00632166
7.05808e-06
0.0063183
6.74181e-06
0.00631508
6.43932e-06
0.00631201
6.15009e-06
0.00630907
5.8736e-06
0.00630627
5.60936e-06
0.0063036
5.35688e-06
0.00630104
5.11571e-06
0.0062986
4.88538e-06
0.00629627
4.66548e-06
0.00629405
4.45557e-06
0.00629192
4.25526e-06
0.00628989
4.06416e-06
0.00628795
3.88189e-06
0.0062861
3.7081e-06
0.00628433
3.54245e-06
0.00628264
3.38459e-06
0.00628102
3.23421e-06
0.00627948
3.09101e-06
0.006278
2.95469e-06
0.00627659
2.82497e-06
0.00627524
2.70159e-06
0.00627395
2.58428e-06
0.00627272
2.47281e-06
0.00627154
2.36693e-06
0.00627041
2.26643e-06
0.00626932
2.17108e-06
0.00626828
2.08069e-06
0.00626729
1.99505e-06
0.00626633
1.91399e-06
0.00626541
1.83734e-06
0.00626453
1.76491e-06
0.00626368
1.69656e-06
0.00626287
1.63213e-06
0.00626208
1.57149e-06
0.00626133
1.5145e-06
0.0062606
1.46103e-06
0.00625989
1.41094e-06
0.00625921
1.36421e-06
0.00625855
1.32045e-06
0.00625791
1.2804e-06
0.00625729
1.24144e-06
0.00625669
1.21123e-06
1.16653e-06
0.0062505
-1.50634e-06
0.00625201
-4.51867e-06
0.00625451
-7.53362e-06
0.00625803
-1.05542e-05
0.00626255
-1.35833e-05
0.00626808
-1.66236e-05
0.00627463
-1.96778e-05
0.00628221
-2.27483e-05
0.00629081
-2.58374e-05
0.00630045
-2.89472e-05
0.00631113
-3.20796e-05
0.00632286
-3.52364e-05
0.00633566
-3.8419e-05
0.00634952
-4.16285e-05
0.00636446
-4.48659e-05
0.0063805
-4.81317e-05
0.00639763
-5.14261e-05
0.00641586
-5.47489e-05
0.00643522
-5.80995e-05
0.0064557
-6.14767e-05
0.00647732
-6.48793e-05
0.00650008
-6.8305e-05
0.006524
-7.17514e-05
0.00654907
-7.52155e-05
0.0065753
-7.86937e-05
0.0066027
-8.21819e-05
0.00663126
-8.56752e-05
0.00666099
-8.91685e-05
0.00669189
-9.26558e-05
0.00672396
-9.61307e-05
0.00675717
-9.95861e-05
0.00679154
-0.000103014
0.00682704
-0.000106408
0.00686367
-0.000109757
0.00690139
-0.000113054
0.00694021
-0.000116288
0.00698008
-0.00011945
0.00702098
-0.000122529
0.00706289
-0.000125516
0.00710576
-0.0001284
0.00714956
-0.00013117
0.00719425
-0.000133815
0.00723978
-0.000136325
0.00728611
-0.000138689
0.00733318
-0.000140899
0.00738093
-0.000142942
0.00742932
-0.000144812
0.00747827
-0.000146498
0.00752772
-0.000147993
0.00757761
-0.000149289
0.00762786
-0.00015038
0.00767841
-0.00015126
0.00772918
-0.000151924
0.00778011
-0.000152367
0.0078311
-0.000152587
0.0078821
-0.000152581
0.00793302
-0.000152347
0.00798378
-0.000151886
0.00803432
-0.000151197
0.00808454
-0.000150281
0.00813439
-0.000149141
0.00818378
-0.000147778
0.00823264
-0.000146197
0.0082809
-0.000144399
0.00832848
-0.000142391
0.00837533
-0.000140175
0.00842136
-0.000137758
0.00846652
-0.000135145
0.00851074
-0.00013234
0.00855396
-0.000129349
0.00859613
-0.000126177
0.00863717
-0.000122831
0.00867703
-0.000119316
0.00871567
-0.000115636
0.00875303
-0.000111798
0.00878905
-0.000107806
0.00882368
-0.000103665
0.00885689
-9.93802e-05
0.00888862
-9.49558e-05
0.00891882
-9.03963e-05
0.00894746
-8.57059e-05
0.00897449
-8.0889e-05
0.00899987
-7.59496e-05
0.00902356
-7.08918e-05
0.00904553
-6.57198e-05
0.00906573
-6.04378e-05
0.00908413
-5.50501e-05
0.0091007
-4.95613e-05
0.00911541
-4.39764e-05
0.00912822
-3.83003e-05
0.0091391
-3.25386e-05
0.00914803
-2.66974e-05
0.00915499
-2.07829e-05
0.00915995
-1.48021e-05
0.00916289
-8.76254e-06
0.0091638
-2.67124e-06
0.00916266
3.46059e-06
0.00915945
9.62636e-06
0.00915418
1.58152e-05
0.00914683
2.20168e-05
0.00913741
2.82203e-05
0.00912592
3.44142e-05
0.00911236
4.05863e-05
0.00909675
4.67243e-05
0.00907911
5.28151e-05
0.00905944
5.88452e-05
0.00903779
6.48007e-05
0.00901417
7.0667e-05
0.00898862
7.64293e-05
0.00896118
8.20719e-05
0.00893191
8.75786e-05
0.00890084
9.29321e-05
0.00886803
9.81146e-05
0.00883356
0.000103107
0.00879748
0.000107889
0.00875988
0.00011244
0.00872084
0.000116738
0.00868046
0.00012076
0.00863882
0.000124482
0.00859605
0.000127882
0.00855225
0.000130938
0.00850755
0.000133628
0.00846208
0.000135936
0.00841596
0.000137846
0.00836933
0.00013935
0.00832233
0.000140443
0.0082751
0.000141127
0.00822778
0.000141412
0.00818048
0.000141315
0.00813333
0.000140857
0.00808644
0.000140069
0.00803991
0.000138985
0.00799383
0.000137643
0.00794828
0.000136085
0.0079033
0.000134353
0.00785895
0.000132488
0.00781526
0.000130529
0.00777226
0.00012851
0.00772994
0.000126463
0.00768831
0.000124411
0.00764737
0.000122373
0.00760711
0.000120361
0.00756752
0.000118381
0.00752858
0.000116436
0.0074903
0.000114522
0.00745265
0.000112634
0.00741563
0.000110764
0.00737924
0.000108901
0.00734348
0.000107038
0.00730835
0.000105163
0.00727386
0.00010327
0.00724002
0.000101351
0.00720684
9.94016e-05
0.00717432
9.74179e-05
0.00714248
9.53986e-05
0.00711133
9.33439e-05
0.00708088
9.12553e-05
0.00705115
8.91357e-05
0.00702213
8.69888e-05
0.00699384
8.48191e-05
0.00696629
8.26317e-05
0.00693947
8.04318e-05
0.0069134
7.8225e-05
0.00688806
7.60167e-05
0.00686346
7.38123e-05
0.00683959
7.16167e-05
0.00681646
6.94349e-05
0.00679405
6.72714e-05
0.00677235
6.51304e-05
0.00675136
6.30156e-05
0.00673107
6.09306e-05
0.00671146
5.88783e-05
0.00669253
5.68616e-05
0.00667426
5.48828e-05
0.00665663
5.2944e-05
0.00663964
5.1047e-05
0.00662327
4.91933e-05
0.0066075
4.73841e-05
0.00659232
4.56203e-05
0.00657771
4.39027e-05
0.00656366
4.22318e-05
0.00655015
4.0608e-05
0.00653717
3.90313e-05
0.00652469
3.75017e-05
0.00651271
3.60192e-05
0.00650121
3.45834e-05
0.00649017
3.31938e-05
0.00647958
3.18501e-05
0.00646942
3.05515e-05
0.00645968
2.92974e-05
0.00645034
2.8087e-05
0.00644139
2.69195e-05
0.00643282
2.5794e-05
0.0064246
2.47096e-05
0.00641673
2.36653e-05
0.0064092
2.26602e-05
0.00640199
2.16932e-05
0.00639509
2.07633e-05
0.00638849
1.98695e-05
0.00638217
1.90108e-05
0.00637613
1.8186e-05
0.00637035
1.73941e-05
0.00636482
1.66342e-05
0.00635953
1.59051e-05
0.00635448
1.52058e-05
0.00634965
1.45354e-05
0.00634504
1.38928e-05
0.00634062
1.32771e-05
0.00633641
1.26874e-05
0.00633238
1.21226e-05
0.00632853
1.15819e-05
0.00632486
1.10644e-05
0.00632135
1.05692e-05
0.00631799
1.00954e-05
0.00631479
9.64238e-06
0.00631173
9.20917e-06
0.00630881
8.79507e-06
0.00630602
8.39931e-06
0.00630336
8.02118e-06
0.00630081
7.65998e-06
0.00629838
7.31504e-06
0.00629606
6.9857e-06
0.00629385
6.67135e-06
0.00629173
6.37137e-06
0.00628971
6.08518e-06
0.00628778
5.81224e-06
0.00628593
5.55199e-06
0.00628417
5.30391e-06
0.00628249
5.06752e-06
0.00628088
4.84234e-06
0.00627934
4.62791e-06
0.00627788
4.42378e-06
0.00627647
4.22954e-06
0.00627513
4.04479e-06
0.00627384
3.86914e-06
0.00627261
3.70222e-06
0.00627144
3.54369e-06
0.00627031
3.3932e-06
0.00626923
3.25043e-06
0.0062682
3.11508e-06
0.0062672
2.98686e-06
0.00626625
2.8655e-06
0.00626534
2.75072e-06
0.00626446
2.64228e-06
0.00626362
2.53994e-06
0.00626281
2.44348e-06
0.00626203
2.35268e-06
0.00626127
2.26735e-06
0.00626055
2.1873e-06
0.00625985
2.1123e-06
0.00625917
2.04236e-06
0.00625851
1.97682e-06
0.00625787
1.91698e-06
0.00625726
1.8585e-06
0.00625666
1.81357e-06
1.74618e-06
0.0062505
-2.00654e-06
0.006252
-6.01924e-06
0.0062545
-1.00355e-05
0.00625801
-1.40594e-05
0.00626252
-1.80947e-05
0.00626804
-2.21453e-05
0.00627458
-2.62145e-05
0.00628213
-3.03056e-05
0.00629072
-3.44218e-05
0.00630034
-3.85659e-05
0.006311
-4.27406e-05
0.00632271
-4.69481e-05
0.00633548
-5.11905e-05
0.00634932
-5.54693e-05
0.00636424
-5.97857e-05
0.00638025
-6.41406e-05
0.00639736
-6.85342e-05
0.00641558
-7.29663e-05
0.00643491
-7.74362e-05
0.00645538
-8.19424e-05
0.00647698
-8.6483e-05
0.00649973
-9.10553e-05
0.00652364
-9.56561e-05
0.0065487
-0.000100281
0.00657494
-0.000104926
0.00660234
-0.000109585
0.00663092
-0.000114252
0.00666067
-0.00011892
0.00669159
-0.00012358
0.00672369
-0.000128225
0.00675695
-0.000132845
0.00679136
-0.000137429
0.00682692
-0.000141968
0.00686361
-0.000146449
0.00690142
-0.000150859
0.00694032
-0.000155188
0.00698029
-0.00015942
0.0070213
-0.000163543
0.00706333
-0.000167543
0.00710633
-0.000171405
0.00715028
-0.000175114
0.00719512
-0.000178658
0.00724082
-0.000182021
0.00728732
-0.00018519
0.00733457
-0.000188151
0.00738252
-0.000190891
0.0074311
-0.000193397
0.00748026
-0.000195658
0.00752993
-0.000197663
0.00758005
-0.000199402
0.00763053
-0.000200865
0.00768132
-0.000202046
0.00773233
-0.000202937
0.00778349
-0.000203533
0.00783474
-0.000203829
0.00788598
-0.000203822
0.00793714
-0.000203511
0.00798815
-0.000202895
0.00803893
-0.000201974
0.0080894
-0.00020075
0.00813948
-0.000199224
0.0081891
-0.000197402
0.00823819
-0.000195286
0.00828668
-0.000192882
0.00833448
-0.000190196
0.00838154
-0.000187234
0.00842778
-0.000184002
0.00847315
-0.000180507
0.00851756
-0.000176757
0.00856097
-0.00017276
0.00860332
-0.000168522
0.00864454
-0.00016405
0.00868458
-0.000159353
0.00872338
-0.000154438
0.00876089
-0.000149311
0.00879706
-0.000143979
0.00883185
-0.000138449
0.00886519
-0.000132727
0.00889706
-0.00012682
0.00892739
-0.000120732
0.00895616
-0.000114471
0.00898331
-0.00010804
0.00900881
-0.000101446
0.00903261
-9.46947e-05
0.00905468
-8.77907e-05
0.00907498
-8.07397e-05
0.00909348
-7.35476e-05
0.00911014
-6.62204e-05
0.00912493
-5.87643e-05
0.00913781
-5.11863e-05
0.00914877
-4.34935e-05
0.00915776
-3.56939e-05
0.00916478
-2.77959e-05
0.00916978
-1.98087e-05
0.00917276
-1.17422e-05
0.0091737
-3.60672e-06
0.00917257
4.58488e-06
0.00916938
1.28218e-05
0.0091641
2.10904e-05
0.00915674
2.93768e-05
0.0091473
3.76664e-05
0.00913577
4.59437e-05
0.00912216
5.41927e-05
0.00910649
6.23965e-05
0.00908877
7.05377e-05
0.00906901
7.85982e-05
0.00904726
8.65593e-05
0.00902352
9.44016e-05
0.00899784
0.000102105
0.00897027
0.000109649
0.00894084
0.000117011
0.0089096
0.000124169
0.00887662
0.000131098
0.00884195
0.000137774
0.00880567
0.000144169
0.00876786
0.000150255
0.00872859
0.000156004
0.00868796
0.000161385
0.00864608
0.000166366
0.00860305
0.000170917
0.00855897
0.000175009
0.00851399
0.000178615
0.00846821
0.000181709
0.00842179
0.000184274
0.00837484
0.000186295
0.00832752
0.000187767
0.00827995
0.000188694
0.00823228
0.000189086
0.00818462
0.000188965
0.00813712
0.000188362
0.00808988
0.000187314
0.00804299
0.000185868
0.00799656
0.000184076
0.00795065
0.000181992
0.00790533
0.000179672
0.00786065
0.000177171
0.00781663
0.000174542
0.00777331
0.000171832
0.00773069
0.000169081
0.00768878
0.000166322
0.00764758
0.00016358
0.00760706
0.000160873
0.00756724
0.000158208
0.00752808
0.000155589
0.00748959
0.000153013
0.00745175
0.000150472
0.00741456
0.000147954
0.00737802
0.000145448
0.00734211
0.000142942
0.00730685
0.000140422
0.00727225
0.000137877
0.0072383
0.000135299
0.00720502
0.000132681
0.00717242
0.000130019
0.00714051
0.00012731
0.0071093
0.000124554
0.0070788
0.000121754
0.00704902
0.000118914
0.00701997
0.000116038
0.00699166
0.000113132
0.00696409
0.000110203
0.00693726
0.000107259
0.00691118
0.000104306
0.00688584
0.000101352
0.00686125
9.8404e-05
0.0068374
9.54684e-05
0.00681428
9.25519e-05
0.00679189
8.96604e-05
0.00677022
8.67996e-05
0.00674927
8.39744e-05
0.00672901
8.11894e-05
0.00670944
7.84487e-05
0.00669054
7.5756e-05
0.00667231
7.31143e-05
0.00665473
7.05265e-05
0.00663778
6.79949e-05
0.00662145
6.55214e-05
0.00660573
6.31076e-05
0.00659059
6.07547e-05
0.00657603
5.84638e-05
0.00656203
5.62354e-05
0.00654857
5.407e-05
0.00653563
5.19678e-05
0.0065232
4.99287e-05
0.00651127
4.79525e-05
0.00649982
4.60387e-05
0.00648882
4.41868e-05
0.00647828
4.23961e-05
0.00646816
4.06657e-05
0.00645846
3.89948e-05
0.00644917
3.73822e-05
0.00644026
3.58269e-05
0.00643173
3.43277e-05
0.00642355
3.28834e-05
0.00641573
3.14926e-05
0.00640823
3.0154e-05
0.00640106
2.88663e-05
0.0063942
2.76281e-05
0.00638763
2.6438e-05
0.00638134
2.52946e-05
0.00637533
2.41965e-05
0.00636958
2.31423e-05
0.00636409
2.21307e-05
0.00635883
2.11601e-05
0.00635381
2.02294e-05
0.00634901
1.93371e-05
0.00634442
1.84818e-05
0.00634003
1.76624e-05
0.00633584
1.68775e-05
0.00633184
1.61259e-05
0.00632802
1.54063e-05
0.00632436
1.47177e-05
0.00632087
1.40587e-05
0.00631754
1.34284e-05
0.00631436
1.28255e-05
0.00631132
1.22491e-05
0.00630841
1.16981e-05
0.00630564
1.11716e-05
0.00630299
1.06685e-05
0.00630047
1.0188e-05
0.00629805
9.72905e-06
0.00629575
9.29092e-06
0.00629355
8.87272e-06
0.00629144
8.47366e-06
0.00628944
8.09296e-06
0.00628752
7.72987e-06
0.00628569
7.38368e-06
0.00628394
7.05369e-06
0.00628226
6.73925e-06
0.00628067
6.43972e-06
0.00627914
6.15449e-06
0.00627768
5.88298e-06
0.00627629
5.62462e-06
0.00627495
5.37889e-06
0.00627368
5.14526e-06
0.00627246
4.92326e-06
0.00627129
4.7124e-06
0.00627017
4.51224e-06
0.0062691
4.32236e-06
0.00626807
4.14236e-06
0.00626708
3.97183e-06
0.00626614
3.81042e-06
0.00626523
3.65777e-06
0.00626436
3.51355e-06
0.00626352
3.37745e-06
0.00626272
3.24916e-06
0.00626194
3.12842e-06
0.00626119
3.01493e-06
0.00626047
2.90848e-06
0.00625978
2.80874e-06
0.0062591
2.71574e-06
0.00625845
2.62857e-06
0.00625782
2.54905e-06
0.00625721
2.47121e-06
0.00625661
2.41157e-06
2.32182e-06
0.0062505
-2.50515e-06
0.00625199
-7.51499e-06
0.00625449
-1.25293e-05
0.00625798
-1.75534e-05
0.00626248
-2.25921e-05
0.00626798
-2.76499e-05
0.0062745
-3.27314e-05
0.00628204
-3.78407e-05
0.0062906
-4.29818e-05
0.00630019
-4.81582e-05
0.00631082
-5.33734e-05
0.0063225
-5.86303e-05
0.00633524
-6.39315e-05
0.00634905
-6.92789e-05
0.00636394
-7.46743e-05
0.00637992
-8.01187e-05
0.006397
-8.56124e-05
0.00641519
-9.11552e-05
0.0064345
-9.67464e-05
0.00645494
-0.000102384
0.00647652
-0.000108066
0.00649926
-0.000113789
0.00652315
-0.000119549
0.00654821
-0.000125341
0.00657444
-0.000131158
0.00660185
-0.000136995
0.00663044
-0.000142843
0.00666022
-0.000148694
0.00669117
-0.000154537
0.00672331
-0.000160362
0.00675662
-0.000166157
0.0067911
-0.000171909
0.00682674
-0.000177605
0.00686352
-0.00018323
0.00690143
-0.000188769
0.00694045
-0.000194205
0.00698055
-0.000199522
0.00702171
-0.000204703
0.0070639
-0.00020973
0.00710708
-0.000214585
0.00715121
-0.000219249
0.00719626
-0.000223706
0.00724217
-0.000227937
0.00728891
-0.000231924
0.00733641
-0.00023565
0.00738461
-0.000239098
0.00743347
-0.000242253
0.00748291
-0.0002451
0.00753287
-0.000247624
0.00758329
-0.000249814
0.00763408
-0.000251658
0.00768518
-0.000253146
0.00773651
-0.00025427
0.007788
-0.000255022
0.00783957
-0.000255398
0.00789114
-0.000255392
0.00794264
-0.000255004
0.00799397
-0.000254232
0.00804507
-0.000253077
0.00809587
-0.00025154
0.00814627
-0.000249626
0.0081962
-0.000247338
0.0082456
-0.000244683
0.00829438
-0.000241666
0.00834248
-0.000238295
0.00838983
-0.000234578
0.00843635
-0.000230523
0.00848198
-0.000226139
0.00852666
-0.000221436
0.00857032
-0.000216423
0.00861291
-0.00021111
0.00865437
-0.000205505
0.00869463
-0.000199618
0.00873365
-0.000193458
0.00877138
-0.000187035
0.00880775
-0.000180356
0.00884273
-0.000173429
0.00887627
-0.000166263
0.00890831
-0.000158865
0.00893882
-0.000151243
0.00896776
-0.000143403
0.00899507
-0.000135352
0.00902072
-0.000127098
0.00904467
-0.000118646
0.00906688
-0.000110003
0.00908732
-0.000101176
0.00910594
-9.21721e-05
0.00912272
-8.29988e-05
0.00913762
-7.36638e-05
0.00915061
-6.41753e-05
0.00916166
-5.45425e-05
0.00917074
-4.47749e-05
0.00917783
-3.48832e-05
0.0091829
-2.48787e-05
0.00918593
-1.47738e-05
0.0091869
-4.58151e-06
0.00918581
5.68282e-06
0.00918262
1.60047e-05
0.00917735
2.63676e-05
0.00916997
3.6754e-05
0.00916049
4.71454e-05
0.00914891
5.75225e-05
0.00913524
6.7865e-05
0.00911948
7.81518e-05
0.00910166
8.83608e-05
0.00908179
9.84694e-05
0.0090599
0.000108454
0.00903601
0.00011829
0.00901016
0.000127952
0.00898239
0.000137414
0.00895276
0.000146649
0.0089213
0.000155628
0.00888807
0.000164321
0.00885315
0.000172697
0.0088166
0.000180721
0.00877849
0.000188359
0.00873892
0.000195575
0.00869798
0.00020233
0.00865576
0.000208585
0.00861237
0.000214304
0.00856793
0.000219448
0.00852256
0.000223984
0.00847639
0.00022788
0.00842955
0.000231113
0.00838218
0.000233666
0.00833442
0.000235531
0.0082864
0.000236711
0.00823827
0.00023722
0.00819015
0.000237084
0.00814217
0.00023634
0.00809445
0.000235036
0.00804709
0.000233229
0.00800018
0.000230983
0.00795381
0.000228367
0.00790803
0.00022545
0.0078629
0.000222302
0.00781845
0.000218989
0.00777471
0.000215571
0.00773169
0.000212098
0.0076894
0.000208612
0.00764784
0.000205146
0.00760699
0.000201722
0.00756685
0.000198351
0.0075274
0.000195037
0.00748864
0.000191777
0.00745055
0.000188561
0.00741313
0.000185376
0.00737637
0.000182207
0.00734027
0.000179038
0.00730484
0.000175854
0.00727007
0.000172641
0.00723599
0.000169388
0.00720258
0.000166085
0.00716987
0.000162729
0.00713787
0.000159316
0.00710657
0.000155846
0.00707601
0.000152321
0.00704617
0.000148748
0.00701708
0.000145131
0.00698873
0.000141478
0.00696114
0.000137798
0.0069343
0.0001341
0.00690821
0.000130392
0.00688288
0.000126684
0.0068583
0.000122984
0.00683447
0.000119302
0.00681138
0.000115644
0.00678902
0.000112019
0.00676738
0.000108433
0.00674647
0.000104892
0.00672625
0.000101403
0.00670673
9.79706e-05
0.00668789
9.45987e-05
0.00666971
9.12914e-05
0.00665218
8.80523e-05
0.00663529
8.48841e-05
0.00661903
8.17891e-05
0.00660337
7.87695e-05
0.00658829
7.58266e-05
0.0065738
7.29617e-05
0.00655986
7.01755e-05
0.00654646
6.74684e-05
0.00653358
6.48407e-05
0.00652122
6.22923e-05
0.00650935
5.98228e-05
0.00649796
5.74316e-05
0.00648703
5.51181e-05
0.00647654
5.28813e-05
0.00646649
5.07202e-05
0.00645685
4.86334e-05
0.00644761
4.66198e-05
0.00643876
4.4678e-05
0.00643028
4.28063e-05
0.00642216
4.10033e-05
0.00641439
3.92673e-05
0.00640694
3.75966e-05
0.00639982
3.59896e-05
0.006393
3.44445e-05
0.00638648
3.29595e-05
0.00638024
3.15329e-05
0.00637428
3.0163e-05
0.00636857
2.88479e-05
0.00636312
2.75859e-05
0.0063579
2.63753e-05
0.00635292
2.52144e-05
0.00634815
2.41015e-05
0.0063436
2.30349e-05
0.00633925
2.2013e-05
0.00633509
2.10342e-05
0.00633112
2.0097e-05
0.00632733
1.91998e-05
0.0063237
1.83411e-05
0.00632024
1.75196e-05
0.00631694
1.67337e-05
0.00631378
1.59821e-05
0.00631077
1.52636e-05
0.00630789
1.45767e-05
0.00630514
1.39203e-05
0.00630251
1.32932e-05
0.00630001
1.26943e-05
0.00629761
1.21223e-05
0.00629533
1.15762e-05
0.00629315
1.10549e-05
0.00629106
1.05576e-05
0.00628907
1.00831e-05
0.00628717
9.63058e-06
0.00628536
9.19914e-06
0.00628362
8.7879e-06
0.00628197
8.39605e-06
0.00628038
8.02279e-06
0.00627887
7.66735e-06
0.00627742
7.32901e-06
0.00627604