/*--------------------------------*- C++ -*----------------------------------*\
| =========                 |                                                 |
| \\      /  F ield         | OpenFOAM: The Open Source CFD Toolbox           |
|  \\    /   O peration     | Version:  2306                                  |
|   \\  /    A nd           | Website:  www.openfoam.com                      |
|    \\/     M anipulation  |                                                 |
\*---------------------------------------------------------------------------*/
FoamFile
{
    version     2.0;
    format      ascii;
    arch        "LSB;label=32;scalar=64";
    class       volScalarField;
    location    "3.5";
    object      T;
}
// * * * * * * * * * * * * * * * * * * * * * * * * * * * * * * * * * * * * * //

dimensions      [0 0 0 1 0 0 0];

internalField   nonuniform List<scalar> 
32768
(
300
300
300
300
300
300
300
300
300
300
300
300
300
300
300
300
300
300
300
300
300
300
300
300
300
300
300
299.999
299.999
299.999
299.999
299.999
299.998
299.998
299.997
299.997
299.996
299.995
299.994
299.992
299.991
299.989
299.987
299.984
299.981
299.978
299.974
299.969
299.963
299.957
299.95
299.941
299.931
299.92
299.907
299.892
299.876
299.857
299.835
299.81
299.783
299.752
299.716
299.677
299.632
299.583
299.527
299.465
299.395
299.318
299.232
299.137
299.031
298.914
298.784
298.641
298.483
298.309
298.118
297.907
297.676
297.423
297.145
296.841
296.508
296.145
295.749
295.317
294.847
294.335
293.779
293.175
292.52
291.81
291.041
290.209
289.31
288.339
287.292
286.164
284.949
283.642
282.238
280.731
279.114
277.383
275.531
273.551
271.438
269.185
266.787
264.236
261.528
258.657
255.618
252.406
249.016
245.446
241.693
237.754
233.629
229.318
224.821
220.143
215.284
210.252
205.052
199.691
194.179
188.525
182.741
176.839
170.833
164.737
158.568
152.341
146.073
139.782
133.487
127.205
120.955
114.755
108.624
102.581
96.6411
90.8228
85.1419
79.6133
74.251
69.0677
64.0746
59.2814
54.6963
50.3257
46.1745
42.2458
38.5411
35.0603
31.8018
28.7623
25.9376
23.3219
20.9086
18.69
16.6579
14.8031
13.1163
11.5878
10.2074
8.96534
7.85154
6.85622
5.96982
5.18311
4.48723
3.87374
3.33468
2.86257
2.45043
2.0918
1.78074
1.51177
1.27993
1.08072
0.910053
0.764294
0.640179
0.534806
0.445609
0.370324
0.306965
0.253794
0.209299
0.172169
0.141271
0.115629
0.0944066
0.0768902
0.062471
0.0506327
0.0409389
0.0330218
0.0265725
0.0213322
0.0170852
0.0136518
0.0108831
0.00865589
0.00686873
0.00543816
0.00429579
0.00338575
0.00266252
0.0020891
0.00163549
0.00127745
0.000995416
0.000773576
0.000599144
0.000461652
0.000352292
0.000263185
0.000186417
0.000112571
2.82305e-05
-8.85112e-05
-0.000276367
-0.000606419
-0.00121144
-0.00234118
-0.00446682
-0.00847823
-0.0160565
-0.0303776
-0.0574406
-0.108576
-0.205179
-0.387643
-0.732215
-1.3828
-2.61094
-4.92892
-9.30313
-17.5562
-33.125
-62.4899
-117.867
-222.284
-419.136
-790.197
-1489.54
-2807.4
-5290.49
-9968.39
-18779.9
-35375.4
300
300
300
300
300
300
300
300
300
300
300
300
300
300
300
300
300
300
300
300
300
300
300
300
300
300
300
299.999
299.999
299.999
299.999
299.999
299.998
299.998
299.997
299.997
299.996
299.995
299.994
299.992
299.991
299.989
299.987
299.984
299.981
299.978
299.974
299.969
299.963
299.957
299.949
299.941
299.931
299.92
299.907
299.892
299.875
299.856
299.835
299.81
299.782
299.751
299.716
299.676
299.632
299.582
299.526
299.464
299.395
299.317
299.231
299.136
299.03
298.913
298.783
298.64
298.482
298.308
298.116
297.905
297.674
297.42
297.142
296.838
296.506
296.142
295.746
295.314
294.844
294.332
293.776
293.172
292.517
291.807
291.038
290.207
289.308
288.338
287.292
286.164
284.949
283.643
282.24
280.734
279.118
277.388
275.537
273.559
271.447
269.196
266.799
264.25
261.544
258.675
255.637
252.427
249.039
245.471
241.719
237.782
233.659
229.349
224.855
220.177
215.32
210.289
205.09
199.73
194.218
188.564
182.78
176.877
170.871
164.774
158.604
152.375
146.106
139.814
133.516
127.232
120.98
114.779
108.646
102.599
96.6577
90.8372
85.1541
79.6235
74.2592
69.0741
64.0792
59.2844
54.6978
50.3259
46.1735
42.2439
38.5384
35.0569
31.7977
28.7579
25.9328
23.3169
20.9035
18.6849
16.6528
14.7981
13.1115
11.5831
10.203
8.96121
7.84767
6.85263
5.96651
5.18008
4.48447
3.87124
3.33243
2.86055
2.44863
2.09021
1.77933
1.51053
1.27885
1.07977
0.909232
0.763585
0.639568
0.534282
0.445161
0.369943
0.306641
0.25352
0.209069
0.171975
0.141109
0.115493
0.0942942
0.076797
0.0623939
0.0505692
0.0408868
0.0329791
0.0265376
0.0213038
0.0170621
0.0136331
0.010868
0.00864374
0.00685897
0.00543033
0.00428954
0.00338077
0.00265856
0.00208595
0.001633
0.00127549
0.000993872
0.000772363
0.000598193
0.000460909
0.000351712
0.000262733
0.000186065
0.000112295
2.80126e-05
-8.86877e-05
-0.000276517
-0.00060656
-0.00121159
-0.00234136
-0.00446708
-0.00847863
-0.0160572
-0.0303786
-0.0574422
-0.108578
-0.205182
-0.387648
-0.732222
-1.38281
-2.61094
-4.92891
-9.30307
-17.556
-33.1246
-62.489
-117.865
-222.279
-419.126
-790.178
-1489.5
-2807.33
-5290.34
-9968.11
-18779.4
-35374.6
300
300
300
300
300
300
300
300
300
300
300
300
300
300
300
300
300
300
300
300
300
300
300
300
300
300
300
299.999
299.999
299.999
299.999
299.999
299.998
299.998
299.997
299.997
299.996
299.995
299.994
299.992
299.991
299.989
299.987
299.984
299.981
299.978
299.974
299.969
299.963
299.957
299.949
299.941
299.931
299.92
299.907
299.892
299.875
299.856
299.834
299.81
299.782
299.75
299.715
299.675
299.631
299.581
299.525
299.463
299.393
299.315
299.229
299.134
299.028
298.91
298.78
298.637
298.479
298.304
298.112
297.901
297.67
297.416
297.138
296.834
296.501
296.138
295.741
295.309
294.839
294.327
293.772
293.168
292.513
291.804
291.036
290.205
289.308
288.338
287.293
286.167
284.954
283.65
282.248
280.744
279.131
277.404
275.556
273.581
271.472
269.224
266.831
264.286
261.584
258.719
255.686
252.48
249.097
245.533
241.786
237.853
233.734
229.428
224.937
220.263
215.41
210.381
205.184
199.826
194.315
188.662
182.878
176.976
170.968
164.871
158.698
152.468
146.196
139.9
133.599
127.311
121.055
114.849
108.711
102.66
96.7134
90.8881
85.2002
79.6649
74.2961
69.1065
64.1074
59.3087
54.7184
50.3431
46.1877
42.2552
38.5471
35.0634
31.8023
28.7607
25.9342
23.3171
20.9027
18.6833
16.6506
14.7955
13.1085
11.5799
10.1997
8.95785
7.84435
6.8494
5.96342
5.17715
4.48172
3.86869
3.33008
2.8584
2.44669
2.08846
1.77776
1.50914
1.27762
1.07869
0.908284
0.762759
0.638852
0.533664
0.44463
0.369489
0.306254
0.253192
0.208791
0.171741
0.140912
0.115329
0.0941574
0.0766834
0.0622999
0.0504916
0.040823
0.0329268
0.0264949
0.021269
0.0170338
0.0136102
0.0108495
0.00862882
0.00684699
0.00542074
0.00428187
0.00337466
0.00265371
0.00208211
0.00162997
0.0012731
0.000991988
0.000770885
0.000597036
0.000460004
0.000351007
0.000262183
0.000185634
0.000111955
2.77374e-05
-8.89221e-05
-0.000276737
-0.000606798
-0.00121189
-0.00234181
-0.0044678
-0.00847982
-0.0160592
-0.030382
-0.057448
-0.108588
-0.205199
-0.387676
-0.732269
-1.38288
-2.61106
-4.92911
-9.30338
-17.5565
-33.1253
-62.4898
-117.866
-222.28
-419.125
-790.172
-1489.48
-2807.29
-5290.25
-9967.93
-18779.1
-35373.9
300
300
300
300
300
300
300
300
300
300
300
300
300
300
300
300
300
300
300
300
300
300
300
300
300
300
300
299.999
299.999
299.999
299.999
299.998
299.998
299.998
299.997
299.997
299.996
299.995
299.994
299.992
299.991
299.989
299.987
299.984
299.981
299.978
299.973
299.969
299.963
299.957
299.949
299.94
299.931
299.919
299.906
299.891
299.874
299.855
299.833
299.809
299.781
299.749
299.714
299.674
299.629
299.579
299.523
299.46
299.391
299.313
299.226
299.13
299.024
298.906
298.776
298.632
298.474
298.299
298.107
297.896
297.664
297.41
297.131
296.827
296.494
296.13
295.734
295.302
294.832
294.321
293.765
293.162
292.508
291.799
291.032
290.203
289.307
288.339
287.296
286.171
284.961
283.66
282.262
280.761
279.152
277.428
275.585
273.614
271.511
269.269
266.881
264.343
261.647
258.788
255.762
252.563
249.186
245.63
241.889
237.964
233.851
229.552
225.067
220.398
215.55
210.526
205.332
199.977
194.469
188.818
183.035
177.132
171.124
165.024
158.849
152.615
146.339
140.039
133.733
127.439
121.176
114.963
108.819
102.76
96.8064
90.9736
85.2784
79.7358
74.3599
69.1634
64.1578
59.3529
54.7567
50.376
46.2155
42.2785
38.5663
35.0788
31.8144
28.77
25.9409
23.3217
20.9055
18.6846
16.6506
14.7945
13.1068
11.5776
10.197
8.9549
7.84125
6.84624
5.96028
5.17409
4.47879
3.86591
3.32748
2.856
2.44448
2.08645
1.77595
1.50751
1.27617
1.07741
0.907157
0.761773
0.637994
0.532921
0.44399
0.368939
0.305784
0.252792
0.208452
0.171456
0.140672
0.115128
0.0939897
0.076544
0.0621844
0.0503962
0.0407445
0.0328624
0.0264422
0.0212261
0.016999
0.0135819
0.0108266
0.00861044
0.00683223
0.00540892
0.00427243
0.00336714
0.00264774
0.00207738
0.00162623
0.00127015
0.000989671
0.000769068
0.000595614
0.000458894
0.000350141
0.000261507
0.000185103
0.000111533
2.73914e-05
-8.92253e-05
-0.000277035
-0.000607143
-0.00121236
-0.00234253
-0.00446898
-0.00848184
-0.0160626
-0.030388
-0.0574585
-0.108606
-0.20523
-0.387729
-0.73236
-1.38304
-2.61132
-4.92954
-9.30409
-17.5576
-33.1271
-62.4927
-117.871
-222.286
-419.134
-790.184
-1489.5
-2807.29
-5290.23
-9967.85
-18778.9
-35373.3
300
300
300
300
300
300
300
300
300
300
300
300
300
300
300
300
300
300
300
300
300
300
300
300
300
300
300
299.999
299.999
299.999
299.999
299.998
299.998
299.998
299.997
299.996
299.996
299.995
299.994
299.992
299.991
299.989
299.987
299.984
299.981
299.977
299.973
299.968
299.963
299.956
299.949
299.94
299.93
299.919
299.906
299.891
299.874
299.854
299.832
299.808
299.779
299.748
299.712
299.672
299.627
299.577
299.52
299.457
299.387
299.309
299.222
299.126
299.019
298.901
298.77
298.626
298.467
298.292
298.099
297.887
297.655
297.4
297.122
296.817
296.484
296.12
295.723
295.291
294.821
294.31
293.755
293.152
292.499
291.791
291.026
290.198
289.303
288.338
287.297
286.176
284.969
283.671
282.277
280.781
279.177
277.459
275.621
273.657
271.561
269.326
266.947
264.416
261.729
258.879
255.862
252.672
249.305
245.758
242.027
238.111
234.007
229.717
225.24
220.579
215.737
210.72
205.532
200.181
194.677
189.028
183.246
177.343
171.334
165.233
159.055
152.816
146.535
140.229
133.915
127.614
121.343
115.121
108.967
102.899
96.935
91.0923
85.3872
79.8348
74.4494
69.2437
64.2293
59.4159
54.8118
50.4237
46.2564
42.313
38.5951
35.1025
31.8336
28.7851
25.9525
23.3302
20.9114
18.6883
16.6526
14.795
13.1061
11.5761
10.1948
8.95217
7.8382
6.84301
5.95697
5.17079
4.47557
3.86282
3.32456
2.85327
2.44196
2.08414
1.77385
1.50563
1.27448
1.07591
0.905835
0.760613
0.636981
0.532042
0.443231
0.368287
0.305227
0.252317
0.208049
0.171116
0.140386
0.114888
0.0937894
0.0763774
0.0620463
0.0502822
0.0406506
0.0327854
0.0263793
0.0211748
0.0169572
0.0135481
0.0107993
0.00858846
0.00681458
0.00539478
0.00426115
0.00335816
0.0026406
0.00207173
0.00162176
0.00126663
0.000986907
0.000766901
0.00059392
0.000457571
0.000349108
0.000260701
0.00018447
0.000111028
2.69731e-05
-8.95985e-05
-0.000277413
-0.000607596
-0.001213
-0.00234352
-0.00447063
-0.00848467
-0.0160676
-0.0303966
-0.0574734
-0.108632
-0.205275
-0.387807
-0.732494
-1.38327
-2.61171
-4.9302
-9.3052
-17.5595
-33.1301
-62.4977
-117.878
-222.299
-419.153
-790.211
-1489.53
-2807.34
-5290.28
-9967.86
-18778.7
-35372.9
300
300
300
300
300
300
300
300
300
300
300
300
300
300
300
300
300
300
300
300
300
300
300
300
300
300
300
299.999
299.999
299.999
299.999
299.998
299.998
299.998
299.997
299.996
299.996
299.995
299.994
299.992
299.991
299.989
299.987
299.984
299.981
299.977
299.973
299.968
299.963
299.956
299.948
299.94
299.93
299.918
299.905
299.89
299.873
299.853
299.831
299.806
299.778
299.746
299.71
299.669
299.624
299.573
299.517
299.453
299.383
299.304
299.217
299.12
299.012
298.894
298.762
298.617
298.457
298.282
298.088
297.876
297.643
297.387
297.108
296.802
296.469
296.105
295.708
295.275
294.805
294.294
293.739
293.137
292.485
291.778
291.014
290.187
289.295
288.332
287.294
286.177
284.974
283.68
282.291
280.801
279.203
277.492
275.662
273.706
271.618
269.393
267.023
264.503
261.826
258.988
255.982
252.804
249.449
245.914
242.195
238.29
234.198
229.919
225.452
220.802
215.969
210.959
205.779
200.434
194.934
189.288
183.508
177.607
171.596
165.493
159.311
153.067
146.78
140.466
134.144
127.833
121.552
115.319
109.153
103.073
97.0973
91.2424
85.5249
79.9604
74.5631
69.3459
64.3204
59.4964
54.8825
50.4851
46.3091
42.3579
38.6328
35.1337
31.859
28.8054
25.9684
23.3422
20.92
18.6942
16.6561
14.7966
13.1062
11.575
10.1927
8.94946
7.83502
6.83954
5.95335
5.16713
4.47196
3.85934
3.32124
2.85015
2.43906
2.08148
1.77143
1.50344
1.27253
1.07417
0.904297
0.759262
0.635801
0.531017
0.442345
0.367525
0.304574
0.251761
0.207578
0.170717
0.140051
0.114607
0.0935548
0.0761823
0.0618846
0.0501486
0.0405406
0.0326952
0.0263055
0.0211146
0.0169084
0.0135086
0.0107674
0.00856273
0.00679392
0.00537825
0.00424795
0.00334765
0.00263226
0.00206512
0.00161655
0.00126253
0.000983681
0.000764373
0.000591942
0.000456027
0.000347905
0.00025976
0.000183731
0.000110436
2.64804e-05
-9.00431e-05
-0.000277872
-0.000608155
-0.00121379
-0.00234479
-0.00447276
-0.00848833
-0.0160739
-0.0304077
-0.0574929
-0.108666
-0.205334
-0.387909
-0.73267
-1.38357
-2.61223
-4.93108
-9.3067
-17.562
-33.1343
-62.5046
-117.89
-222.317
-419.181
-790.254
-1489.6
-2807.42
-5290.38
-9967.96
-18778.7
-35372.5
300
300
300
300
300
300
300
300
300
300
300
300
300
300
300
300
300
300
300
300
300
300
300
300
300
300
300
299.999
299.999
299.999
299.999
299.998
299.998
299.998
299.997
299.996
299.996
299.995
299.994
299.992
299.991
299.989
299.986
299.984
299.981
299.977
299.973
299.968
299.962
299.956
299.948
299.939
299.929
299.917
299.904
299.889
299.871
299.852
299.829
299.804
299.775
299.743
299.707
299.666
299.62
299.569
299.512
299.448
299.377
299.297
299.209
299.111
299.003
298.884
298.751
298.605
298.445
298.268
298.073
297.86
297.626
297.369
297.089
296.782
296.448
296.083
295.685
295.252
294.782
294.27
293.716
293.114
292.462
291.756
290.993
290.169
289.279
288.319
287.284
286.17
284.972
283.684
282.3
280.816
279.226
277.523
275.701
273.755
271.678
269.463
267.105
264.597
261.933
259.108
256.116
252.952
249.612
246.091
242.387
238.497
234.419
230.153
225.7
221.061
216.24
211.24
206.068
200.731
195.237
189.596
183.818
177.918
171.907
165.8
159.615
153.366
147.071
140.748
134.416
128.094
121.801
115.555
109.375
103.282
97.2911
91.4215
85.6895
80.1105
74.6991
69.4682
64.4295
59.593
54.9672
50.5587
46.3726
42.4119
38.6782
35.1714
31.8898
28.83
25.9877
23.3569
20.9308
18.7015
16.6606
14.7989
13.1066
11.5739
10.1906
8.94649
7.83148
6.83563
5.94924
5.16296
4.46783
3.85533
3.31742
2.84656
2.43573
2.07842
1.76864
1.50092
1.27026
1.07216
0.902518
0.757698
0.634435
0.529831
0.441319
0.366643
0.30382
0.251118
0.207032
0.170256
0.139663
0.114282
0.0932836
0.0759566
0.0616976
0.0499942
0.0404136
0.032591
0.0262203
0.0210452
0.016852
0.0134629
0.0107305
0.00853306
0.0067701
0.00535919
0.00423274
0.00333555
0.00262265
0.00205752
0.00161055
0.0012578
0.00097997
0.000761466
0.00058967
0.000454254
0.000346522
0.00025868
0.000182881
0.000109755
2.59113e-05
-9.05606e-05
-0.000278411
-0.000608822
-0.00121475
-0.00234632
-0.00447534
-0.00849279
-0.0160817
-0.0304214
-0.0575167
-0.108708
-0.205407
-0.388036
-0.732889
-1.38395
-2.61288
-4.93219
-9.30858
-17.5652
-33.1397
-62.5134
-117.904
-222.34
-419.218
-790.312
-1489.68
-2807.55
-5290.54
-9968.13
-18778.8
-35372.3
300
300
300
300
300
300
300
300
300
300
300
300
300
300
300
300
300
300
300
300
300
300
300
300
300
300
300
299.999
299.999
299.999
299.999
299.998
299.998
299.998
299.997
299.996
299.996
299.995
299.994
299.992
299.991
299.989
299.986
299.984
299.98
299.977
299.973
299.968
299.962
299.955
299.947
299.938
299.928
299.916
299.903
299.887
299.87
299.85
299.827
299.801
299.772
299.74
299.703
299.662
299.615
299.563
299.505
299.441
299.369
299.288
299.199
299.1
298.991
298.87
298.737
298.589
298.427
298.249
298.053
297.838
297.602
297.344
297.062
296.754
296.418
296.052
295.653
295.219
294.748
294.236
293.681
293.079
292.428
291.723
290.961
290.138
289.25
288.293
287.262
286.152
284.958
283.676
282.299
280.822
279.24
277.546
275.734
273.799
271.733
269.531
267.186
264.693
262.044
259.235
256.259
253.112
249.788
246.285
242.597
238.724
234.663
230.413
225.975
221.351
216.543
211.556
206.395
201.066
195.58
189.944
184.171
178.271
172.26
166.152
159.961
153.706
147.403
141.071
134.728
128.393
122.086
115.825
109.631
103.521
97.5135
91.6272
85.8784
80.2828
74.8551
69.6085
64.5547
59.7038
55.0644
50.6432
46.4452
42.4737
38.7302
35.2145
31.9249
28.8581
26.0096
23.3735
20.9428
18.7098
16.6657
14.8013
13.1069
11.5726
10.188
8.94295
7.8273
6.83104
5.94444
5.1581
4.46303
3.85069
3.313
2.84241
2.43187
2.07487
1.76542
1.49801
1.26766
1.06984
0.900469
0.755899
0.632865
0.528467
0.440141
0.36563
0.302953
0.25038
0.206407
0.169728
0.139219
0.11391
0.092973
0.0756985
0.0614837
0.0498177
0.0402684
0.0324719
0.026123
0.020966
0.0167877
0.0134108
0.0106885
0.00849923
0.00674297
0.00533748
0.00421542
0.00332177
0.00261172
0.00204887
0.00160372
0.00125243
0.000975755
0.000758164
0.00058709
0.000452242
0.000344953
0.000257455
0.000181917
0.000108982
2.52631e-05
-9.11528e-05
-0.000279033
-0.000609597
-0.00121588
-0.00234812
-0.00447838
-0.00849805
-0.0160909
-0.0304375
-0.0575449
-0.108757
-0.205493
-0.388186
-0.73315
-1.3844
-2.61366
-4.93352
-9.31084
-17.569
-33.1461
-62.5241
-117.922
-222.369
-419.264
-790.383
-1489.79
-2807.71
-5290.76
-9968.38
-18779.1
-35372.2
300
300
300
300
300
300
300
300
300
300
300
300
300
300
300
300
300
300
300
300
300
300
300
300
300
300
300
299.999
299.999
299.999
299.999
299.998
299.998
299.998
299.997
299.996
299.996
299.995
299.993
299.992
299.99
299.988
299.986
299.983
299.98
299.976
299.972
299.967
299.961
299.954
299.946
299.937
299.927
299.915
299.901
299.885
299.868
299.847
299.824
299.798
299.769
299.735
299.698
299.656
299.609
299.556
299.497
299.431
299.358
299.277
299.186
299.086
298.975
298.853
298.717
298.568
298.404
298.224
298.026
297.809
297.571
297.311
297.027
296.716
296.378
296.01
295.609
295.174
294.701
294.188
293.631
293.029
292.377
291.673
290.911
290.09
289.204
288.249
287.221
286.115
284.927
283.65
282.28
280.811
279.238
277.554
275.753
273.83
271.777
269.59
267.26
264.782
262.151
259.359
256.402
253.274
249.97
246.486
242.818
238.965
234.923
230.692
226.272
221.665
216.873
211.9
206.751
201.434
195.957
190.328
184.559
178.662
172.651
166.541
160.346
154.084
147.773
141.43
135.075
128.726
122.404
116.127
109.915
103.787
97.7613
91.8563
86.0887
80.4746
75.0287
69.7644
64.6936
59.8266
55.1719
50.7364
46.5253
42.5416
38.7871
35.2615
31.9631
28.8885
26.0331
23.3911
20.9554
18.7181
16.6705
14.8033
13.1066
11.5704
10.1845
8.93849
7.82217
6.8255
5.93871
5.15235
4.45739
3.84525
3.30784
2.83758
2.4274
2.07077
1.76169
1.49465
1.26466
1.06717
0.898118
0.753837
0.631066
0.526907
0.438795
0.364474
0.301965
0.249539
0.205694
0.169127
0.138713
0.113487
0.0926202
0.0754053
0.0612411
0.0496175
0.0401038
0.0323371
0.0260128
0.0208763
0.0167149
0.0133519
0.010641
0.00846101
0.00671232
0.00531297
0.00419587
0.00330623
0.0025994
0.00203913
0.00159603
0.00124638
0.000971008
0.000754448
0.000584187
0.000449978
0.000343188
0.000256077
0.000180833
0.000108112
2.4533e-05
-9.18215e-05
-0.000279739
-0.00061048
-0.00121716
-0.00235018
-0.00448187
-0.00850409
-0.0161015
-0.030456
-0.0575775
-0.108814
-0.205593
-0.388359
-0.733451
-1.38492
-2.61455
-4.93506
-9.31347
-17.5734
-33.1536
-62.5366
-117.942
-222.402
-419.318
-790.469
-1489.92
-2807.9
-5291.02
-9968.71
-18779.4
-35372.3
300
300
300
300
300
300
300
300
300
300
300
300
300
300
300
300
300
300
300
300
300
300
300
300
300
300
299.999
299.999
299.999
299.999
299.999
299.998
299.998
299.998
299.997
299.996
299.996
299.995
299.993
299.992
299.99
299.988
299.986
299.983
299.98
299.976
299.972
299.966
299.96
299.954
299.945
299.936
299.925
299.913
299.899
299.883
299.865
299.844
299.821
299.794
299.764
299.73
299.692
299.649
299.601
299.547
299.486
299.419
299.345
299.262
299.169
299.067
298.954
298.83
298.692
298.54
298.374
298.191
297.99
297.77
297.529
297.266
296.979
296.665
296.324
295.953
295.55
295.111
294.636
294.121
293.562
292.959
292.306
291.6
290.839
290.018
289.134
288.181
287.156
286.054
284.871
283.6
282.237
280.776
279.212
277.539
275.75
273.84
271.802
269.63
267.317
264.857
262.244
259.473
256.536
253.429
250.147
246.686
243.041
239.21
235.19
230.98
226.581
221.994
217.22
212.264
207.131
201.827
196.36
190.74
184.977
179.084
173.074
166.962
160.763
154.495
148.175
141.821
135.452
129.089
122.75
116.455
110.224
104.076
98.0307
92.1052
86.3171
80.6827
75.2168
69.9332
64.8437
59.959
55.2876
50.8365
46.6109
42.614
38.8474
35.311
32.0029
28.9199
26.0571
23.4087
20.9676
18.7258
16.6744
14.8041
13.1051
11.567
10.1797
8.93271
7.81575
6.81872
5.93179
5.14547
4.4507
3.83885
3.3018
2.83195
2.42221
2.06603
1.7574
1.49079
1.26121
1.06412
0.895429
0.751482
0.629016
0.52513
0.437264
0.363161
0.300843
0.248586
0.204887
0.168446
0.138142
0.113009
0.092222
0.0750747
0.0609675
0.0493919
0.0399184
0.0321853
0.0258889
0.0207754
0.0166331
0.0132858
0.0105876
0.00841814
0.00667795
0.0052855
0.00417398
0.00328883
0.0025856
0.00202822
0.00158743
0.00123962
0.000965702
0.000750296
0.000580945
0.00044745
0.000341219
0.000254539
0.000179623
0.000107141
2.3718e-05
-9.2569e-05
-0.000280529
-0.000611471
-0.00121861
-0.0023525
-0.0044858
-0.0085109
-0.0161134
-0.030477
-0.0576142
-0.108879
-0.205705
-0.388555
-0.733792
-1.38551
-2.61557
-4.93681
-9.31646
-17.5785
-33.1622
-62.551
-117.966
-222.441
-419.381
-790.568
-1490.07
-2808.12
-5291.34
-9969.11
-18779.8
-35372.4
300
300
300
300
300
300
300
300
300
300
300
300
300
300
300
300
300
300
300
300
300
300
300
300
300
300
299.999
299.999
299.999
299.999
299.999
299.998
299.998
299.998
299.997
299.996
299.995
299.994
299.993
299.992
299.99
299.988
299.986
299.983
299.98
299.976
299.971
299.966
299.96
299.953
299.944
299.935
299.924
299.911
299.897
299.88
299.862
299.84
299.816
299.789
299.758
299.723
299.684
299.639
299.59
299.535
299.473
299.404
299.327
299.242
299.148
299.043
298.927
298.8
298.659
298.504
298.334
298.147
297.943
297.719
297.474
297.207
296.915
296.598
296.252
295.877
295.469
295.027
294.548
294.029
293.468
292.862
292.206
291.5
290.737
289.916
289.032
288.081
287.058
285.96
284.781
283.516
282.16
280.708
279.153
277.491
275.715
273.819
271.796
269.641
267.346
264.906
262.315
259.565
256.651
253.568
250.311
246.875
243.255
239.449
235.454
231.269
226.894
222.329
217.576
212.64
207.524
202.235
196.781
191.171
185.416
179.528
173.52
167.407
161.205
154.931
148.601
142.236
135.854
129.475
123.119
116.805
110.554
104.385
98.3177
92.3702
86.5599
80.9035
75.4162
70.1116
65.0021
60.0982
55.4089
50.941
46.6999
42.6888
38.9093
35.3613
32.043
28.9509
26.0803
23.4252
20.9784
18.7318
16.6766
14.8032
13.1016
11.5618
10.1731
8.92516
7.80764
6.81035
5.92339
5.13723
4.44275
3.8313
3.29472
2.82538
2.41618
2.06055
1.75245
1.48636
1.25727
1.06063
0.892362
0.748802
0.626686
0.523115
0.435529
0.361675
0.299576
0.24751
0.203977
0.16768
0.137499
0.112472
0.0917747
0.0747036
0.0606608
0.0491392
0.0397109
0.0320154
0.0257504
0.0206628
0.0165417
0.0132119
0.0105281
0.00837033
0.00663964
0.0052549
0.0041496
0.00326945
0.00257025
0.00201609
0.00157787
0.0012321
0.000959808
0.000745685
0.000577345
0.000444644
0.000339033
0.000252834
0.000178282
0.000106065
2.28147e-05
-9.33974e-05
-0.000281404
-0.000612571
-0.00122021
-0.00235508
-0.00449017
-0.00851848
-0.0161267
-0.0305002
-0.057655
-0.10895
-0.20583
-0.388774
-0.734172
-1.38617
-2.61671
-4.93876
-9.3198
-17.5842
-33.1717
-62.567
-117.993
-222.485
-419.451
-790.679
-1490.25
-2808.38
-5291.7
-9969.58
-18780.3
-35372.7
300
300
300
300
300
300
300
300
300
300
300
300
300
300
300
300
300
300
300
300
300
300
300
300
300
300
299.999
299.999
299.999
299.999
299.999
299.998
299.998
299.997
299.997
299.996
299.995
299.994
299.993
299.992
299.99
299.988
299.985
299.982
299.979
299.975
299.97
299.965
299.959
299.951
299.943
299.933
299.922
299.909
299.894
299.877
299.858
299.835
299.81
299.782
299.75
299.714
299.673
299.628
299.577
299.519
299.455
299.384
299.305
299.217
299.119
299.011
298.892
298.761
298.616
298.457
298.282
298.091
297.881
297.652
297.402
297.129
296.832
296.509
296.158
295.777
295.363
294.916
294.431
293.908
293.342
292.731
292.072
291.362
290.598
289.775
288.89
287.939
286.918
285.823
284.647
283.388
282.039
280.595
279.05
277.399
275.636
273.755
271.749
269.611
267.337
264.918
262.349
259.623
256.735
253.679
250.449
247.04
243.448
239.671
235.704
231.547
227.198
222.659
217.93
213.016
207.921
202.65
197.211
191.614
185.869
179.987
173.983
167.87
161.665
155.385
149.047
142.671
136.275
129.879
123.505
117.171
110.899
104.708
98.6175
92.6466
86.813
81.1333
75.6231
70.2963
65.1655
60.2414
55.5329
51.0473
46.7897
42.7637
38.9707
35.4105
32.0815
28.98
26.1013
23.4392
20.9866
18.7352
16.676
14.7995
13.0956
11.554
10.1641
8.91537
7.79743
6.80002
5.91319
5.12734
4.43331
3.8224
3.28644
2.81775
2.4092
2.05422
1.74676
1.48128
1.25276
1.05665
0.888875
0.745761
0.624047
0.520837
0.433572
0.36
0.29815
0.246301
0.202956
0.166821
0.136779
0.111871
0.0912748
0.0742892
0.0603185
0.0488574
0.0394797
0.0318263
0.0255962
0.0205375
0.0164402
0.0131299
0.0104621
0.00831729
0.00659717
0.00522098
0.00412259
0.003248
0.00255326
0.00200267
0.0015673
0.00122379
0.000953294
0.000740591
0.00057337
0.000441548
0.000336622
0.000250952
0.000176803
0.000104879
2.18198e-05
-9.43091e-05
-0.000282367
-0.000613779
-0.00122197
-0.00235792
-0.00449496
-0.00852679
-0.0161412
-0.0305258
-0.0576999
-0.109029
-0.205968
-0.389014
-0.734589
-1.38689
-2.61796
-4.94091
-9.32348
-17.5905
-33.1823
-62.5847
-118.022
-222.533
-419.53
-790.804
-1490.44
-2808.67
-5292.12
-9970.13
-18780.9
-35373.1
300
300
300
300
300
300
300
300
300
300
300
300
300
300
300
300
300
300
300
300
300
300
300
300
300
300
299.999
299.999
299.999
299.999
299.999
299.998
299.998
299.997
299.997
299.996
299.995
299.994
299.993
299.991
299.99
299.988
299.985
299.982
299.979
299.974
299.97
299.964
299.957
299.95
299.941
299.931
299.919
299.906
299.89
299.873
299.852
299.829
299.803
299.774
299.74
299.703
299.66
299.613
299.559
299.5
299.433
299.359
299.276
299.185
299.083
298.971
298.847
298.711
298.561
298.396
298.216
298.018
297.802
297.566
297.309
297.029
296.724
296.393
296.035
295.646
295.225
294.77
294.278
293.747
293.175
292.558
291.894
291.179
290.41
289.584
288.697
287.746
286.725
285.63
284.458
283.203
281.86
280.424
278.889
277.25
275.5
273.634
271.646
269.528
267.274
264.878
262.334
259.635
256.774
253.746
250.546
247.168
243.608
239.862
235.927
231.8
227.482
222.971
218.27
213.382
208.31
203.06
197.64
192.058
186.325
180.452
174.452
168.342
162.135
155.85
149.504
143.116
136.706
130.295
123.901
117.548
111.253
105.039
98.9251
92.9298
87.0716
81.3676
75.8334
70.4835
65.3304
60.3851
55.6567
51.1525
46.8779
42.8363
39.0293
35.4566
32.1165
29.0054
26.1185
23.4494
20.991
18.7348
16.6719
14.7924
13.0863
11.543
10.1521
8.90281
7.78467
6.78736
5.90086
5.11552
4.42213
3.81195
3.27677
2.80888
2.40114
2.04694
1.74024
1.47547
1.24762
1.05214
0.884923
0.742322
0.621069
0.518271
0.431371
0.358121
0.296552
0.244947
0.201814
0.165862
0.135976
0.111201
0.0907182
0.0738283
0.0599381
0.0485446
0.0392232
0.0316167
0.0254254
0.0203988
0.0163279
0.0130393
0.0103891
0.0082587
0.00655028
0.00518355
0.0040928
0.00322436
0.00253454
0.00198789
0.00155566
0.00121465
0.000946129
0.00073499
0.000569001
0.000438145
0.000333974
0.000248887
0.00017518
0.000103578
2.07299e-05
-9.53064e-05
-0.000283418
-0.000615094
-0.00122389
-0.00236099
-0.00450017
-0.00853583
-0.016157
-0.0305536
-0.0577487
-0.109114
-0.206118
-0.389275
-0.735044
-1.38768
-2.61932
-4.94325
-9.32748
-17.5973
-33.1938
-62.6041
-118.054
-222.586
-419.615
-790.94
-1490.65
-2808.99
-5292.57
-9970.73
-18781.6
-35373.6
300
300
300
300
300
300
300
300
300
300
300
300
300
300
300
300
300
300
300
300
300
300
300
300
300
300
299.999
299.999
299.999
299.999
299.999
299.998
299.998
299.997
299.997
299.996
299.995
299.994
299.993
299.991
299.989
299.987
299.985
299.981
299.978
299.974
299.969
299.963
299.956
299.948
299.939
299.928
299.916
299.902
299.886
299.867
299.846
299.822
299.794
299.763
299.728
299.689
299.644
299.594
299.538
299.475
299.405
299.326
299.24
299.144
299.037
298.919
298.79
298.647
298.49
298.318
298.13
297.924
297.7
297.455
297.189
296.899
296.585
296.244
295.876
295.477
295.046
294.581
294.079
293.539
292.958
292.332
291.66
290.938
290.163
289.332
288.441
287.486
286.464
285.37
284.199
282.947
281.61
280.181
278.656
277.028
275.292
273.442
271.471
269.373
267.142
264.771
262.253
259.582
256.752
253.756
250.589
247.245
243.719
240.008
236.107
232.016
227.731
223.253
218.583
213.724
208.679
203.454
198.055
192.491
186.772
180.911
174.919
168.812
162.605
156.316
149.963
143.565
137.142
130.714
124.302
117.928
111.611
105.374
99.2347
93.2144
87.3309
81.6017
76.0428
70.6689
65.4928
60.5257
55.7768
51.2536
46.9615
42.904
39.0827
35.4974
32.1461
29.0254
26.1303
23.4544
20.9902
18.7295
16.663
14.7808
13.0727
11.5282
10.1365
8.88693
7.76887
6.77194
5.88603
5.10145
4.40894
3.79971
3.26551
2.79861
2.39185
2.0386
1.73278
1.46886
1.24179
1.04702
0.880459
0.738446
0.61772
0.515391
0.428904
0.356018
0.294766
0.243437
0.200542
0.164794
0.135084
0.110458
0.090101
0.0733177
0.059517
0.0481985
0.0389397
0.0313852
0.025237
0.0202458
0.0162041
0.0129394
0.0103088
0.00819427
0.00649873
0.00514243
0.00406009
0.0031984
0.00251401
0.00197168
0.0015429
0.00120463
0.00093828
0.000728856
0.000564218
0.000434421
0.000331076
0.000246628
0.000173407
0.000102158
1.95414e-05
-9.63915e-05
-0.000284559
-0.000616518
-0.00122596
-0.00236431
-0.00450579
-0.00854556
-0.0161741
-0.0305835
-0.0578013
-0.109207
-0.206279
-0.389557
-0.735534
-1.38853
-2.62079
-4.94578
-9.33181
-17.6046
-33.2063
-62.625
-118.089
-222.643
-419.708
-791.088
-1490.88
-2809.34
-5293.08
-9971.41
-18782.3