/*--------------------------------*- C++ -*----------------------------------*\
| =========                 |                                                 |
| \\      /  F ield         | OpenFOAM: The Open Source CFD Toolbox           |
|  \\    /   O peration     | Version:  2306                                  |
|   \\  /    A nd           | Website:  www.openfoam.com                      |
|    \\/     M anipulation  |                                                 |
\*---------------------------------------------------------------------------*/
FoamFile
{
    version     2.0;
    format      ascii;
    arch        "LSB;label=32;scalar=64";
    class       volVectorField;
    location    "3.5";
    object      U;
}
// * * * * * * * * * * * * * * * * * * * * * * * * * * * * * * * * * * * * * //

dimensions      [0 1 -1 0 0 0 0];

internalField   nonuniform List<vector> 
32768
(
(1.00001 -4.00984e-05 0)
(1.00017 -0.000120472 0)
(1.00048 -0.000200965 0)
(1.00096 -0.00028158 0)
(1.00161 -0.000362416 0)
(1.00242 -0.000443568 0)
(1.00339 -0.000525097 0)
(1.00452 -0.000607055 0)
(1.00581 -0.000689498 0)
(1.00728 -0.000772486 0)
(1.0089 -0.000856067 0)
(1.0107 -0.000940288 0)
(1.01267 -0.00102519 0)
(1.0148 -0.00111079 0)
(1.01711 -0.00119712 0)
(1.01959 -0.0012842 0)
(1.02225 -0.00137202 0)
(1.02508 -0.00146058 0)
(1.02809 -0.00154987 0)
(1.03128 -0.00163985 0)
(1.03465 -0.00173048 0)
(1.0382 -0.00182171 0)
(1.04194 -0.00191347 0)
(1.04586 -0.00200567 0)
(1.04996 -0.00209824 0)
(1.05425 -0.00219104 0)
(1.05873 -0.00228396 0)
(1.06339 -0.00237685 0)
(1.06823 -0.00246956 0)
(1.07327 -0.00256192 0)
(1.07848 -0.00265373 0)
(1.08388 -0.0027448 0)
(1.08946 -0.00283492 0)
(1.09522 -0.00292385 0)
(1.10116 -0.00301135 0)
(1.10727 -0.00309718 0)
(1.11355 -0.00318107 0)
(1.12 -0.00326276 0)
(1.12661 -0.00334197 0)
(1.13337 -0.00341842 0)
(1.14028 -0.00349184 0)
(1.14734 -0.00356194 0)
(1.15453 -0.00362844 0)
(1.16186 -0.00369108 0)
(1.1693 -0.00374959 0)
(1.17686 -0.00380372 0)
(1.18452 -0.00385322 0)
(1.19228 -0.00389785 0)
(1.20012 -0.00393742 0)
(1.20803 -0.00397173 0)
(1.21601 -0.00400059 0)
(1.22404 -0.00402386 0)
(1.23211 -0.00404141 0)
(1.24021 -0.00405311 0)
(1.24833 -0.0040589 0)
(1.25645 -0.0040587 0)
(1.26457 -0.00405247 0)
(1.27267 -0.00404021 0)
(1.28074 -0.0040219 0)
(1.28876 -0.00399759 0)
(1.29673 -0.00396732 0)
(1.30464 -0.00393115 0)
(1.31246 -0.00388915 0)
(1.3202 -0.00384144 0)
(1.32783 -0.0037881 0)
(1.33535 -0.00372927 0)
(1.34275 -0.00366507 0)
(1.35002 -0.00359564 0)
(1.35714 -0.00352111 0)
(1.36411 -0.00344162 0)
(1.37091 -0.00335733 0)
(1.37754 -0.00326837 0)
(1.38399 -0.0031749 0)
(1.39024 -0.00307704 0)
(1.3963 -0.00297495 0)
(1.40215 -0.00286874 0)
(1.40778 -0.00275857 0)
(1.41318 -0.00264454 0)
(1.41836 -0.00252679 0)
(1.42329 -0.00240543 0)
(1.42798 -0.00228057 0)
(1.43242 -0.00215234 0)
(1.43659 -0.00202084 0)
(1.4405 -0.00188619 0)
(1.44414 -0.00174849 0)
(1.4475 -0.00160786 0)
(1.45057 -0.00146442 0)
(1.45336 -0.0013183 0)
(1.45585 -0.00116962 0)
(1.45804 -0.00101853 0)
(1.45992 -0.000865168 0)
(1.4615 -0.000709702 0)
(1.46276 -0.000552302 0)
(1.46371 -0.000393152 0)
(1.46433 -0.000232454 0)
(1.46464 -7.04157e-05 0)
(1.46461 9.27181e-05 0)
(1.46426 0.000256704 0)
(1.46359 0.000421291 0)
(1.46258 0.000586204 0)
(1.46124 0.000751149 0)
(1.45957 0.00091582 0)
(1.45758 0.0010799 0)
(1.45525 0.00124306 0)
(1.4526 0.00140495 0)
(1.44963 0.00156522 0)
(1.44634 0.00172349 0)
(1.44273 0.00187939 0)
(1.43882 0.00203252 0)
(1.4346 0.00218246 0)
(1.43008 0.00232878 0)
(1.42528 0.00247102 0)
(1.42019 0.00260872 0)
(1.41484 0.00274135 0)
(1.40922 0.00286839 0)
(1.40336 0.00298926 0)
(1.39726 0.00310339 0)
(1.39094 0.00321016 0)
(1.38441 0.00330894 0)
(1.3777 0.00339913 0)
(1.37081 0.00348014 0)
(1.36377 0.00355141 0)
(1.3566 0.00361248 0)
(1.34931 0.00366297 0)
(1.34194 0.00370264 0)
(1.33449 0.00373138 0)
(1.327 0.00374928 0)
(1.31949 0.00375658 0)
(1.31197 0.00375374 0)
(1.30446 0.00374137 0)
(1.29699 0.00372027 0)
(1.28957 0.00369137 0)
(1.28222 0.00365569 0)
(1.27494 0.00361434 0)
(1.26775 0.00356845 0)
(1.26066 0.00351909 0)
(1.25367 0.0034673 0)
(1.24678 0.00341399 0)
(1.24 0.00335997 0)
(1.23333 0.00330587 0)
(1.22677 0.00325217 0)
(1.22032 0.00319917 0)
(1.21397 0.00314706 0)
(1.20772 0.00309586 0)
(1.20158 0.0030455 0)
(1.19554 0.0029958 0)
(1.18959 0.00294655 0)
(1.18375 0.00289751 0)
(1.178 0.0028484 0)
(1.17235 0.00279898 0)
(1.1668 0.00274903 0)
(1.16135 0.00269838 0)
(1.156 0.00264688 0)
(1.15076 0.00259445 0)
(1.14562 0.00254106 0)
(1.1406 0.00248669 0)
(1.13568 0.0024314 0)
(1.13087 0.00237526 0)
(1.12617 0.00231837 0)
(1.12159 0.00226086 0)
(1.11713 0.00220284 0)
(1.11278 0.00214448 0)
(1.10855 0.00208591 0)
(1.10444 0.00202728 0)
(1.10044 0.00196874 0)
(1.09657 0.00191041 0)
(1.0928 0.00185243 0)
(1.08916 0.00179492 0)
(1.08562 0.00173799 0)
(1.08221 0.00168174 0)
(1.0789 0.00162627 0)
(1.0757 0.00157165 0)
(1.07261 0.00151797 0)
(1.06963 0.00146529 0)
(1.06675 0.00141367 0)
(1.06398 0.00136314 0)
(1.0613 0.00131376 0)
(1.05872 0.00126555 0)
(1.05624 0.00121854 0)
(1.05385 0.00117276 0)
(1.05155 0.00112822 0)
(1.04934 0.00108492 0)
(1.04721 0.00104287 0)
(1.04517 0.00100207 0)
(1.04321 0.000962526 0)
(1.04132 0.000924218 0)
(1.03951 0.00088714 0)
(1.03777 0.000851279 0)
(1.03611 0.00081662 0)
(1.03451 0.000783143 0)
(1.03298 0.000750829 0)
(1.03151 0.000719657 0)
(1.0301 0.000689603 0)
(1.02875 0.000660644 0)
(1.02746 0.000632754 0)
(1.02622 0.000605907 0)
(1.02503 0.000580076 0)
(1.0239 0.000555234 0)
(1.02281 0.000531354 0)
(1.02178 0.000508408 0)
(1.02078 0.000486368 0)
(1.01983 0.000465207 0)
(1.01892 0.000444897 0)
(1.01805 0.000425411 0)
(1.01722 0.000406721 0)
(1.01643 0.000388801 0)
(1.01567 0.000371624 0)
(1.01494 0.000355164 0)
(1.01425 0.000339397 0)
(1.01358 0.000324297 0)
(1.01295 0.00030984 0)
(1.01235 0.000296002 0)
(1.01177 0.000282761 0)
(1.01122 0.000270093 0)
(1.01069 0.000257977 0)
(1.01018 0.000246392 0)
(1.0097 0.000235317 0)
(1.00924 0.000224733 0)
(1.0088 0.000214619 0)
(1.00838 0.000204958 0)
(1.00798 0.000195732 0)
(1.0076 0.000186923 0)
(1.00724 0.000178514 0)
(1.00689 0.00017049 0)
(1.00656 0.000162834 0)
(1.00624 0.000155533 0)
(1.00593 0.00014857 0)
(1.00564 0.000141934 0)
(1.00537 0.00013561 0)
(1.0051 0.000129585 0)
(1.00485 0.000123848 0)
(1.00461 0.000118387 0)
(1.00438 0.00011319 0)
(1.00415 0.000108247 0)
(1.00394 0.000103547 0)
(1.00374 9.90808e-05 0)
(1.00355 9.48388e-05 0)
(1.00336 9.0812e-05 0)
(1.00318 8.69918e-05 0)
(1.00301 8.33701e-05 0)
(1.00285 7.9939e-05 0)
(1.00269 7.66913e-05 0)
(1.00254 7.36198e-05 0)
(1.0024 7.07179e-05 0)
(1.00226 6.79792e-05 0)
(1.00213 6.53978e-05 0)
(1.002 6.29678e-05 0)
(1.00188 6.06842e-05 0)
(1.00176 5.85411e-05 0)
(1.00164 5.65356e-05 0)
(1.00153 5.46592e-05 0)
(1.00142 5.29135e-05 0)
(1.00132 5.12881e-05 0)
(1.00121 4.97601e-05 0)
(1.00113 4.8455e-05 0)
(1.00098 4.67864e-05 0)
(1.00001 -0.00012047 0)
(1.00017 -0.000361637 0)
(1.00048 -0.000603079 0)
(1.00096 -0.00084492 0)
(1.00161 -0.00108743 0)
(1.00241 -0.00133085 0)
(1.00338 -0.00157539 0)
(1.00451 -0.00182122 0)
(1.00581 -0.00206852 0)
(1.00727 -0.00231745 0)
(1.0089 -0.00256817 0)
(1.01069 -0.00282081 0)
(1.01266 -0.00307549 0)
(1.01479 -0.0033323 0)
(1.0171 -0.0035913 0)
(1.01958 -0.00385254 0)
(1.02223 -0.00411603 0)
(1.02506 -0.00438174 0)
(1.02807 -0.00464964 0)
(1.03126 -0.00491963 0)
(1.03463 -0.00519158 0)
(1.03818 -0.00546535 0)
(1.04192 -0.00574071 0)
(1.04584 -0.00601744 0)
(1.04994 -0.00629524 0)
(1.05423 -0.00657378 0)
(1.05871 -0.00685267 0)
(1.06337 -0.00713151 0)
(1.06822 -0.00740981 0)
(1.07325 -0.00768705 0)
(1.07847 -0.00796269 0)
(1.08387 -0.00823611 0)
(1.08946 -0.00850667 0)
(1.09522 -0.00877368 0)
(1.10116 -0.00903642 0)
(1.10728 -0.00929414 0)
(1.11356 -0.00954606 0)
(1.12001 -0.00979136 0)
(1.12663 -0.0100292 0)
(1.1334 -0.0102588 0)
(1.14032 -0.0104793 0)
(1.14738 -0.0106899 0)
(1.15459 -0.0108896 0)
(1.16192 -0.0110777 0)
(1.16937 -0.0112535 0)
(1.17694 -0.0114161 0)
(1.18461 -0.0115647 0)
(1.19238 -0.0116988 0)
(1.20023 -0.0118177 0)
(1.20816 -0.0119207 0)
(1.21615 -0.0120074 0)
(1.22419 -0.0120773 0)
(1.23227 -0.01213 0)
(1.24039 -0.0121651 0)
(1.24852 -0.0121825 0)
(1.25665 -0.0121819 0)
(1.26478 -0.0121632 0)
(1.27289 -0.0121263 0)
(1.28098 -0.0120713 0)
(1.28901 -0.0119983 0)
(1.297 -0.0119074 0)
(1.30491 -0.0117987 0)
(1.31275 -0.0116726 0)
(1.3205 -0.0115293 0)
(1.32815 -0.0113691 0)
(1.33568 -0.0111925 0)
(1.34309 -0.0109997 0)
(1.35037 -0.0107912 0)
(1.3575 -0.0105675 0)
(1.36448 -0.0103288 0)
(1.37129 -0.0100758 0)
(1.37793 -0.00980873 0)
(1.38439 -0.00952812 0)
(1.39065 -0.00923439 0)
(1.39671 -0.00892793 0)
(1.40257 -0.00860917 0)
(1.40821 -0.00827848 0)
(1.41362 -0.00793625 0)
(1.4188 -0.00758284 0)
(1.42375 -0.00721862 0)
(1.42844 -0.00684392 0)
(1.43288 -0.00645909 0)
(1.43707 -0.00606445 0)
(1.44098 -0.00566034 0)
(1.44462 -0.00524711 0)
(1.44799 -0.00482508 0)
(1.45107 -0.00439462 0)
(1.45386 -0.0039561 0)
(1.45635 -0.00350991 0)
(1.45855 -0.00305646 0)
(1.46043 -0.0025962 0)
(1.46201 -0.00212962 0)
(1.46328 -0.00165723 0)
(1.46423 -0.00117957 0)
(1.46486 -0.000697265 0)
(1.46516 -0.00021093 0)
(1.46514 0.000278721 0)
(1.46479 0.000770945 0)
(1.46412 0.00126497 0)
(1.46311 0.00175999 0)
(1.46177 0.0022551 0)
(1.4601 0.00274941 0)
(1.4581 0.00324195 0)
(1.45577 0.00373173 0)
(1.45312 0.0042177 0)
(1.45014 0.00469881 0)
(1.44684 0.00517394 0)
(1.44323 0.00564195 0)
(1.43931 0.00610163 0)
(1.43509 0.00655174 0)
(1.43056 0.006991 0)
(1.42575 0.00741802 0)
(1.42066 0.00783138 0)
(1.41529 0.00822955 0)
(1.40967 0.00861092 0)
(1.40379 0.00897381 0)
(1.39768 0.00931644 0)
(1.39135 0.00963699 0)
(1.38481 0.00993359 0)
(1.37808 0.0102044 0)
(1.37118 0.0104477 0)
(1.36412 0.0106617 0)
(1.35693 0.0108452 0)
(1.34963 0.0109969 0)
(1.34224 0.0111161 0)
(1.33478 0.0112025 0)
(1.32727 0.0112564 0)
(1.31974 0.0112784 0)
(1.3122 0.01127 0)
(1.30468 0.011233 0)
(1.29719 0.0111697 0)
(1.28975 0.0110829 0)
(1.28237 0.0109758 0)
(1.27508 0.0108516 0)
(1.26787 0.0107137 0)
(1.26076 0.0105654 0)
(1.25375 0.0104097 0)
(1.24685 0.0102495 0)
(1.24005 0.0100871 0)
(1.23337 0.0099244 0)
(1.22679 0.00976289 0)
(1.22032 0.00960351 0)
(1.21396 0.00944677 0)
(1.2077 0.00929277 0)
(1.20155 0.00914127 0)
(1.1955 0.00899179 0)
(1.18954 0.00884367 0)
(1.18369 0.00869617 0)
(1.17793 0.00854849 0)
(1.17227 0.0083999 0)
(1.16672 0.00824975 0)
(1.16126 0.00809748 0)
(1.15591 0.0079427 0)
(1.15066 0.00778514 0)
(1.14552 0.00762468 0)
(1.14049 0.00746134 0)
(1.13557 0.00729523 0)
(1.13076 0.00712659 0)
(1.12606 0.00695571 0)
(1.12148 0.00678296 0)
(1.11701 0.00660875 0)
(1.11267 0.00643349 0)
(1.10843 0.00625762 0)
(1.10432 0.00608159 0)
(1.10033 0.00590581 0)
(1.09645 0.0057307 0)
(1.09269 0.00555664 0)
(1.08904 0.00538401 0)
(1.08551 0.00521312 0)
(1.08209 0.0050443 0)
(1.07879 0.00487781 0)
(1.07559 0.00471391 0)
(1.07251 0.00455282 0)
(1.06953 0.00439473 0)
(1.06665 0.00423981 0)
(1.06388 0.0040882 0)
(1.0612 0.00394003 0)
(1.05863 0.00379539 0)
(1.05615 0.00365436 0)
(1.05376 0.003517 0)
(1.05146 0.00338337 0)
(1.04925 0.00325347 0)
(1.04713 0.00312733 0)
(1.04509 0.00300495 0)
(1.04313 0.00288632 0)
(1.04125 0.00277141 0)
(1.03944 0.0026602 0)
(1.0377 0.00255263 0)
(1.03604 0.00244867 0)
(1.03444 0.00234827 0)
(1.03291 0.00225135 0)
(1.03145 0.00215786 0)
(1.03004 0.00206772 0)
(1.02869 0.00198087 0)
(1.0274 0.00189723 0)
(1.02617 0.00181672 0)
(1.02498 0.00173925 0)
(1.02385 0.00166475 0)
(1.02277 0.00159314 0)
(1.02173 0.00152433 0)
(1.02074 0.00145824 0)
(1.01979 0.00139479 0)
(1.01888 0.00133389 0)
(1.01801 0.00127545 0)
(1.01718 0.00121941 0)
(1.01639 0.00116568 0)
(1.01563 0.00111417 0)
(1.01491 0.00106482 0)
(1.01422 0.00101754 0)
(1.01355 0.000972265 0)
(1.01292 0.000928917 0)
(1.01232 0.000887427 0)
(1.01174 0.000847725 0)
(1.01119 0.000809743 0)
(1.01066 0.000773416 0)
(1.01016 0.000738681 0)
(1.00968 0.000705476 0)
(1.00922 0.000673742 0)
(1.00878 0.00064342 0)
(1.00837 0.000614455 0)
(1.00797 0.000586793 0)
(1.00759 0.000560382 0)
(1.00722 0.000535172 0)
(1.00687 0.000511114 0)
(1.00654 0.000488162 0)
(1.00622 0.000466271 0)
(1.00592 0.000445398 0)
(1.00563 0.000425502 0)
(1.00535 0.000406542 0)
(1.00509 0.00038848 0)
(1.00484 0.000371281 0)
(1.0046 0.000354908 0)
(1.00437 0.000339327 0)
(1.00414 0.000324508 0)
(1.00393 0.000310418 0)
(1.00373 0.000297029 0)
(1.00354 0.000284312 0)
(1.00335 0.00027224 0)
(1.00318 0.000260787 0)
(1.00301 0.000249929 0)
(1.00284 0.000239644 0)
(1.00269 0.000229907 0)
(1.00254 0.0002207 0)
(1.00239 0.000212 0)
(1.00226 0.00020379 0)
(1.00212 0.000196051 0)
(1.00199 0.000188767 0)
(1.00187 0.000181921 0)
(1.00175 0.000175497 0)
(1.00164 0.000169483 0)
(1.00153 0.000163865 0)
(1.00142 0.000158617 0)
(1.00132 0.000153783 0)
(1.00121 0.000149139 0)
(1.00113 0.000145404 0)
(1.00098 0.000140177 0)
(1.00001 -0.000200873 0)
(1.00017 -0.000602691 0)
(1.00048 -0.00100489 0)
(1.00096 -0.00140781 0)
(1.00161 -0.00181185 0)
(1.00241 -0.0022174 0)
(1.00338 -0.00262479 0)
(1.00451 -0.00303434 0)
(1.0058 -0.00344635 0)
(1.00726 -0.00386111 0)
(1.00889 -0.00427887 0)
(1.01068 -0.00469986 0)
(1.01264 -0.00512426 0)
(1.01477 -0.00555225 0)
(1.01708 -0.00598392 0)
(1.01955 -0.00641935 0)
(1.02221 -0.00685856 0)
(1.02504 -0.00730152 0)
(1.02804 -0.00774816 0)
(1.03123 -0.00819832 0)
(1.0346 -0.00865181 0)
(1.03815 -0.00910836 0)
(1.04188 -0.00956762 0)
(1.0458 -0.0100292 0)
(1.0499 -0.0104926 0)
(1.05419 -0.0109573 0)
(1.05867 -0.0114227 0)
(1.06333 -0.0118879 0)
(1.06819 -0.0123524 0)
(1.07322 -0.0128151 0)
(1.07844 -0.0132753 0)
(1.08385 -0.0137317 0)
(1.08944 -0.0141834 0)
(1.09521 -0.0146293 0)
(1.10116 -0.0150681 0)
(1.10728 -0.0154985 0)
(1.11358 -0.0159193 0)
(1.12004 -0.0163291 0)
(1.12667 -0.0167265 0)
(1.13345 -0.0171101 0)
(1.14039 -0.0174785 0)
(1.14747 -0.0178304 0)
(1.15469 -0.0181642 0)
(1.16204 -0.0184786 0)
(1.16951 -0.0187724 0)
(1.1771 -0.0190442 0)
(1.18479 -0.0192927 0)
(1.19258 -0.0195169 0)
(1.20046 -0.0197156 0)
(1.20841 -0.0198879 0)
(1.21642 -0.0200328 0)
(1.22449 -0.0201497 0)
(1.2326 -0.0202378 0)
(1.24074 -0.0202967 0)
(1.24889 -0.0203258 0)
(1.25705 -0.0203248 0)
(1.26521 -0.0202936 0)
(1.27335 -0.0202321 0)
(1.28145 -0.0201403 0)
(1.28952 -0.0200184 0)
(1.29753 -0.0198665 0)
(1.30547 -0.0196851 0)
(1.31333 -0.0194745 0)
(1.3211 -0.0192352 0)
(1.32877 -0.0189678 0)
(1.33633 -0.0186728 0)
(1.34376 -0.018351 0)
(1.35106 -0.018003 0)
(1.35822 -0.0176294 0)
(1.36521 -0.0172311 0)
(1.37205 -0.0168088 0)
(1.37871 -0.0163631 0)
(1.38518 -0.0158949 0)
(1.39146 -0.0154048 0)
(1.39754 -0.0148935 0)
(1.40342 -0.0143616 0)
(1.40907 -0.01381 0)
(1.4145 -0.0132391 0)
(1.4197 -0.0126496 0)
(1.42465 -0.0120421 0)
(1.42936 -0.0114171 0)
(1.43382 -0.0107752 0)
(1.43801 -0.010117 0)
(1.44194 -0.00944305 0)
(1.44559 -0.00875384 0)
(1.44897 -0.00804998 0)
(1.45206 -0.00733204 0)
(1.45486 -0.00660064 0)
(1.45736 -0.00585644 0)
(1.45956 -0.00510011 0)
(1.46146 -0.0043324 0)
(1.46305 -0.0035541 0)
(1.46432 -0.00276608 0)
(1.46528 -0.00196925 0)
(1.46591 -0.00116462 0)
(1.46622 -0.000353273 0)
(1.4662 0.000463675 0)
(1.46585 0.001285 0)
(1.46517 0.00210936 0)
(1.46416 0.0029354 0)
(1.46282 0.00376164 0)
(1.46115 0.00458656 0)
(1.45915 0.00540857 0)
(1.45681 0.00622599 0)
(1.45415 0.00703709 0)
(1.45117 0.0078401 0)
(1.44786 0.00863314 0)
(1.44424 0.0094143 0)
(1.4403 0.0101816 0)
(1.43606 0.0109329 0)
(1.43152 0.0116661 0)
(1.42669 0.0123789 0)
(1.42158 0.013069 0)
(1.4162 0.0137336 0)
(1.41055 0.0143703 0)
(1.40465 0.0149762 0)
(1.39852 0.0155482 0)
(1.39216 0.0160835 0)
(1.38559 0.0165789 0)
(1.37884 0.0170313 0)
(1.37191 0.0174377 0)
(1.36482 0.0177955 0)
(1.3576 0.0181022 0)
(1.35027 0.018356 0)
(1.34284 0.0185556 0)
(1.33535 0.0187005 0)
(1.32781 0.0187911 0)
(1.32024 0.0188285 0)
(1.31266 0.0188149 0)
(1.3051 0.0187535 0)
(1.29757 0.0186482 0)
(1.29009 0.0185036 0)
(1.28268 0.0183248 0)
(1.27535 0.0181174 0)
(1.2681 0.017887 0)
(1.26096 0.017639 0)
(1.25391 0.0173785 0)
(1.24698 0.0171104 0)
(1.24015 0.0168384 0)
(1.23343 0.016566 0)
(1.22683 0.0162954 0)
(1.22033 0.0160283 0)
(1.21394 0.0157656 0)
(1.20766 0.0155075 0)
(1.20149 0.0152536 0)
(1.19541 0.015003 0)
(1.18944 0.0147548 0)
(1.18357 0.0145076 0)
(1.17779 0.0142603 0)
(1.17212 0.0140114 0)
(1.16655 0.01376 0)
(1.16108 0.0135051 0)
(1.15572 0.0132461 0)
(1.15047 0.0129825 0)
(1.14532 0.0127141 0)
(1.14028 0.0124409 0)
(1.13535 0.0121632 0)
(1.13053 0.0118813 0)
(1.12583 0.0115957 0)
(1.12125 0.0113071 0)
(1.11678 0.011016 0)
(1.11243 0.0107233 0)
(1.1082 0.0104296 0)
(1.10409 0.0101356 0)
(1.10009 0.00984216 0)
(1.09621 0.00954984 0)
(1.09245 0.00925932 0)
(1.08881 0.0089712 0)
(1.08528 0.00868604 0)
(1.08187 0.00840436 0)
(1.07857 0.0081266 0)
(1.07537 0.00785319 0)
(1.07229 0.00758449 0)
(1.06932 0.00732082 0)
(1.06644 0.00706246 0)
(1.06368 0.00680965 0)
(1.06101 0.00656259 0)
(1.05844 0.00632144 0)
(1.05596 0.00608633 0)
(1.05358 0.00585736 0)
(1.05129 0.0056346 0)
(1.04908 0.0054181 0)
(1.04696 0.00520787 0)
(1.04493 0.00500392 0)
(1.04297 0.00480623 0)
(1.04109 0.00461476 0)
(1.03929 0.00442945 0)
(1.03756 0.00425023 0)
(1.0359 0.00407704 0)
(1.03431 0.00390976 0)
(1.03279 0.00374831 0)
(1.03132 0.00359257 0)
(1.02992 0.00344244 0)
(1.02858 0.00329777 0)
(1.02729 0.00315846 0)
(1.02606 0.00302436 0)
(1.02488 0.00289535 0)
(1.02375 0.00277129 0)
(1.02267 0.00265203 0)
(1.02164 0.00253745 0)
(1.02065 0.00242739 0)
(1.01971 0.00232173 0)
(1.0188 0.00222032 0)
(1.01794 0.00212303 0)
(1.01711 0.00202971 0)
(1.01632 0.00194025 0)
(1.01557 0.0018545 0)
(1.01484 0.00177233 0)
(1.01415 0.00169362 0)
(1.0135 0.00161824 0)
(1.01287 0.00154608 0)
(1.01226 0.00147701 0)
(1.01169 0.00141091 0)
(1.01114 0.00134769 0)
(1.01062 0.00128722 0)
(1.01012 0.00122939 0)
(1.00964 0.00117412 0)
(1.00918 0.0011213 0)
(1.00874 0.00107082 0)
(1.00833 0.00102261 0)
(1.00793 0.000976567 0)
(1.00755 0.000932606 0)
(1.00719 0.000890644 0)
(1.00684 0.000850601 0)
(1.00651 0.000812399 0)
(1.0062 0.000775964 0)
(1.00589 0.000741223 0)
(1.00561 0.000708107 0)
(1.00533 0.000676551 0)
(1.00507 0.000646491 0)
(1.00482 0.000617865 0)
(1.00457 0.000590615 0)
(1.00435 0.000564684 0)
(1.00413 0.00054002 0)
(1.00392 0.000516571 0)
(1.00371 0.000494288 0)
(1.00352 0.000473123 0)
(1.00334 0.000453032 0)
(1.00316 0.000433973 0)
(1.00299 0.000415904 0)
(1.00283 0.000398786 0)
(1.00267 0.000382583 0)
(1.00253 0.000367259 0)
(1.00238 0.000352782 0)
(1.00225 0.000339119 0)
(1.00211 0.000326241 0)
(1.00199 0.000314119 0)
(1.00186 0.000302725 0)
(1.00174 0.000292038 0)
(1.00163 0.000282025 0)
(1.00152 0.000272686 0)
(1.00141 0.000263937 0)
(1.00131 0.00025594 0)
(1.0012 0.00024814 0)
(1.00113 0.00024212 0)
(1.00098 0.000233165 0)
(1.00001 -0.00028101 0)
(1.00017 -0.000843087 0)
(1.00048 -0.00140569 0)
(1.00096 -0.00196936 0)
(1.0016 -0.00253463 0)
(1.0024 -0.00310201 0)
(1.00337 -0.00367198 0)
(1.0045 -0.00424501 0)
(1.00579 -0.00482152 0)
(1.00724 -0.00540191 0)
(1.00887 -0.00598654 0)
(1.01066 -0.00657575 0)
(1.01261 -0.00716979 0)
(1.01474 -0.00776889 0)
(1.01704 -0.00837323 0)
(1.01952 -0.00898289 0)
(1.02217 -0.00959792 0)
(1.02499 -0.0102183 0)
(1.028 -0.0108439 0)
(1.03118 -0.0114745 0)
(1.03454 -0.0121098 0)
(1.03809 -0.0127496 0)
(1.04182 -0.0133932 0)
(1.04574 -0.0140402 0)
(1.04985 -0.0146898 0)
(1.05414 -0.0153414 0)
(1.05861 -0.015994 0)
(1.06328 -0.0166466 0)
(1.06813 -0.0172981 0)
(1.07318 -0.0179473 0)
(1.0784 -0.018593 0)
(1.08382 -0.0192336 0)
(1.08942 -0.0198678 0)
(1.0952 -0.0204937 0)
(1.10116 -0.0211099 0)
(1.1073 -0.0217144 0)
(1.11361 -0.0223055 0)
(1.12009 -0.0228812 0)
(1.12673 -0.0234396 0)
(1.13353 -0.0239787 0)
(1.14049 -0.0244965 0)
(1.1476 -0.0249911 0)
(1.15484 -0.0254604 0)
(1.16222 -0.0259026 0)
(1.16972 -0.0263156 0)
(1.17734 -0.0266978 0)
(1.18506 -0.0270474 0)
(1.19289 -0.0273628 0)
(1.20079 -0.0276424 0)
(1.20878 -0.0278848 0)
(1.21683 -0.0280888 0)
(1.22493 -0.0282534 0)
(1.23308 -0.0283775 0)
(1.24126 -0.0284604 0)
(1.24945 -0.0285015 0)
(1.25765 -0.0285004 0)
(1.26585 -0.0284568 0)
(1.27403 -0.0283705 0)
(1.28217 -0.0282418 0)
(1.29028 -0.0280706 0)
(1.29832 -0.0278575 0)
(1.3063 -0.0276028 0)
(1.3142 -0.0273071 0)
(1.32201 -0.0269713 0)
(1.32972 -0.0265959 0)
(1.33731 -0.0261819 0)
(1.34478 -0.0257303 0)
(1.35211 -0.0252419 0)
(1.35929 -0.0247178 0)
(1.36632 -0.024159 0)
(1.37318 -0.0235665 0)
(1.37987 -0.0229415 0)
(1.38637 -0.0222848 0)
(1.39268 -0.0215974 0)
(1.39879 -0.0208805 0)
(1.40469 -0.0201349 0)
(1.41037 -0.0193615 0)
(1.41582 -0.0185612 0)
(1.42104 -0.0177349 0)
(1.42602 -0.0168834 0)
(1.43075 -0.0160075 0)
(1.43522 -0.0151079 0)
(1.43943 -0.0141855 0)
(1.44338 -0.013241 0)
(1.44705 -0.0122752 0)
(1.45044 -0.0112887 0)
(1.45355 -0.0102826 0)
(1.45636 -0.00925758 0)
(1.45888 -0.00821455 0)
(1.46109 -0.0071545 0)
(1.463 -0.00607843 0)
(1.4646 -0.00498746 0)
(1.46588 -0.00388279 0)
(1.46684 -0.00276571 0)
(1.46748 -0.00163759 0)
(1.4678 -0.000499971 0)
(1.46778 0.000645583 0)
(1.46744 0.00179736 0)
(1.46676 0.00295349 0)
(1.46575 0.00411204 0)
(1.46441 0.00527096 0)
(1.46273 0.00642812 0)
(1.46072 0.00758125 0)
(1.45838 0.00872801 0)
(1.4557 0.00986597 0)
(1.45271 0.0109926 0)
(1.44938 0.0121053 0)
(1.44574 0.0132014 0)
(1.44179 0.014278 0)
(1.43753 0.0153323 0)
(1.43297 0.0163612 0)
(1.42811 0.0173615 0)
(1.42297 0.0183298 0)
(1.41756 0.0192627 0)
(1.41188 0.0201563 0)
(1.40595 0.0210067 0)
(1.39978 0.0218098 0)
(1.39338 0.0225614 0)
(1.38678 0.0232571 0)
(1.37998 0.0238926 0)
(1.37301 0.0244638 0)
(1.36588 0.0249668 0)
(1.35861 0.0253984 0)
(1.35123 0.0257558 0)
(1.34375 0.0260372 0)
(1.3362 0.026242 0)
(1.32861 0.0263704 0)
(1.32098 0.0264241 0)
(1.31335 0.0264063 0)
(1.30573 0.0263212 0)
(1.29815 0.0261741 0)
(1.29062 0.0259717 0)
(1.28315 0.025721 0)
(1.27576 0.0254298 0)
(1.26846 0.0251059 0)
(1.26125 0.024757 0)
(1.25416 0.0243904 0)
(1.24717 0.0240127 0)
(1.24029 0.0236294 0)
(1.23353 0.0232452 0)
(1.22688 0.0228635 0)
(1.22035 0.0224866 0)
(1.21392 0.0221159 0)
(1.2076 0.0217515 0)
(1.20139 0.021393 0)
(1.19528 0.0210394 0)
(1.18928 0.020689 0)
(1.18338 0.0203403 0)
(1.17759 0.0199913 0)
(1.17189 0.0196404 0)
(1.1663 0.019286 0)
(1.16082 0.0189269 0)
(1.15544 0.018562 0)
(1.15017 0.0181909 0)
(1.14501 0.0178131 0)
(1.13996 0.0174288 0)
(1.13502 0.0170382 0)
(1.1302 0.0166418 0)
(1.12549 0.0162404 0)
(1.1209 0.0158347 0)
(1.11643 0.0154258 0)
(1.11208 0.0150147 0)
(1.10784 0.0146022 0)
(1.10373 0.0141895 0)
(1.09974 0.0137776 0)
(1.09586 0.0133674 0)
(1.0921 0.0129597 0)
(1.08846 0.0125556 0)
(1.08494 0.0121556 0)
(1.08153 0.0117606 0)
(1.07823 0.0113711 0)
(1.07505 0.0109878 0)
(1.07197 0.0106112 0)
(1.069 0.0102417 0)
(1.06614 0.00987962 0)
(1.06337 0.0095254 0)
(1.06071 0.00917929 0)
(1.05815 0.00884149 0)
(1.05568 0.0085122 0)
(1.05331 0.00819154 0)
(1.05102 0.00787962 0)
(1.04883 0.00757649 0)
(1.04671 0.00728218 0)
(1.04469 0.00699668 0)
(1.04274 0.00671997 0)
(1.04087 0.00645198 0)
(1.03907 0.00619264 0)
(1.03735 0.00594186 0)
(1.0357 0.00569951 0)
(1.03411 0.00546547 0)
(1.03259 0.00523959 0)
(1.03114 0.00502173 0)
(1.02974 0.00481171 0)
(1.02841 0.00460936 0)
(1.02713 0.00441451 0)
(1.0259 0.00422696 0)
(1.02473 0.00404654 0)
(1.02361 0.00387304 0)
(1.02253 0.00370628 0)
(1.02151 0.00354606 0)
(1.02052 0.00339218 0)
(1.01958 0.00324445 0)
(1.01868 0.00310267 0)
(1.01782 0.00296665 0)
(1.017 0.0028362 0)
(1.01622 0.00271113 0)
(1.01547 0.00259126 0)
(1.01475 0.00247641 0)
(1.01406 0.00236639 0)
(1.01341 0.00226103 0)
(1.01278 0.00216017 0)
(1.01218 0.00206363 0)
(1.01161 0.00197126 0)
(1.01107 0.00188289 0)
(1.01055 0.00179838 0)
(1.01005 0.00171758 0)
(1.00957 0.00164034 0)
(1.00912 0.00156652 0)
(1.00869 0.00149599 0)
(1.00827 0.00142861 0)
(1.00788 0.00136427 0)
(1.0075 0.00130285 0)
(1.00714 0.00124421 0)
(1.0068 0.00118826 0)
(1.00647 0.00113488 0)
(1.00615 0.00108398 0)
(1.00585 0.00103544 0)
(1.00557 0.000989167 0)
(1.00529 0.000945078 0)
(1.00503 0.000903079 0)
(1.00478 0.000863084 0)
(1.00454 0.000825013 0)
(1.00431 0.000788786 0)
(1.0041 0.000754329 0)
(1.00389 0.000721569 0)
(1.00369 0.000690438 0)
(1.0035 0.00066087 0)
(1.00331 0.000632803 0)
(1.00314 0.000606177 0)
(1.00297 0.000580934 0)
(1.00281 0.000557021 0)
(1.00266 0.000534386 0)
(1.00251 0.00051298 0)
(1.00237 0.000492756 0)
(1.00223 0.000473669 0)
(1.0021 0.000455679 0)
(1.00197 0.000438746 0)
(1.00185 0.000422831 0)
(1.00173 0.000407902 0)
(1.00162 0.000393915 0)
(1.00151 0.000380872 0)
(1.0014 0.000368648 0)
(1.0013 0.000357493 0)
(1.00119 0.00034658 0)
(1.00112 0.000338214 0)
(1.00097 0.000325634 0)
(1.00001 -0.000360907 0)
(1.00017 -0.0010828 0)
(1.00048 -0.00180538 0)
(1.00096 -0.00252937 0)
(1.0016 -0.00325543 0)
(1.0024 -0.00398425 0)
(1.00336 -0.00471644 0)
(1.00448 -0.00545259 0)
(1.00577 -0.00619329 0)
(1.00722 -0.00693904 0)
(1.00884 -0.00769032 0)
(1.01062 -0.00844755 0)
(1.01258 -0.0092111 0)
(1.0147 -0.00998125 0)
(1.017 -0.0107582 0)
(1.01947 -0.0115422 0)
(1.02211 -0.0123331 0)
(1.02493 -0.0131311 0)
(1.02793 -0.0139359 0)
(1.03111 -0.0147474 0)
(1.03447 -0.015565 0)
(1.03802 -0.0163885 0)
(1.04175 -0.0172172 0)
(1.04566 -0.0180503 0)
(1.04977 -0.0188871 0)
(1.05406 -0.0197265 0)
(1.05854 -0.0205674 0)
(1.06321 -0.0214085 0)
(1.06806 -0.0222484 0)
(1.07311 -0.0230856 0)
(1.07835 -0.0239183 0)
(1.08377 -0.0247447 0)
(1.08938 -0.0255629 0)
(1.09518 -0.0263708 0)
(1.10115 -0.0271662 0)
(1.10731 -0.0279467 0)
(1.11364 -0.0287101 0)
(1.12014 -0.0294537 0)
(1.12681 -0.0301751 0)
(1.13364 -0.0308718 0)
(1.14062 -0.0315411 0)
(1.14776 -0.0321804 0)
(1.15504 -0.0327873 0)
(1.16245 -0.033359 0)
(1.16999 -0.0338933 0)
(1.17765 -0.0343877 0)
(1.18542 -0.03484 0)
(1.19329 -0.0352481 0)
(1.20124 -0.0356099 0)
(1.20927 -0.0359237 0)
(1.21737 -0.0361879 0)
(1.22553 -0.036401 0)
(1.23372 -0.0365619 0)
(1.24195 -0.0366694 0)
(1.2502 -0.036723 0)
(1.25845 -0.0367219 0)
(1.2667 -0.0366658 0)
(1.27493 -0.0365548 0)
(1.28313 -0.0363887 0)
(1.29129 -0.0361679 0)
(1.29938 -0.0358929 0)
(1.30741 -0.0355642 0)
(1.31536 -0.0351827 0)
(1.32322 -0.0347493 0)
(1.33097 -0.034265 0)
(1.33861 -0.033731 0)
(1.34612 -0.0331484 0)
(1.3535 -0.0325185 0)
(1.36073 -0.0318427 0)
(1.3678 -0.0311222 0)
(1.3747 -0.0303585 0)
(1.38143 -0.0295528 0)
(1.38797 -0.0287064 0)
(1.39431 -0.0278208 0)
(1.40045 -0.0268971 0)
(1.40638 -0.0259366 0)
(1.41209 -0.0249405 0)
(1.41758 -0.0239098 0)
(1.42282 -0.0228457 0)
(1.42783 -0.0217492 0)
(1.43259 -0.0206214 0)
(1.43709 -0.0194632 0)
(1.44133 -0.0182756 0)
(1.4453 -0.0170596 0)
(1.44899 -0.0158162 0)
(1.45241 -0.0145462 0)
(1.45553 -0.0132509 0)
(1.45837 -0.0119311 0)
(1.4609 -0.0105882 0)
(1.46313 -0.00922322 0)
(1.46506 -0.00783753 0)
(1.46667 -0.00643255 0)
(1.46796 -0.00500979 0)
(1.46894 -0.0035709 0)
(1.46959 -0.00211768 0)
(1.46991 -0.000652025 0)
(1.4699 0.000823978 0)
(1.46956 0.00230811 0)
(1.46888 0.00379802 0)
(1.46787 0.0052912 0)
(1.46652 0.006785 0)
(1.46484 0.00827666 0)
(1.46282 0.00976324 0)
(1.46046 0.0112417 0)
(1.45778 0.012709 0)
(1.45476 0.0141617 0)
(1.45142 0.0155966 0)
(1.44775 0.01701 0)
(1.44377 0.0183985 0)
(1.43948 0.0197582 0)
(1.43489 0.0210851 0)
(1.43 0.0223753 0)
(1.42482 0.0236243 0)
(1.41937 0.0248276 0)
(1.41365 0.0259803 0)
(1.40767 0.0270775 0)
(1.40145 0.0281139 0)
(1.39501 0.029084 0)
(1.38835 0.0299822 0)
(1.3815 0.030803 0)
(1.37447 0.0315411 0)
(1.36728 0.0321916 0)
(1.35995 0.0327501 0)
(1.3525 0.0332132 0)
(1.34496 0.0335784 0)
(1.33735 0.0338447 0)
(1.32968 0.0340127 0)
(1.32198 0.0340842 0)
(1.31427 0.0340632 0)
(1.30658 0.0339551 0)
(1.29892 0.0337668 0)
(1.29131 0.0335065 0)
(1.28376 0.0331835 0)
(1.2763 0.0328076 0)
(1.26892 0.032389 0)
(1.26165 0.0319376 0)
(1.25448 0.0314629 0)
(1.24743 0.0309733 0)
(1.24049 0.0304761 0)
(1.23366 0.0299774 0)
(1.22695 0.0294817 0)
(1.22036 0.0289921 0)
(1.21388 0.0285102 0)
(1.20751 0.0280365 0)
(1.20126 0.0275706 0)
(1.19511 0.0271109 0)
(1.18907 0.0266556 0)
(1.18313 0.0262025 0)
(1.1773 0.0257494 0)
(1.17158 0.0252938 0)
(1.16597 0.024834 0)
(1.16046 0.0243683 0)
(1.15506 0.0238954 0)
(1.14977 0.0234146 0)
(1.14459 0.0229255 0)
(1.13953 0.0224281 0)
(1.13458 0.0219227 0)
(1.12974 0.0214102 0)
(1.12503 0.0208913 0)
(1.12043 0.0203671 0)
(1.11596 0.0198389 0)
(1.1116 0.019308 0)
(1.10737 0.0187755 0)
(1.10326 0.018243 0)
(1.09926 0.0177115 0)
(1.09539 0.0171824 0)
(1.09164 0.0166567 0)
(1.088 0.0161357 0)
(1.08448 0.0156202 0)
(1.08108 0.0151111 0)
(1.07779 0.0146094 0)
(1.07461 0.0141157 0)
(1.07154 0.0136307 0)
(1.06858 0.0131549 0)
(1.06572 0.0126889 0)
(1.06297 0.012233 0)
(1.06032 0.0117876 0)
(1.05777 0.011353 0)
(1.05531 0.0109294 0)
(1.05294 0.0105169 0)
(1.05067 0.0101158 0)
(1.04848 0.00972599 0)
(1.04638 0.0093476 0)
(1.04436 0.00898058 0)
(1.04243 0.00862491 0)
(1.04057 0.00828049 0)
(1.03878 0.00794722 0)
(1.03707 0.00762498 0)
(1.03542 0.00731362 0)
(1.03385 0.00701296 0)
(1.03234 0.00672282 0)
(1.03089 0.00644299 0)
(1.02951 0.00617326 0)
(1.02818 0.00591341 0)
(1.02691 0.00566321 0)
(1.02569 0.0054224 0)
(1.02453 0.00519076 0)
(1.02341 0.00496803 0)
(1.02235 0.00475396 0)
(1.02133 0.0045483 0)
(1.02035 0.00435079 0)
(1.01942 0.00416118 0)
(1.01852 0.00397923 0)
(1.01767 0.00380468 0)
(1.01686 0.00363728 0)
(1.01608 0.0034768 0)
(1.01533 0.003323 0)
(1.01462 0.00317563 0)
(1.01394 0.00303448 0)
(1.01329 0.00289932 0)
(1.01267 0.00276992 0)
(1.01208 0.00264608 0)
(1.01151 0.00252759 0)
(1.01097 0.00241424 0)
(1.01045 0.00230584 0)
(1.00996 0.00220219 0)
(1.00949 0.00210312 0)
(1.00904 0.00200844 0)
(1.00861 0.00191798 0)
(1.0082 0.00183158 0)
(1.00781 0.00174906 0)
(1.00743 0.00167029 0)
(1.00707 0.0015951 0)
(1.00673 0.00152335 0)
(1.00641 0.0014549 0)
(1.0061 0.00138962 0)
(1.0058 0.00132737 0)
(1.00552 0.00126804 0)
(1.00524 0.00121151 0)
(1.00498 0.00115766 0)
(1.00474 0.00110638 0)
(1.0045 0.00105757 0)
(1.00427 0.00101112 0)
(1.00406 0.000966939 0)
(1.00385 0.000924937 0)
(1.00365 0.000885024 0)
(1.00346 0.000847116 0)
(1.00328 0.000811133 0)
(1.00311 0.000776997 0)
(1.00294 0.000744635 0)
(1.00278 0.000713979 0)
(1.00263 0.000684961 0)