/*--------------------------------*- C++ -*----------------------------------*\
| =========                 |                                                 |
| \\      /  F ield         | OpenFOAM: The Open Source CFD Toolbox           |
|  \\    /   O peration     | Version:  2306                                  |
|   \\  /    A nd           | Website:  www.openfoam.com                      |
|    \\/     M anipulation  |                                                 |
\*---------------------------------------------------------------------------*/
FoamFile
{
    version     2.0;
    format      ascii;
    arch        "LSB;label=32;scalar=64";
    class       volScalarField;
    location    "0.035";
    object      G;
}
// * * * * * * * * * * * * * * * * * * * * * * * * * * * * * * * * * * * * * //

dimensions      [1 0 -3 0 0 0 0];

internalField   nonuniform List<scalar> 
100
(
10124.4
11322.3
12075.3
12497.5
12715.3
12715.3
12497.5
12075.3
11322.3
10124.5
11322.3
12713.9
13549.9
14001.3
14231
14231
14001.3
13549.9
12713.9
11322.3
12075.3
13549.9
14443.9
14933.6
15182.6
15182.6
14933.5
14443.8
13549.9
12075.3
12497.5
14001.3
14933.6
15454
15718.3
15718.3
15453.9
14933.5
14001.3
12497.5
12715.3
14231
15182.6
15718.3
15990.3
15990.3
15718.3
15182.6
14231
12715.3
12715.3
14231
15182.6
15718.3
15990.3
15990.3
15718.3
15182.6
14231
12715.3
12497.5
14001.3
14933.5
15453.9
15718.3
15718.3
15454
14933.6
14001.3
12497.5
12075.3
13549.9
14443.8
14933.5
15182.6
15182.6
14933.6
14443.9
13549.9
12075.3
11322.3
12713.9
13549.9
14001.3
14231
14231
14001.3
13549.9
12713.9
11322.3
10124.5
11322.3
12075.3
12497.5
12715.3
12715.3
12497.5
12075.3
11322.3
10124.4
)
;

boundaryField
{
    fixedWall_Bottom
    {
        type            calculated;
        value           nonuniform List<scalar> 10(8852.96 9813.16 10462.1 10842.2 11044.6 11044.6 10842.2 10462 9813.21 8853.05);
    }
    fixedWall_Right
    {
        type            calculated;
        value           nonuniform List<scalar> 10(8853.05 9813.21 10462 10842.2 11044.6 11044.6 10842.2 10462.1 9813.16 8852.96);
    }
    fixedWall_Left
    {
        type            calculated;
        value           nonuniform List<scalar> 10(8852.96 9813.16 10462.1 10842.2 11044.6 11044.6 10842.2 10462 9813.21 8853.05);
    }
    fixedWall_Top
    {
        type            calculated;
        value           nonuniform List<scalar> 10(8853.05 9813.21 10462 10842.2 11044.6 11044.6 10842.2 10462.1 9813.16 8852.96);
    }
    frontAndBack
    {
        type            empty;
    }
}


// ************************************************************************* //
