/*--------------------------------*- C++ -*----------------------------------*\
| =========                 |                                                 |
| \\      /  F ield         | OpenFOAM: The Open Source CFD Toolbox           |
|  \\    /   O peration     | Version:  2306                                  |
|   \\  /    A nd           | Website:  www.openfoam.com                      |
|    \\/     M anipulation  |                                                 |
\*---------------------------------------------------------------------------*/
FoamFile
{
    version     2.0;
    format      ascii;
    arch        "LSB;label=32;scalar=64";
    class       volScalarField;
    location    "0.035";
    object      qr;
}
// * * * * * * * * * * * * * * * * * * * * * * * * * * * * * * * * * * * * * //

dimensions      [1 0 -3 0 0 0 0];

internalField   uniform 0;

boundaryField
{
    fixedWall_Bottom
    {
        type            calculated;
        value           nonuniform List<scalar> 10(4535.5 5337.19 5857.82 6197.74 6374.65 6374.7 6197.77 5857.76 5337.21 4535.59);
    }
    fixedWall_Right
    {
        type            calculated;
        value           nonuniform List<scalar> 10(4535.59 5337.21 5857.76 6197.77 6374.7 6374.65 6197.74 5857.82 5337.19 4535.5);
    }
    fixedWall_Left
    {
        type            calculated;
        value           nonuniform List<scalar> 10(4535.5 5337.19 5857.82 6197.74 6374.65 6374.7 6197.77 5857.76 5337.21 4535.59);
    }
    fixedWall_Top
    {
        type            calculated;
        value           nonuniform List<scalar> 10(4535.59 5337.21 5857.76 6197.77 6374.7 6374.65 6197.74 5857.82 5337.19 4535.5);
    }
    frontAndBack
    {
        type            empty;
    }
}


// ************************************************************************* //
