/*--------------------------------*- C++ -*----------------------------------*\
| =========                 |                                                 |
| \\      /  F ield         | OpenFOAM: The Open Source CFD Toolbox           |
|  \\    /   O peration     | Version:  2306                                  |
|   \\  /    A nd           | Website:  www.openfoam.com                      |
|    \\/     M anipulation  |                                                 |
\*---------------------------------------------------------------------------*/
FoamFile
{
    version     2.0;
    format      ascii;
    arch        "LSB;label=32;scalar=64";
    class       volScalarField;
    location    "0.07";
    object      G;
}
// * * * * * * * * * * * * * * * * * * * * * * * * * * * * * * * * * * * * * //

dimensions      [1 0 -3 0 0 0 0];

internalField   nonuniform List<scalar> 
100
(
9769.03
10817.7
11567.1
11952
12145
12145
11952
11567.1
10817.7
9769.04
10817.7
12114.7
12998.7
13457
13679.3
13679.3
13457
12998.7
12114.7
10817.7
11567.1
12998.7
13981.1
14497.3
14745.5
14745.5
14497.3
13981.1
12998.7
11567.1
11952
13457
14497.3
15052.9
15319.7
15319.7
15052.9
14497.3
13457
11952
12145
13679.3
14745.5
15319.7
15595.4
15595.4
15319.7
14745.5
13679.3
12145
12145
13679.3
14745.5
15319.7
15595.4
15595.4
15319.7
14745.5
13679.3
12145
11952
13457
14497.3
15052.9
15319.7
15319.7
15052.9
14497.3
13457
11952
11567.1
12998.7
13981.1
14497.3
14745.5
14745.5
14497.3
13981.1
12998.7
11567.1
10817.7
12114.7
12998.7
13457
13679.3
13679.3
13457
12998.7
12114.7
10817.7
9769.04
10817.7
11567.1
11952
12145
12145
11952
11567.1
10817.7
9769.03
)
;

boundaryField
{
    fixedWall_Bottom
    {
        type            calculated;
        value           nonuniform List<scalar> 10(8501.24 9315.49 9962.94 10300 10472.4 10472.4 10300.1 9962.95 9315.5 8501.25);
    }
    fixedWall_Right
    {
        type            calculated;
        value           nonuniform List<scalar> 10(8501.25 9315.5 9962.95 10300.1 10472.4 10472.4 10300 9962.94 9315.49 8501.24);
    }
    fixedWall_Left
    {
        type            calculated;
        value           nonuniform List<scalar> 10(8501.24 9315.49 9962.94 10300 10472.4 10472.4 10300.1 9962.95 9315.5 8501.25);
    }
    fixedWall_Top
    {
        type            calculated;
        value           nonuniform List<scalar> 10(8501.25 9315.5 9962.95 10300.1 10472.4 10472.4 10300 9962.94 9315.49 8501.24);
    }
    frontAndBack
    {
        type            empty;
    }
}


// ************************************************************************* //
