/*--------------------------------*- C++ -*----------------------------------*\
| =========                 |                                                 |
| \\      /  F ield         | OpenFOAM: The Open Source CFD Toolbox           |
|  \\    /   O peration     | Version:  2306                                  |
|   \\  /    A nd           | Website:  www.openfoam.com                      |
|    \\/     M anipulation  |                                                 |
\*---------------------------------------------------------------------------*/
FoamFile
{
    version     2.0;
    format      ascii;
    arch        "LSB;label=32;scalar=64";
    class       volScalarField;
    location    "0.07";
    object      ILambda_22_0;
}
// * * * * * * * * * * * * * * * * * * * * * * * * * * * * * * * * * * * * * //

dimensions      [1 0 -3 0 0 0 0];

internalField   nonuniform List<scalar> 
100
(
2246.56
1905.69
1724.54
1497.94
1276.58
1049.8
821.576
590.992
357.061
119.777
2244.36
1904.29
1724.33
1497.91
1276.58
1049.76
821.559
591.003
357.068
119.776
2246.14
1901.97
1723.34
1497.23
1276.27
1049.58
821.484
591.003
357.084
119.777
2261.14
1905.17
1724.46
1496.96
1275.66
1049.03
821.136
590.897
357.098
119.785
2291.03
1926.25
1736.63
1503.64
1278.16
1049.35
820.62
590.471
356.997
119.805
2295.87
1958.57
1762.53
1526.08
1292.82
1057.04
823.133
590.524
356.677
119.77
2171.83
1928.86
1756.49
1543.14
1316.6
1078.53
836.907
596.318
357.71
119.601
1801.66
1694.32
1591.58
1451.56
1280.06
1078.38
852.889
612.202
365.559
120.48
1169.62
1158.65
1133.92
1090.02
1019.39
915.452
772.709
589.111
368.886
124.782
396.246
402.624
407.416
411.781
412.719
405.828
383.842
335.987
247.728
102.974
)
;

boundaryField
{
    fixedWall_Bottom
    {
        type            greyDiffusiveRadiation;
        refValue        uniform 0;
        refGradient     uniform 0;
        valueFraction   uniform 0;
        source          uniform 0;
        value           nonuniform List<scalar> 10(2246.56 1905.69 1724.54 1497.94 1276.58 1049.8 821.576 590.992 357.061 119.777);
    }
    fixedWall_Right
    {
        type            greyDiffusiveRadiation;
        refValue        uniform 0;
        refGradient     uniform 0;
        valueFraction   uniform 1;
        source          uniform 0;
        value           uniform 0;
    }
    fixedWall_Left
    {
        type            greyDiffusiveRadiation;
        refValue        uniform 0;
        refGradient     uniform 0;
        valueFraction   uniform 0;
        source          uniform 0;
        value           nonuniform List<scalar> 10(2246.56 2244.36 2246.14 2261.14 2291.03 2295.87 2171.83 1801.66 1169.62 396.246);
    }
    fixedWall_Top
    {
        type            greyDiffusiveRadiation;
        refValue        uniform 0;
        refGradient     uniform 0;
        valueFraction   uniform 1;
        source          uniform 0;
        value           uniform 0;
    }
    frontAndBack
    {
        type            empty;
    }
}


// ************************************************************************* //
