/*--------------------------------*- C++ -*----------------------------------*\
| =========                 |                                                 |
| \\      /  F ield         | OpenFOAM: The Open Source CFD Toolbox           |
|  \\    /   O peration     | Version:  2306                                  |
|   \\  /    A nd           | Website:  www.openfoam.com                      |
|    \\/     M anipulation  |                                                 |
\*---------------------------------------------------------------------------*/
FoamFile
{
    version     2.0;
    format      ascii;
    arch        "LSB;label=32;scalar=64";
    class       volScalarField;
    location    "0.07";
    object      qr;
}
// * * * * * * * * * * * * * * * * * * * * * * * * * * * * * * * * * * * * * //

dimensions      [1 0 -3 0 0 0 0];

internalField   uniform 0;

boundaryField
{
    fixedWall_Bottom
    {
        type            calculated;
        value           nonuniform List<scalar> 10(4437.54 5109.86 5537.07 5768.34 5882.21 5882.21 5768.35 5537.08 5109.86 4437.54);
    }
    fixedWall_Right
    {
        type            calculated;
        value           nonuniform List<scalar> 10(4437.54 5109.86 5537.08 5768.35 5882.21 5882.21 5768.34 5537.07 5109.86 4437.54);
    }
    fixedWall_Left
    {
        type            calculated;
        value           nonuniform List<scalar> 10(4437.54 5109.86 5537.07 5768.34 5882.21 5882.21 5768.35 5537.08 5109.86 4437.54);
    }
    fixedWall_Top
    {
        type            calculated;
        value           nonuniform List<scalar> 10(4437.54 5109.86 5537.08 5768.35 5882.21 5882.21 5768.34 5537.07 5109.86 4437.54);
    }
    frontAndBack
    {
        type            empty;
    }
}


// ************************************************************************* //
