/*--------------------------------*- C++ -*----------------------------------*\
| =========                 |                                                 |
| \\      /  F ield         | OpenFOAM: The Open Source CFD Toolbox           |
|  \\    /   O peration     | Version:  2306                                  |
|   \\  /    A nd           | Website:  www.openfoam.com                      |
|    \\/     M anipulation  |                                                 |
\*---------------------------------------------------------------------------*/
FoamFile
{
    version     2.0;
    format      ascii;
    arch        "LSB;label=32;scalar=64";
    class       volScalarField;
    location    "6.5";
    object      Keff;
}
// * * * * * * * * * * * * * * * * * * * * * * * * * * * * * * * * * * * * * //

dimensions      [1 1 -3 -1 0 0 0];

internalField   nonuniform List<scalar> 
32768
(
67.2037
67.2017
67.1976
67.1914
67.183
67.1726
67.1601
67.1454
67.1286
67.1097
67.0886
67.0653
67.0398
67.0121
66.9822
66.95
66.9155
66.8787
66.8396
66.7981
66.7543
66.7081
66.6594
66.6084
66.5549
66.499
66.4405
66.3797
66.3163
66.2505
66.1822
66.1115
66.0383
65.9627
65.8847
65.8044
65.7217
65.6367
65.5495
65.4601
65.3686
65.2751
65.1796
65.0822
64.983
64.8821
64.7796
64.6756
64.5702
64.4635
64.3557
64.2468
64.137
64.0265
63.9152
63.8035
63.6913
63.5789
63.4663
63.3537
63.2411
63.1288
63.0168
62.9052
62.7942
62.6838
62.5742
62.4654
62.3575
62.2506
62.1448
62.0401
61.9367
61.8345
61.7337
61.6343
61.5363
61.4398
61.3448
61.2515
61.1597
61.0695
60.9811
60.8944
60.8094
60.7262
60.6448
60.5652
60.4875
60.4118
60.338
60.2661
60.1963
60.1286
60.063
59.9995
59.9382
59.8792
59.8225
59.7681
59.7162
59.6667
59.6197
59.5753
59.5335
59.4944
59.4581
59.4246
59.3939
59.3662
59.3415
59.3198
59.3012
59.2857
59.2735
59.2644
59.2586
59.2562
59.2571
59.2613
59.269
59.2801
59.2946
59.3126
59.3341
59.359
59.3874
59.4192
59.4545
59.4932
59.5354
59.5809
59.6298
59.682
59.7375
59.7962
59.8581
59.9231
59.9912
60.0623
60.1364
60.2133
60.2929
60.3753
60.4603
60.5478
60.6378
60.73
60.8245
60.9211
61.0197
61.1203
61.2226
61.3265
61.432
61.5389
61.6471
61.7565
61.8669
61.9783
62.0904
62.2031
62.3164
62.4301
62.544
62.6581
62.7721
62.8861
62.9998
63.1132
63.226
63.3383
63.4499
63.5607
63.6706
63.7795
63.8872
63.9938
64.0991
64.2031
64.3056
64.4066
64.506
64.6039
64.7
64.7944
64.887
64.9778
65.0668
65.1539
65.239
65.3222
65.4035
65.4829
65.5602
65.6356
65.709
65.7805
65.8499
65.9175
65.9831
66.0467
66.1085
66.1684
66.2264
66.2826
66.337
66.3896
66.4404
66.4895
66.537
66.5828
66.6269
66.6695
66.7105
66.75
66.788
66.8245
66.8596
66.8933
66.9257
66.9566
66.9862
67.0145
67.0414
67.067
67.0912
67.1141
67.1357
67.1559
67.1747
67.1921
67.2081
67.2227
67.2359
67.2478
67.2584
67.2676
67.2756
67.2825
67.2882
67.2929
67.2967
67.2996
67.3018
67.3034
67.3044
67.3049
67.3051
67.305
67.3048
67.3044
67.304
67.3037
67.3033
67.3032
67.2037
67.2017
67.1976
67.1914
67.183
67.1726
67.1601
67.1454
67.1286
67.1097
67.0886
67.0654
67.0399
67.0122
66.9823
66.9501
66.9156
66.8788
66.8397
66.7982
66.7544
66.7082
66.6595
66.6085
66.555
66.499
66.4406
66.3797
66.3163
66.2504
66.1821
66.1113
66.0381
65.9624
65.8844
65.8039
65.7212
65.6361
65.5488
65.4593
65.3677
65.2741
65.1784
65.0809
64.9816
64.8805
64.7779
64.6737
64.5682
64.4614
64.3534
64.2444
64.1345
64.0238
63.9124
63.8005
63.6882
63.5756
63.4629
63.3501
63.2375
63.125
63.0129
62.9012
62.7901
62.6796
62.5699
62.461
62.353
62.246
62.1402
62.0354
61.9319
61.8297
61.7288
61.6294
61.5313
61.4348
61.3398
61.2464
61.1546
61.0644
60.9759
60.8892
60.8042
60.7209
60.6395
60.5599
60.4822
60.4064
60.3326
60.2607
60.1909
60.1231
60.0575
59.9939
59.9326
59.8736
59.8168
59.7624
59.7104
59.6608
59.6138
59.5693
59.5275
59.4884
59.452
59.4184
59.3877
59.36
59.3352
59.3135
59.2948
59.2793
59.267
59.2579
59.2521
59.2496
59.2505
59.2547
59.2624
59.2734
59.288
59.3059
59.3274
59.3523
59.3807
59.4125
59.4478
59.4866
59.5288
59.5743
59.6232
59.6755
59.731
59.7898
59.8517
59.9168
59.985
60.0561
60.1302
60.2072
60.2869
60.3694
60.4545
60.5421
60.6321
60.7245
60.8191
60.9158
61.0145
61.1152
61.2176
61.3217
61.4273
61.5343
61.6427
61.7522
61.8627
61.9742
62.0865
62.1994
62.3128
62.4266
62.5407
62.6549
62.7691
62.8832
62.997
63.1105
63.2236
63.336
63.4477
63.5586
63.6687
63.7777
63.8855
63.9922
64.0977
64.2017
64.3043
64.4055
64.505
64.6029
64.6991
64.7936
64.8863
64.9772
65.0662
65.1534
65.2386
65.3219
65.4032
65.4826
65.56
65.6354
65.7089
65.7803
65.8498
65.9174
65.983
66.0467
66.1085
66.1684
66.2264
66.2826
66.337
66.3896
66.4404
66.4895
66.537
66.5827
66.6269
66.6694
66.7104
66.7499
66.7879
66.8244
66.8595
66.8932
66.9255
66.9564
66.986
67.0143
67.0412
67.0667
67.091
67.1139
67.1354
67.1555
67.1743
67.1917
67.2077
67.2223
67.2356
67.2474
67.258
67.2672
67.2752
67.2821
67.2878
67.2925
67.2963
67.2992
67.3014
67.303
67.304
67.3045
67.3047
67.3047
67.3044
67.3041
67.3036
67.3033
67.3029
67.3028
67.2037
67.2017
67.1976
67.1914
67.1831
67.1726
67.1601
67.1455
67.1287
67.1098
67.0887
67.0655
67.04
67.0123
66.9824
66.9502
66.9158
66.879
66.8399
66.7984
66.7546
66.7083
66.6597
66.6086
66.5551
66.4991
66.4406
66.3796
66.3162
66.2502
66.1818
66.111
66.0376
65.9618
65.8836
65.803
65.7201
65.6349
65.5474
65.4577
65.3659
65.272
65.1762
65.0784
64.9788
64.8775
64.7746
64.6701
64.5643
64.4572
64.3489
64.2396
64.1294
64.0184
63.9067
63.7946
63.682
63.5691
63.4561
63.3431
63.2302
63.1175
63.0051
62.8932
62.7819
62.6712
62.5612
62.4522
62.344
62.2369
62.1309
62.026
61.9224
61.8201
61.7191
61.6195
61.5214
61.4248
61.3298
61.2363
61.1444
61.0542
60.9656
60.8788
60.7938
60.7105
60.629
60.5494
60.4716
60.3957
60.3218
60.2499
60.18
60.1122
60.0464
59.9828
59.9214
59.8623
59.8054
59.7509
59.6988
59.6491
59.602
59.5574
59.5155
59.4763
59.4398
59.4061
59.3753
59.3475
59.3226
59.3008
59.282
59.2664
59.254
59.2449
59.239
59.2365
59.2373
59.2415
59.2491
59.2601
59.2746
59.2926
59.314
59.3389
59.3673
59.3992
59.4345
59.4733
59.5155
59.5611
59.6101
59.6624
59.718
59.7769
59.839
59.9041
59.9724
60.0437
60.118
60.1951
60.275
60.3576
60.4429
60.5306
60.6209
60.7134
60.8082
60.9052
61.0041
61.105
61.2076
61.312
61.4178
61.5252
61.6338
61.7435
61.8544
61.9661
62.0786
62.1918
62.3055
62.4196
62.534
62.6485
62.763
62.8774
62.9915
63.1053
63.2186
63.3313
63.4433
63.5545
63.6648
63.774
63.8822
63.9891
64.0948
64.199
64.3019
64.4032
64.5029
64.601
64.6974
64.7921
64.885
64.976
65.0651
65.1524
65.2377
65.3211
65.4026
65.482
65.5595
65.635
65.7085
65.7801
65.8496
65.9172
65.9829
66.0466
66.1084
66.1683
66.2264
66.2826
66.3369
66.3895
66.4404
66.4895
66.5369
66.5827
66.6268
66.6693
66.7103
66.7497
66.7877
66.8242
66.8592
66.8929
66.9252
66.9561
66.9856
67.0138
67.0407
67.0662
67.0904
67.1133
67.1348
67.1549
67.1737
67.191
67.207
67.2216
67.2348
67.2467
67.2572
67.2664
67.2744
67.2813
67.287
67.2917
67.2955
67.2984
67.3006
67.3022
67.3032
67.3037
67.3039
67.3039
67.3036
67.3033
67.3029
67.3025
67.3022
67.3021
67.2037
67.2017
67.1976
67.1914
67.1831
67.1727
67.1602
67.1456
67.1288
67.1099
67.0889
67.0656
67.0402
67.0125
66.9826
66.9505
66.916
66.8793
66.8402
66.7987
66.7548
66.7086
66.6599
66.6088
66.5552
66.4992
66.4406
66.3796
66.316
66.25
66.1815
66.1104
66.0369
65.961
65.8826
65.8018
65.7186
65.6331
65.5453
65.4553
65.3632
65.269
65.1728
65.0746
64.9746
64.8729
64.7696
64.6648
64.5585
64.451
64.3422
64.2325
64.1218
64.0104
63.8983
63.7856
63.6726
63.5593
63.4459
63.3325
63.2192
63.1061
62.9934
62.8812
62.7695
62.6585
62.5483
62.439
62.3306
62.2232
62.117
62.0119
61.9081
61.8056
61.7045
61.6048
61.5066
61.4099
61.3147
61.2211
61.1291
61.0388
60.9502
60.8633
60.7781
60.6948
60.6132
60.5335
60.4557
60.3797
60.3057
60.2337
60.1637
60.0957
60.0299
59.9661
59.9046
59.8453
59.7883
59.7337
59.6814
59.6316
59.5843
59.5396
59.4975
59.4581
59.4215
59.3877
59.3567
59.3287
59.3037
59.2817
59.2629
59.2471
59.2346
59.2254
59.2194
59.2167
59.2175
59.2216
59.2291
59.2401
59.2546
59.2725
59.294
59.3189
59.3473
59.3792
59.4146
59.4534
59.4957
59.5414
59.5905
59.6429
59.6986
59.7576
59.8198
59.8852
59.9536
60.0251
60.0996
60.1769
60.257
60.3399
60.4254
60.5135
60.604
60.6969
60.792
60.8892
60.9885
61.0897
61.1927
61.2974
61.4037
61.5114
61.6204
61.7306
61.8418
61.954
62.0669
62.1805
62.2947
62.4092
62.524
62.6389
62.7539
62.8687
62.9833
63.0975
63.2112
63.3243
63.4367
63.5483
63.659
63.7686
63.8771
63.9844
64.0904
64.195
64.2982
64.3998
64.4998
64.5982
64.6949
64.7898
64.8829
64.9742
65.0635
65.151
65.2365
65.3201
65.4017
65.4813
65.5589
65.6345
65.7081
65.7797
65.8494
65.917
65.9827
66.0465
66.1083
66.1683
66.2263
66.2825
66.3369
66.3895
66.4403
66.4894
66.5368
66.5826
66.6267
66.6692
66.7101
66.7495
66.7874
66.8239
66.8589
66.8925
66.9247
66.9555
66.985
67.0132
67.04
67.0655
67.0896
67.1124
67.1339
67.154
67.1727
67.19
67.206
67.2205
67.2337
67.2456
67.2561
67.2653
67.2733
67.2801
67.2858
67.2905
67.2943
67.2972
67.2994
67.301
67.302
67.3026
67.3028
67.3027
67.3025
67.3022
67.3017
67.3014
67.3011
67.301
67.2037
67.2017
67.1976
67.1914
67.1831
67.1727
67.1603
67.1457
67.1289
67.1101
67.0891
67.0659
67.0405
67.0128
66.983
66.9508
66.9164
66.8796
66.8406
66.7991
66.7552
66.709
66.6603
66.6091
66.5555
66.4993
66.4407
66.3796
66.3159
66.2497
66.181
66.1098
66.0361
65.9598
65.8812
65.8001
65.7166
65.6307
65.5426
65.4522
65.3596
65.265
65.1683
65.0696
64.9691
64.8669
64.763
64.6576
64.5508
64.4426
64.3333
64.223
64.1117
63.9996
63.8869
63.7737
63.6601
63.5463
63.4323
63.3183
63.2045
63.091
62.9778
62.8651
62.753
62.6416
62.531
62.4213
62.3126
62.205
62.0984
61.9931
61.8891
61.7864
61.6851
61.5852
61.4868
61.3899
61.2946
61.2009
61.1088
61.0184
60.9296
60.8426
60.7574
60.6739
60.5922
60.5124
60.4344
60.3584
60.2843
60.2121
60.1419
60.0738
60.0078
59.9439
59.8822
59.8228
59.7656
59.7107
59.6583
59.6083
59.5608
59.5159
59.4736
59.434
59.3971
59.3631
59.332
59.3037
59.2785
59.2564
59.2373
59.2214
59.2088
59.1993
59.1932
59.1905
59.1911
59.1951
59.2026
59.2135
59.2279
59.2458
59.2672
59.2922
59.3206
59.3525
59.388
59.4269
59.4693
59.5151
59.5643
59.6168
59.6727
59.7319
59.7943
59.8599
59.9286
60.0003
60.075
60.1527
60.2331
60.3163
60.4022
60.4906
60.5815
60.6747
60.7703
60.868
60.9677
61.0694
61.1729
61.278
61.3848
61.493
61.6025
61.7133
61.8251
61.9378
62.0513
62.1655
62.2802
62.3953
62.5107
62.6262
62.7417
62.8571
62.9722
63.087
63.2013
63.315
63.4279
63.5401
63.6512
63.7614
63.8704
63.9782
64.0846
64.1897
64.2933
64.3953
64.4958
64.5945
64.6915
64.7868
64.8802
64.9717
65.0614
65.1491
65.2349
65.3187
65.4004
65.4802
65.558
65.6338
65.7075
65.7793
65.849
65.9167
65.9825
66.0464
66.1082
66.1682
66.2263
66.2825
66.3369
66.3895
66.4403
66.4894
66.5367
66.5824
66.6265
66.6689
66.7098
66.7492
66.787
66.8234
66.8583
66.8919
66.924
66.9548
66.9842
67.0123
67.039
67.0645
67.0885
67.1113
67.1327
67.1527
67.1714
67.1887
67.2046
67.2191
67.2322
67.244
67.2545
67.2637
67.2717
67.2785
67.2842
67.2889
67.2927
67.2956
67.2978
67.2994
67.3004
67.301
67.3012
67.3012
67.3009
67.3006
67.3002
67.2999
67.2996
67.2996
67.2037
67.2017
67.1976
67.1915
67.1832
67.1728
67.1604
67.1458
67.1291
67.1103
67.0893
67.0662
67.0408
67.0132
66.9834
66.9513
66.9169
66.8801
66.8411
66.7996
66.7558
66.7095
66.6607
66.6095
66.5558
66.4996
66.4409
66.3796
66.3158
66.2494
66.1805
66.109
66.035
65.9585
65.8795
65.798
65.7141
65.6279
65.5392
65.4484
65.3553
65.26
65.1627
65.0634
64.9623
64.8594
64.7548
64.6487
64.5411
64.4322
64.3222
64.2111
64.099
63.9862
63.8728
63.7588
63.6445
63.5299
63.4153
63.3006
63.1862
63.072
62.9582
62.845
62.7323
62.6205
62.5094
62.3993
62.2901
62.1821
62.0752
61.9696
61.8653
61.7623
61.6607
61.5606
61.462
61.365
61.2695
61.1756
61.0834
60.9928
60.9039
60.8168
60.7314
60.6478
60.566
60.4861
60.408
60.3318
60.2575
60.1852
60.1148
60.0466
59.9803
59.9163
59.8544
59.7947
59.7372
59.6822
59.6295
59.5792
59.5314
59.4863
59.4437
59.4038
59.3667
59.3324
59.301
59.2726
59.2471
59.2247
59.2054
59.1893
59.1765
59.1669
59.1606
59.1576
59.1581
59.162
59.1694
59.1802
59.1946
59.2125
59.2339
59.2588
59.2872
59.3192
59.3547
59.3937
59.4362
59.4822
59.5315
59.5843
59.6404
59.6998
59.7624
59.8283
59.8973
59.9693
60.0444
60.1224
60.2032
60.2868
60.3731
60.462
60.5533
60.6471
60.7431
60.8414
60.9417
61.0439
61.148
61.2538
61.3612
61.47
61.5802
61.6916
61.8041
61.9175
62.0318
62.1467
62.2621
62.3779
62.494
62.6103
62.7265
62.8426
62.9585
63.074
63.189
63.3034
63.417
63.5298
63.6416
63.7524
63.862
63.9704
64.0774
64.1831
64.2872
64.3898
64.4907
64.5899
64.6874
64.783
64.8768
64.9688
65.0588
65.1468
65.2329
65.3169
65.399
65.479
65.557
65.6329
65.7068
65.7787
65.8486
65.9164
65.9823
66.0462
66.1082
66.1682
66.2263
66.2825
66.3369
66.3895
66.4403
66.4893
66.5366
66.5823
66.6263
66.6687
66.7095
66.7488
66.7866
66.8229
66.8577
66.8912
66.9232
66.9539
66.9832
67.0112
67.0379
67.0632
67.0872
67.1099
67.1312
67.1512
67.1698
67.187
67.2028
67.2173
67.2304
67.2422
67.2526
67.2618
67.2697
67.2765
67.2822
67.2869
67.2907
67.2936
67.2958
67.2974
67.2984
67.299
67.2992
67.2992
67.299
67.2987
67.2984
67.2981
67.2978
67.2978
67.2037
67.2017
67.1977
67.1915
67.1832
67.1729
67.1605
67.146
67.1293
67.1106
67.0896
67.0665
67.0412
67.0137
66.9839
66.9518
66.9175
66.8808
66.8417
66.8003
66.7564
66.7101
66.6613
66.6101
66.5563
66.5
66.4411
66.3797
66.3157
66.2491
66.1799
66.1082
66.0339
65.957
65.8776
65.7957
65.7113
65.6245
65.5353
65.4438
65.3501
65.2541
65.1561
65.0561
64.9542
64.8504
64.745
64.638
64.5296
64.4198
64.3088
64.1968
64.0839
63.9701
63.8558
63.7409
63.6257
63.5103
63.3948
63.2794
63.1642
63.0492
62.9347
62.8208
62.7075
62.595
62.4834
62.3728
62.2632
62.1547
62.0474
61.9414
61.8367
61.7334
61.6316
61.5312
61.4323
61.3351
61.2394
61.1453
61.0529
60.9622
60.8732
60.7859
60.7004
60.6166
60.5347
60.4546
60.3763
60.2999
60.2254
60.1529
60.0824
60.0139
59.9475
59.8831
59.821
59.761
59.7033
59.6479
59.5949
59.5444
59.4963
59.4508
59.4079
59.3677
59.3303
59.2957
59.264
59.2352
59.2094
59.1868
59.1672
59.1508
59.1377
59.1279
59.1214
59.1183
59.1186
59.1224
59.1296
59.1404
59.1546
59.1724
59.1938
59.2188
59.2472
59.2793
59.3149
59.354
59.3966
59.4427
59.4922
59.5452
59.6016
59.6612
59.7242
59.7904
59.8597
59.9321
60.0076
60.086
60.1673
60.2514
60.3382
60.4276
60.5196
60.6139
60.7106
60.8095
60.9104
61.0134
61.1182
61.2247
61.3329
61.4425
61.5535
61.6657
61.779
61.8933
62.0083
62.1241
62.2404
62.3571
62.4741
62.5912
62.7083
62.8253
62.9421
63.0584
63.1742
63.2894
63.4039
63.5175
63.6301
63.7417
63.852
63.9611
64.0689
64.1752
64.28
64.3831
64.4847
64.5844
64.6824
64.7786
64.8729
64.9653
65.0557
65.1441
65.2305
65.3149
65.3973
65.4775
65.5558
65.6319
65.7061
65.7781
65.8481
65.9161
65.9821
66.0461
66.1081
66.1682
66.2263
66.2826
66.3369
66.3895
66.4403
66.4893
66.5366
66.5822
66.6261
66.6684
66.7092
66.7483
66.786
66.8222
66.857
66.8903
66.9223
66.9528
66.9821
67.0099
67.0365
67.0617
67.0856
67.1082
67.1294
67.1493
67.1678
67.1849
67.2007
67.2151
67.2282
67.2399
67.2503
67.2595
67.2674
67.2741
67.2798
67.2845
67.2883
67.2912
67.2934
67.295
67.296
67.2966
67.2969
67.2969
67.2967
67.2965
67.2961
67.2959
67.2956
67.2956
67.2037
67.2017
67.1977
67.1916
67.1833
67.173
67.1607
67.1462
67.1296
67.1109
67.09
67.067
67.0417
67.0143
66.9845
66.9525
66.9182
66.8816
66.8425
66.8011
66.7572
66.7109
66.6621
66.6108
66.5569
66.5005
66.4415
66.3799
66.3157
66.2488
66.1794
66.1073
66.0326
65.9553
65.8755
65.793
65.7081
65.6207
65.5308
65.4386
65.3441
65.2474
65.1485
65.0476
64.9448
64.8401
64.7337
64.6256
64.5162
64.4053
64.2933
64.1802
64.0662
63.9514
63.836
63.7201
63.6038
63.4874
63.3709
63.2546
63.1384
63.0226
62.9073
62.7926
62.6786
62.5654
62.4531
62.3418
62.2316
62.1226
62.0149
61.9084
61.8034
61.6997
61.5975
61.4969
61.3977
61.3002
61.2043
61.11
61.0175
60.9266
60.8374
60.7499
60.6642
60.5803
60.4982
60.4179
60.3394
60.2629
60.1882
60.1155
60.0447
59.9759
59.9092
59.8446
59.7822
59.7219
59.6639
59.6081
59.5548
59.5039
59.4554
59.4095
59.3663
59.3257
59.2879
59.2529
59.2208
59.1917
59.1656
59.1426
59.1227
59.106
59.0926
59.0825
59.0758
59.0724
59.0725
59.0761
59.0832
59.0939
59.108
59.1258
59.1471
59.1721
59.2006
59.2327
59.2684
59.3076
59.3504
59.3967
59.4464
59.4997
59.5563
59.6163
59.6796
59.7461
59.8159
59.8888
59.9647
60.0436
60.1255
60.2101
60.2975
60.3876
60.4802
60.5752
60.6726
60.7722
60.874
60.9777
61.0834
61.1908
61.2998
61.4104
61.5223
61.6354
61.7497
61.8649
61.981
62.0978
62.2151
62.3328
62.4508
62.569
62.6871
62.8052
62.9229
63.0403
63.1571
63.2733
63.3887
63.5032
63.6168
63.7292
63.8405
63.9504
64.059
64.1661
64.2716
64.3755
64.4777
64.5782
64.6768
64.7736
64.8684
64.9613
65.0522
65.1411
65.2279
65.3127
65.3953
65.476
65.5545
65.6309
65.7052
65.7775
65.8477
65.9158
65.9819
66.046
66.1081
66.1682
66.2264
66.2827
66.337
66.3896
66.4403
66.4893
66.5365
66.582
66.6259
66.6681
66.7088
66.7478
66.7854
66.8215
66.8561
66.8894
66.9212
66.9516
66.9807
67.0085
67.0349
67.06
67.0838
67.1062
67.1273
67.1471
67.1655
67.1826
67.1983
67.2126
67.2256
67.2373
67.2476
67.2567
67.2646
67.2714
67.277
67.2817
67.2855
67.2884
67.2906
67.2922
67.2933
67.2939
67.2942
67.2942
67.294
67.2938
67.2935
67.2933
67.293
67.2931
67.2037
67.2017
67.1977
67.1916
67.1834
67.1732
67.1609
67.1464
67.1299
67.1113
67.0905
67.0675
67.0424
67.015
66.9853
66.9534
66.9191
66.8825
66.8435
66.8021
66.7583
66.7119
66.6631
66.6117
66.5578
66.5012
66.4421
66.3803
66.3158
66.2487
66.1789
66.1065
66.0314
65.9536
65.8732
65.7902
65.7046
65.6165
65.5259
65.4329
65.3375
65.2398
65.14
65.0381
64.9342
64.8284
64.7208
64.6116
64.5009
64.3889
64.2756
64.1612
64.046
63.93
63.8133
63.6962
63.5788
63.4612
63.3436
63.2261
63.1089
62.9921
62.8759
62.7602
62.6454
62.5314
62.4184
62.3064
62.1956
62.086
61.9777
61.8707
61.7652
61.6612
61.5586
61.4576
61.3582
61.2604
61.1643
61.0698
60.977
60.8859
60.7965
60.7089
60.623
60.5389
60.4566
60.3761
60.2975
60.2207
60.1458
60.0728
60.0018
59.9327
59.8657
59.8008
59.738
59.6773
59.6189
59.5628
59.5091
59.4577
59.4089
59.3625
59.3188
59.2778
59.2396
59.2042
59.1717
59.1421
59.1156
59.0922
59.0719
59.0549
59.0411
59.0307
59.0237
59.0201
59.02
59.0234
59.0303
59.0408
59.0549
59.0725
59.0939
59.1188
59.1473
59.1795
59.2153
59.2547
59.2976
59.3441
59.3941
59.4476
59.5046
59.5649
59.6286
59.6956
59.7658
59.8392
59.9157
59.9952
60.0776
60.163
60.251
60.3418
60.4352
60.531
60.6292
60.7297
60.8323
60.937
61.0436
61.152
61.262
61.3736
61.4866
61.6009
61.7162
61.8326
61.9498
62.0678
62.1862
62.3051
62.4243
62.5437
62.663
62.7822
62.9011
63.0196
63.1376
63.2549
63.3714
63.487
63.6016
63.7151
63.8274
63.9383
64.0478
64.1558
64.2622
64.3669
64.4699
64.5711
64.6705
64.7679
64.8634
64.9568
65.0483
65.1377
65.225
65.3102
65.3933
65.4742
65.5531
65.6298
65.7044
65.7769
65.8473
65.9156
65.9818
66.046
66.1081
66.1683
66.2265
66.2828
66.3372
66.3897
66.4404
66.4893
66.5365
66.5819
66.6257
66.6678
66.7084
66.7473
66.7848
66.8207
66.8552
66.8883
66.9199
66.9502
66.9792
67.0068
67.0331
67.058
67.0817
67.104
67.125
67.1446
67.1629
67.1799
67.1955
67.2098
67.2227
67.2343
67.2446
67.2536
67.2615
67.2682
67.2738
67.2785
67.2822
67.2852
67.2874
67.289
67.2901
67.2907
67.291
67.2911
67.291
67.2908
67.2905
67.2903
67.2901
67.2902
67.2037
67.2017
67.1977
67.1917
67.1835
67.1733
67.1611
67.1467
67.1303
67.1117
67.091
67.0682
67.0431
67.0158
66.9862
66.9544
66.9202
66.8837
66.8447
66.8034
66.7595
66.7132
66.6643
66.6129
66.5588
66.5022
66.4428
66.3808
66.3161
66.2487
66.1786
66.1057
66.0302
65.9519
65.8709
65.7872
65.7009
65.612
65.5205
65.4266
65.3302
65.2315
65.1306
65.0275
64.9224
64.8153
64.7064
64.5959
64.4839
64.3704
64.2557
64.14
64.0233
63.9059
63.7878
63.6694
63.5506
63.4317
63.3128
63.1941
63.0757
62.9578
62.8404
62.7238
62.608
62.4931
62.3792
62.2665
62.155
62.0447
61.9358
61.8283
61.7223
61.6178
61.5149
61.4135
61.3138
61.2157
61.1193
61.0246
60.9316
60.8403
60.7507
60.6629
60.5769
60.4926
60.4101
60.3294
60.2505
60.1735
60.0983
60.025
59.9537
59.8843
59.817
59.7517
59.6885
59.6274
59.5686
59.5121
59.4578
59.406
59.3567
59.3099
59.2657
59.2242
59.1854
59.1495
59.1165
59.0865
59.0595
59.0356
59.0149
58.9975
58.9834
58.9726
58.9652
58.9613
58.9609
58.9641
58.9708
58.9812
58.9951
59.0127
59.034
59.0589
59.0875
59.1197
59.1556
59.1951
59.2383
59.285
59.3353
59.3891
59.4465
59.5072
59.5713
59.6388
59.7095
59.7835
59.8606
59.9407
60.0239
60.1099
60.1987
60.2903
60.3845
60.4812
60.5804
60.6818
60.7855
60.8912
60.9989
61.1084
61.2196
61.3323
61.4465
61.562
61.6786
61.7963
61.9148
62.034
62.1538
62.274
62.3946
62.5152
62.6359
62.7564
62.8766
62.9964
63.1157
63.2343
63.3521
63.4689
63.5847
63.6994
63.8128
63.9248
64.0353
64.1443
64.2517
64.3574
64.4613
64.5633
64.6635
64.7617
64.8579
64.952
65.0441
65.134
65.2219
65.3076
65.3911
65.4725
65.5517
65.6287
65.7036
65.7763
65.8469
65.9154
65.9818
66.0461
66.1083
66.1686
66.2268
66.2831
66.3375
66.39
66.4406
66.4895
66.5365
66.5819
66.6255
66.6675
66.7079
66.7468
66.7841
66.8199
66.8542
66.8871
66.9186
66.9487
66.9775
67.005
67.0311
67.0559
67.0793
67.1015
67.1224
67.1419
67.16
67.1769
67.1924
67.2065
67.2194
67.2309
67.2411
67.2501
67.2579
67.2646
67.2702
67.2749
67.2786
67.2815
67.2838
67.2854
67.2865
67.2872
67.2875
67.2876
67.2875
67.2873
67.2871
67.287
67.2868
67.2869
67.2037
67.2017
67.1978
67.1918
67.1837
67.1735
67.1613
67.1471
67.1307
67.1123
67.0917
67.0689
67.044
67.0168
66.9873
66.9556
66.9215
66.885
66.8461
66.8048
66.761
66.7147
66.6658
66.6143
66.5602
66.5034
66.4439
66.3817
66.3167
66.249
66.1785
66.1052
66.0291
65.9502
65.8685
65.7841
65.697
65.6073
65.5148
65.4199
65.3224
65.2226
65.1204
65.016
64.9095
64.801
64.6907
64.5786
64.4651
64.35
64.2338
64.1164
63.9982
63.8791
63.7595
63.6395
63.5192
63.3989
63.2785
63.1585
63.0388
62.9196
62.801
62.6832
62.5663
62.4505
62.3357
62.2221
62.1098
61.9988
61.8893
61.7812
61.6747
61.5697
61.4663
61.3646
61.2645
61.1662
61.0695
60.9745
60.8813
60.7898
60.7
60.612
60.5258
60.4413
60.3586
60.2777
60.1985
60.1213
60.0458
59.9723
59.9006
59.8309
59.7631
59.6974
59.6338
59.5723
59.513
59.456
59.4012
59.3489
59.299
59.2516
59.2068
59.1648
59.1255
59.089
59.0554
59.0248
58.9973
58.9729
58.9518
58.9339
58.9193
58.9081
58.9004
58.8962
58.8955
58.8984
58.9049
58.915
58.9288
58.9463
58.9675
58.9924
59.0211
59.0534
59.0894
59.1291
59.1725
59.2195
59.2701
59.3242
59.3819
59.4431
59.5077
59.5757
59.647
59.7216
59.7994
59.8802
59.9641
60.051
60.1407
60.2331
60.3283
60.426
60.5262
60.6287
60.7334
60.8403
60.9492
61.0599
61.1724
61.2864
61.402
61.5188
61.6369
61.7559
61.8759
61.9965
62.1178
62.2395
62.3615
62.4837
62.6058
62.7278
62.8496
62.9708
63.0915
63.2115
63.3307
63.4489
63.5661
63.682
63.7967
63.9099
64.0217
64.1318
64.2403
64.347
64.4519
64.5549
64.6559
64.755
64.8519
64.9468
65.0396
65.1302
65.2186
65.3048
65.3889
65.4707
65.5503
65.6277
65.7028
65.7758
65.8467
65.9153
65.9819
66.0463
66.1086
66.1689
66.2272
66.2835
66.3379
66.3903
66.4409
66.4897
66.5367
66.5819
66.6254
66.6673
66.7075
66.7462
66.7833
66.819
66.8531
66.8858
66.9171
66.9471
66.9757
67.0029
67.0289
67.0535
67.0768
67.0988
67.1194
67.1388
67.1568
67.1735
67.1889
67.203
67.2157
67.2271
67.2373
67.2462
67.254
67.2606
67.2662
67.2708
67.2746
67.2775
67.2798
67.2814
67.2825
67.2832
67.2836
67.2837
67.2837
67.2835
67.2834
67.2833
67.2831
67.2834
67.2037
67.2018
67.1978
67.1918
67.1838
67.1737
67.1616
67.1475
67.1313
67.1129
67.0924
67.0698
67.045
67.0179
66.9886
66.9569
66.923
66.8866
66.8478
66.8066
66.7629
66.7166
66.6677
66.6161
66.5619
66.505
66.4453
66.3829
66.3176
66.2496
66.1786
66.1048
66.0282
65.9487
65.8663
65.7811
65.6931
65.6024
65.5089
65.4128
65.3141
65.213
65.1094
65.0036
64.8956
64.7855
64.6736
64.5598
64.4445
64.3278
64.2097
64.0906
63.9706
63.8498
63.7284
63.6067
63.4847
63.3627
63.2408
63.1192
62.998
62.8774
62.7575
62.6385
62.5204
62.4034
62.2877
62.1731
62.06
61.9482
61.838
61.7293
61.6222
61.5167
61.4129
61.3108
61.2104
61.1117
61.0148
60.9196
60.8262
60.7344
60.6445
60.5563
60.4699
60.3852
60.3023
60.2211
60.1417
60.0642
59.9885
59.9146
59.8426
59.7725
59.7043
59.6382
59.5741
59.5121
59.4522
59.3946
59.3393
59.2863
59.2358
59.1878
59.1425
59.0997
59.0598
59.0227
58.9885
58.9573
58.9292
58.9043
58.8825
58.8641
58.8491
58.8374
58.8293
58.8247
58.8236
58.8262
58.8325
58.8424
58.8561
58.8735
58.8946
58.9195
58.9481
58.9805
59.0167
59.0566
59.1002
59.1474
59.1984
59.2529
59.3111
59.3727
59.4379
59.5064
59.5784
59.6536
59.7321
59.8137
59.8985
59.9862
60.0768
60.1703
60.2664
60.3652
60.4665
60.5702
60.6762
60.7844
60.8945
61.0066
61.1205
61.236
61.353
61.4714
61.5909
61.7116
61.8331
61.9554
62.0783
62.2017
62.3253
62.4491
62.5729
62.6966
62.8199
62.9428
63.0651
63.1867
63.3074
63.4271
63.5458
63.6632
63.7792
63.8938
64.0069
64.1183
64.228
64.3358
64.4418
64.5458
64.6479
64.7478
64.8457
64.9414
65.0349
65.1262
65.2152
65.302
65.3866
65.4689
65.5489
65.6267
65.7022
65.7755
65.8466
65.9154
65.9821
66.0467
66.1091
66.1695
66.2278
66.2841
66.3385
66.3909
66.4414
66.49
66.5369
66.582
66.6254
66.6671
66.7072
66.7457
66.7826
66.818
66.852
66.8845
66.9156
66.9453
66.9737
67.0007
67.0264
67.0509
67.074
67.0958
67.1163
67.1355
67.1533
67.1699
67.1851
67.199
67.2117
67.223
67.2331
67.242
67.2497
67.2562
67.2618
67.2664
67.2701
67.2731
67.2753
67.277
67.2781
67.2789
67.2793
67.2794
67.2794
67.2794
67.2792
67.2792
67.2791
67.2794
67.2037
67.2018
67.1979
67.1919
67.184
67.174
67.162
67.148
67.1318
67.1136
67.0933
67.0708
67.0461
67.0192
66.99
66.9586
66.9247
66.8885
66.8498
66.8087
66.765
66.7188
66.6699
66.6183
66.5641
66.507
66.4472
66.3845
66.319
66.2505
66.1792
66.1049
66.0276
65.9474
65.8643
65.7782
65.6893
65.5975
65.5029
65.4055
65.3055
65.2029
65.0978
64.9904
64.8807
64.7689
64.6551
64.5395
64.4223
64.3036
64.1836
64.0625
63.9405
63.8178
63.6945
63.5708
63.447
63.3231
63.1995
63.0762
62.9534
62.8312
62.7099
62.5895
62.4702
62.352
62.2352
62.1196
62.0056
61.893
61.782
61.6727
61.565
61.459
61.3548
61.2522
61.1515
61.0525
60.9553
60.8599
60.7662
60.6743
60.5842
60.4958
60.4092
60.3243
60.2412
60.1598
60.0802
60.0024
59.9263
59.8521
59.7797
59.7092
59.6406
59.574
59.5094
59.4468
59.3864
59.3282
59.2722
59.2186
59.1674
59.1187
59.0726
59.0292
58.9885
58.9507
58.9159
58.884
58.8552
58.8296
58.8073
58.7883
58.7727
58.7605
58.7519
58.7469
58.7455
58.7477
58.7537
58.7634
58.7769
58.7941
58.8152
58.8401
58.8687
58.9012
58.9375
58.9776
59.0214
59.069
59.1203
59.1753
59.2339
59.296
59.3617
59.4309
59.5036
59.5795
59.6588
59.7413
59.8269
59.9156
60.0072
60.1017
60.199
60.299
60.4015
60.5065
60.6138
60.7233
60.835
60.9485
61.0639
61.181
61.2996
61.4196
61.5409
61.6633
61.7865
61.9106
62.0353
62.1604
62.2859
62.4115
62.5371
62.6626
62.7877
62.9124
63.0365
63.1598
63.2822
63.4036
63.5239
63.6428
63.7604
63.8765
63.991
64.1038
64.2148
64.3239
64.4311
64.5363
64.6394
64.7403
64.8391
64.9357
65.03
65.1221
65.2118
65.2993
65.3844
65.4672
65.5477
65.6259
65.7018
65.7754
65.8467
65.9158
65.9826
66.0473
66.1099
66.1703
66.2286
66.2849
66.3392
66.3916
66.442
66.4906
66.5373
66.5822
66.6255
66.667
66.7069
66.7451
66.7819
66.8171
66.8508
66.8831
66.9139
66.9434
66.9716
66.9984
67.0239
67.048
67.0709
67.0925
67.1128
67.1318
67.1495
67.1659
67.181
67.1948
67.2073
67.2185
67.2285
67.2373
67.2449
67.2515
67.257
67.2616
67.2653
67.2682
67.2705
67.2722
67.2733
67.2741
67.2746
67.2748
67.2748
67.2748
67.2748
67.2748
67.2747
67.2752
67.2037
67.2018
67.1979
67.1921
67.1842
67.1743
67.1624
67.1485
67.1325
67.1145
67.0943
67.072
67.0475
67.0207
66.9917
66.9604
66.9268
66.8907
66.8522
66.8112
66.7676
66.7214
66.6726
66.621
66.5667
66.5095
66.4495
66.3866
66.3208
66.252
66.1801
66.1053
66.0274
65.9465
65.8626
65.7756
65.6856
65.5926
65.4968
65.3981
65.2966
65.1924
65.0857
64.9765
64.865
64.7512
64.6355
64.5178
64.3985
64.2777
64.1555
64.0323
63.9081
63.7831
63.6577
63.5319
63.406
63.2802
63.1546
63.0295
62.9049
62.7811
62.6582
62.5363
62.4156
62.2962
62.1782
62.0616
61.9465
61.8331
61.7213
61.6113
61.503
61.3965
61.2918
61.1889
61.0878
60.9885
60.8911
60.7955
60.7016
60.6095
60.5192
60.4307
60.3439
60.2588
60.1755
60.0939
60.0141
59.936
59.8596
59.785
59.7122
59.6413
59.5722
59.505
59.4399
59.3767
59.3156
59.2567
59.2001
59.1457
59.0938
59.0443
58.9975
58.9533
58.9118
58.8732
58.8376
58.805
58.7755
58.7492
58.7262
58.7065
58.6903
58.6776
58.6684
58.6629
58.6611
58.663
58.6686
58.6781
58.6913
58.7084
58.7294
58.7543
58.783
58.8155
58.852
58.8923
58.9363
58.9842
59.0359
59.0913
59.1504
59.2131
59.2794
59.3493
59.4226
59.4994
59.5795
59.6629
59.7495
59.8392
59.9319
60.0276
60.1261
60.2273
60.3311
60.4375
60.5463
60.6573
60.7705
60.8856
61.0027
61.1215
61.2419
61.3637
61.4868
61.611
61.7362
61.8622
61.9888
62.1159
62.2434
62.371
62.4985
62.626
62.7531
62.8797
63.0057
63.1309
63.2551
63.3784
63.5004
63.6211
63.7404
63.8581
63.9741
64.0884
64.2008
64.3113
64.4198
64.5262
64.6305
64.7326
64.8324
64.9299
65.0251
65.118
65.2085
65.2966
65.3824
65.4657
65.5467
65.6253
65.7016
65.7755
65.8471
65.9164
65.9834
66.0482
66.1109
66.1713
66.2297
66.286
66.3402
66.3925
66.4428
66.4912
66.5378
66.5826
66.6256
66.667
66.7066
66.7447
66.7812
66.8161
66.8496
66.8816
66.9122
66.9415
66.9693
66.9959
67.0211
67.045
67.0677
67.089
67.1091
67.1279
67.1454
67.1616
67.1765
67.1902
67.2025
67.2136
67.2235
67.2322
67.2398
67.2463
67.2518
67.2563
67.26
67.263
67.2652
67.2669
67.2681
67.269
67.2695
67.2698
67.2699
67.2699
67.2699
67.27
67.27
67.2706
67.2037
67.2018
67.198
67.1922
67.1844
67.1746
67.1629
67.1491
67.1333
67.1154
67.0954
67.0733
67.049
67.0225
66.9937
66.9626
66.9291
66.8933
66.8549
66.8141
66.7706
66.7245
66.6757
66.6242
66.5698
66.5126
66.4524
66.3893
66.3232
66.254
66.1817
66.1063
66.0278
65.9461
65.8613
65.7733
65.6822
65.588
65.4908
65.3907
65.2876
65.1817
65.0732
64.962
64.8485
64.7326
64.6147
64.4948
64.3732
64.25
64.1255
63.9998
63.8732
63.7459
63.6181
63.49
63.3619
63.2339
63.1062
62.979
62.8526
62.727
62.6024
62.4789
62.3567
62.2359
62.1166
61.9989
61.8828
61.7685
61.6559
61.5452
61.4363
61.3293
61.2241
61.1208
61.0194
60.9199
60.8222
60.7264
60.6324
60.5402
60.4497
60.361
60.2741
60.1889
60.1054
60.0236
59.9435
59.8651
59.7884
59.7135
59.6403
59.5688
59.4992
59.4315
59.3657
59.3019
59.2401
59.1805
59.1231
59.0679