/*--------------------------------*- C++ -*----------------------------------*\
| =========                 |                                                 |
| \\      /  F ield         | OpenFOAM: The Open Source CFD Toolbox           |
|  \\    /   O peration     | Version:  2306                                  |
|   \\  /    A nd           | Website:  www.openfoam.com                      |
|    \\/     M anipulation  |                                                 |
\*---------------------------------------------------------------------------*/
FoamFile
{
    version     2.0;
    format      ascii;
    arch        "LSB;label=32;scalar=64";
    class       volScalarField;
    location    "6.5";
    object      p;
}
// * * * * * * * * * * * * * * * * * * * * * * * * * * * * * * * * * * * * * //

dimensions      [0 2 -2 0 0 0 0];

internalField   nonuniform List<scalar> 
32768
(
0.264331
0.264197
0.263906
0.263446
0.262819
0.262027
0.261071
0.259947
0.258655
0.257192
0.255556
0.253745
0.251757
0.24959
0.247239
0.244703
0.241978
0.239062
0.23595
0.23264
0.229127
0.225409
0.221482
0.217343
0.212987
0.208412
0.203614
0.198591
0.193338
0.187853
0.182134
0.176179
0.169985
0.163551
0.156875
0.149958
0.142798
0.135396
0.127753
0.11987
0.11175
0.103394
0.094807
0.0859923
0.0769547
0.0676997
0.0582333
0.0485623
0.0386943
0.0286373
0.0184
0.00799177
-0.00257754
-0.0132976
-0.0241576
-0.0351464
-0.0462525
-0.057464
-0.068769
-0.0801554
-0.0916109
-0.103123
-0.114681
-0.12627
-0.137881
-0.149501
-0.161118
-0.172722
-0.184301
-0.195845
-0.207345
-0.21879
-0.230171
-0.241479
-0.252705
-0.263843
-0.274883
-0.285819
-0.296643
-0.307349
-0.317931
-0.328381
-0.338695
-0.348866
-0.358889
-0.368757
-0.378466
-0.388009
-0.397381
-0.406576
-0.415588
-0.424412
-0.43304
-0.441468
-0.449688
-0.457694
-0.465479
-0.473035
-0.480357
-0.487435
-0.494264
-0.500834
-0.50714
-0.513172
-0.518923
-0.524386
-0.529552
-0.534415
-0.538967
-0.543201
-0.547109
-0.550686
-0.553926
-0.556822
-0.559368
-0.561562
-0.563397
-0.56487
-0.565978
-0.566719
-0.56709
-0.567091
-0.566721
-0.56598
-0.564869
-0.56339
-0.561544
-0.559336
-0.556769
-0.553848
-0.550578
-0.546965
-0.543015
-0.538736
-0.534136
-0.529223
-0.524007
-0.518497
-0.512705
-0.506639
-0.500313
-0.493737
-0.486923
-0.479886
-0.472636
-0.465188
-0.457554
-0.449749
-0.441787
-0.433681
-0.425446
-0.417096
-0.408645
-0.400107
-0.391497
-0.382828
-0.374115
-0.36537
-0.356608
-0.347841
-0.339083
-0.330346
-0.321642
-0.312982
-0.304378
-0.29584
-0.287379
-0.279005
-0.270726
-0.262551
-0.254489
-0.246545
-0.238729
-0.231044
-0.223498
-0.216096
-0.208841
-0.201738
-0.19479
-0.188
-0.18137
-0.174902
-0.168597
-0.162457
-0.156481
-0.15067
-0.145023
-0.13954
-0.134219
-0.129059
-0.124058
-0.119214
-0.114526
-0.10999
-0.105604
-0.101366
-0.0972714
-0.0933185
-0.0895037
-0.0858236
-0.0822751
-0.0788546
-0.0755587
-0.072384
-0.0693269
-0.066384
-0.0635517
-0.0608265
-0.0582051
-0.0556839
-0.0532596
-0.0509288
-0.0486883
-0.0465347
-0.0444649
-0.0424758
-0.0405641
-0.0387271
-0.0369616
-0.0352647
-0.0336338
-0.0320659
-0.0305584
-0.0291085
-0.0277138
-0.0263716
-0.0250794
-0.0238349
-0.0226356
-0.0214791
-0.0203633
-0.0192858
-0.0182446
-0.0172375
-0.0162626
-0.0153179
-0.0144016
-0.0135118
-0.0126468
-0.011805
-0.0109848
-0.0101847
-0.00940317
-0.00863886
-0.00789036
-0.00715631
-0.0064354
-0.00572635
-0.00502783
-0.00433865
-0.00365743
-0.00298311
-0.00231412
-0.00164973
-0.000988032
-0.000328012
0.264494
0.26436
0.264068
0.263609
0.262982
0.262191
0.261235
0.260113
0.258821
0.257359
0.255725
0.253915
0.251928
0.249762
0.247413
0.244878
0.242154
0.239239
0.236128
0.232819
0.229308
0.225591
0.221664
0.217525
0.21317
0.208595
0.203797
0.198772
0.193518
0.188032
0.182312
0.176354
0.170157
0.163719
0.15704
0.150118
0.142953
0.135546
0.127897
0.120007
0.11188
0.103516
0.0949205
0.0860967
0.0770495
0.0677843
0.0583072
0.0486252
0.0387456
0.0286767
0.0184273
0.00800669
-0.0025752
-0.013308
-0.0241807
-0.0351823
-0.046301
-0.0575251
-0.0688424
-0.0802409
-0.0917082
-0.103232
-0.1148
-0.126401
-0.138021
-0.149651
-0.161277
-0.172889
-0.184476
-0.196028
-0.207534
-0.218985
-0.230372
-0.241685
-0.252917
-0.264058
-0.275103
-0.286042
-0.296869
-0.307578
-0.318162
-0.328615
-0.338931
-0.349104
-0.359129
-0.368999
-0.37871
-0.388255
-0.397629
-0.406827
-0.415841
-0.424668
-0.433299
-0.44173
-0.449953
-0.457962
-0.465751
-0.473311
-0.480637
-0.48772
-0.494553
-0.501128
-0.507438
-0.513475
-0.519231
-0.524699
-0.529871
-0.534738
-0.539295
-0.543534
-0.547447
-0.551029
-0.554272
-0.557172
-0.559723
-0.56192
-0.563758
-0.565234
-0.566345
-0.567088
-0.567461
-0.567464
-0.567095
-0.566354
-0.565243
-0.563764
-0.561918
-0.559709
-0.55714
-0.554217
-0.550944
-0.547328
-0.543375
-0.539092
-0.534488
-0.52957
-0.524349
-0.518834
-0.513036
-0.506964
-0.500631
-0.494048
-0.487228
-0.480182
-0.472925
-0.465468
-0.457827
-0.450013
-0.442042
-0.433927
-0.425682
-0.417322
-0.408861
-0.400314
-0.391693
-0.383014
-0.37429
-0.365535
-0.356762
-0.347985
-0.339217
-0.330469
-0.321754
-0.313084
-0.30447
-0.295922
-0.287452
-0.279068
-0.270779
-0.262595
-0.254524
-0.246572
-0.238747
-0.231055
-0.223501
-0.216091
-0.20883
-0.20172
-0.194766
-0.18797
-0.181334
-0.174861
-0.168552
-0.162407
-0.156428
-0.150613
-0.144963
-0.139476
-0.134152
-0.12899
-0.123987
-0.119142
-0.114452
-0.109915
-0.105528
-0.101289
-0.0971943
-0.0932411
-0.0894262
-0.0857463
-0.0821981
-0.0787781
-0.0754828
-0.0723088
-0.0692526
-0.0663107
-0.0634795
-0.0607555
-0.0581354
-0.0556155
-0.0531927
-0.0508634
-0.0486243
-0.0464723
-0.0444041
-0.0424166
-0.0405066
-0.0386712
-0.0369074
-0.0352122
-0.0335829
-0.0320167
-0.0305109
-0.0290627
-0.0276697
-0.0263291
-0.0250386
-0.0237957
-0.022598
-0.0214431
-0.0203289
-0.019253
-0.0182133
-0.0172078
-0.0162343
-0.0152911
-0.0143762
-0.0134878
-0.0126243
-0.0117839
-0.010965
-0.0101663
-0.00938612
-0.00862313
-0.00787594
-0.00714319
-0.00642357
-0.00571579
-0.00501854
-0.00433061
-0.00365065
-0.00297758
-0.00230982
-0.0016467
-0.0009862
-0.000327497
0.264818
0.264685
0.264394
0.263935
0.263309
0.26252
0.261565
0.260445
0.259155
0.257695
0.256062
0.254255
0.252271
0.250107
0.24776
0.245228
0.242507
0.239594
0.236486
0.233179
0.229669
0.225954
0.222029
0.217891
0.213536
0.208961
0.204162
0.199136
0.19388
0.188391
0.182667
0.176705
0.170502
0.164058
0.157371
0.15044
0.143266
0.135847
0.128186
0.120283
0.11214
0.103761
0.0951483
0.0863062
0.0772396
0.067954
0.0584556
0.0487513
0.0388486
0.0287559
0.0184821
0.00803656
-0.00257061
-0.0133289
-0.0242273
-0.0352544
-0.0463986
-0.0576478
-0.06899
-0.0804127
-0.0919036
-0.10345
-0.115041
-0.126662
-0.138303
-0.149952
-0.161596
-0.173225
-0.184828
-0.196395
-0.207915
-0.219378
-0.230776
-0.2421
-0.253341
-0.264491
-0.275543
-0.286489
-0.297323
-0.308037
-0.318626
-0.329084
-0.339405
-0.349582
-0.35961
-0.369485
-0.379199
-0.388749
-0.398127
-0.407329
-0.416349
-0.42518
-0.433817
-0.442254
-0.450484
-0.4585
-0.466296
-0.473864
-0.481198
-0.488289
-0.495131
-0.501716
-0.508036
-0.514083
-0.519849
-0.525327
-0.530508
-0.535386
-0.539953
-0.544201
-0.548124
-0.551715
-0.554967
-0.557875
-0.560434
-0.562638
-0.564483
-0.565965
-0.567081
-0.567829
-0.568206
-0.568211
-0.567844
-0.567104
-0.565994
-0.564514
-0.562666
-0.560455
-0.557883
-0.554956
-0.551678
-0.548056
-0.544096
-0.539806
-0.535193
-0.530267
-0.525036
-0.51951
-0.5137
-0.507616
-0.50127
-0.494674
-0.487839
-0.480778
-0.473505
-0.466032
-0.458373
-0.450542
-0.442553
-0.434419
-0.426156
-0.417776
-0.409295
-0.400727
-0.392087
-0.383387
-0.374642
-0.365866
-0.357072
-0.348274
-0.339484
-0.330716
-0.32198
-0.313289
-0.304655
-0.296087
-0.287597
-0.279193
-0.270886
-0.262684
-0.254595
-0.246626
-0.238784
-0.231076
-0.223507
-0.216082
-0.208807
-0.201684
-0.194717
-0.187909
-0.181263
-0.17478
-0.168461
-0.162308
-0.15632
-0.150498
-0.144841
-0.139349
-0.134019
-0.128852
-0.123845
-0.118997
-0.114304
-0.109764
-0.105376
-0.101135
-0.0970397
-0.093086
-0.089271
-0.0855914
-0.0820438
-0.0786247
-0.0753307
-0.0721582
-0.0691038
-0.0661638
-0.0633348
-0.0606132
-0.0579956
-0.0554785
-0.0530585
-0.0507321
-0.0484961
-0.0463472
-0.0442822
-0.0422979
-0.0403913
-0.0385592
-0.0367987
-0.035107
-0.0334811
-0.0319183
-0.0304158
-0.028971
-0.0275813
-0.0262441
-0.0249569
-0.0237172
-0.0225227
-0.0213711
-0.02026
-0.0191872
-0.0181506
-0.0171481
-0.0161777
-0.0152374
-0.0143254
-0.0134399
-0.0125792
-0.0117416
-0.0109255
-0.0101295
-0.00935198
-0.00859164
-0.00784707
-0.00711692
-0.00639988
-0.00569465
-0.00499994
-0.00431453
-0.00363707
-0.00296651
-0.00230124
-0.00164061
-0.000982571
-0.000326399
0.265305
0.265172
0.264882
0.264424
0.2638
0.263012
0.26206
0.260942
0.259655
0.258198
0.256569
0.254765
0.252785
0.250625
0.248282
0.245754
0.243036
0.240127
0.237023
0.233719
0.230212
0.226499
0.222576
0.218439
0.214085
0.20951
0.20471
0.199682
0.194424
0.188931
0.183201
0.177232
0.171021
0.164567
0.157869
0.150925
0.143735
0.1363
0.12862
0.120697
0.112532
0.104129
0.0954907
0.0866212
0.0775255
0.0682092
0.0586785
0.0489406
0.0390032
0.0288746
0.018564
0.00808091
-0.00256434
-0.0133611
-0.0242981
-0.0353638
-0.0465463
-0.0578334
-0.0692129
-0.0806721
-0.0921986
-0.10378
-0.115403
-0.127057
-0.138728
-0.150405
-0.162077
-0.173731
-0.185358
-0.196947
-0.208487
-0.219969
-0.231384
-0.242724
-0.253979
-0.265141
-0.276205
-0.287161
-0.298004
-0.308727
-0.319324
-0.329788
-0.340115
-0.350299
-0.360333
-0.370213
-0.379934
-0.389489
-0.398874
-0.408083
-0.41711
-0.425949
-0.434595
-0.443041
-0.45128
-0.459307
-0.467114
-0.474694
-0.48204
-0.489145
-0.496
-0.502599
-0.508933
-0.514995
-0.520776
-0.526269
-0.531466
-0.536359
-0.540941
-0.545204
-0.549141
-0.552745
-0.556011
-0.558932
-0.561502
-0.563717
-0.565572
-0.567063
-0.568187
-0.568941
-0.569324
-0.569333
-0.568969
-0.568232
-0.567122
-0.565641
-0.563791
-0.561576
-0.559
-0.556067
-0.552781
-0.549151
-0.545181
-0.540879
-0.536254
-0.531314
-0.526068
-0.520526
-0.514699
-0.508596
-0.502231
-0.495613
-0.488757
-0.481674
-0.474377
-0.466879
-0.459195
-0.451337
-0.443321
-0.435159
-0.426867
-0.418459
-0.409948
-0.40135
-0.392678
-0.383947
-0.375171
-0.366364
-0.357538
-0.348708
-0.339887
-0.331087
-0.32232
-0.313598
-0.304933
-0.296335
-0.287815
-0.279383
-0.271047
-0.262817
-0.254701
-0.246706
-0.23884
-0.231107
-0.223515
-0.216069
-0.208772
-0.20163
-0.194644
-0.187819
-0.181156
-0.174657
-0.168324
-0.162158
-0.156158
-0.150325
-0.144658
-0.139157
-0.13382
-0.128645
-0.123632
-0.118778
-0.114081
-0.109538
-0.105147
-0.100904
-0.0968074
-0.0928529
-0.0890378
-0.0853586
-0.0818119
-0.0783943
-0.0751022
-0.071932
-0.0688802
-0.0659433
-0.0631176
-0.0603996
-0.0577859
-0.0552728
-0.052857
-0.0505351
-0.0483037
-0.0461596
-0.0440994
-0.04212
-0.0402183
-0.0383912
-0.0366358
-0.0349491
-0.0333283
-0.0317705
-0.0302731
-0.0288334
-0.0274487
-0.0261165
-0.0248342
-0.0235995
-0.0224099
-0.021263
-0.0201567
-0.0190886
-0.0180566
-0.0170586
-0.0160927
-0.0151569
-0.0142493
-0.0133681
-0.0125116
-0.0116781
-0.0108662
-0.0100743
-0.0093008
-0.00854444
-0.00780381
-0.00707755
-0.00636437
-0.00566297
-0.00497206
-0.00429044
-0.00361674
-0.00294992
-0.00228838
-0.00163149
-0.000977133
-0.00032474
0.265954
0.265821
0.265532
0.265075
0.264453
0.263668
0.262719
0.261604
0.260321
0.258869
0.257244
0.255445
0.25347
0.251315
0.248977
0.246454
0.243742
0.240838
0.237738
0.234439
0.230936
0.227227
0.223307
0.219172
0.214819
0.210244
0.205443
0.200413
0.19515
0.189651
0.183914
0.177936
0.171715
0.165248
0.158534
0.151573
0.144364
0.136906
0.129202
0.121251
0.113057
0.104622
0.095949
0.0870427
0.077908
0.0685504
0.0589766
0.0491936
0.0392095
0.0290328
0.0186727
0.00813929
-0.00255707
-0.0134054
-0.0243942
-0.0355116
-0.0467456
-0.0580836
-0.069513
-0.0810212
-0.0925953
-0.104223
-0.115891
-0.127587
-0.139298
-0.151014
-0.162722
-0.17441
-0.186069
-0.197687
-0.209254
-0.220761
-0.232199
-0.243559
-0.254833
-0.266012
-0.27709
-0.28806
-0.298915
-0.309649
-0.320256
-0.330729
-0.341065
-0.351256
-0.361298
-0.371186
-0.380915
-0.390478
-0.399871
-0.409089
-0.418126
-0.426975
-0.435632
-0.44409
-0.452343
-0.460383
-0.468205
-0.475801
-0.483164
-0.490286
-0.49716
-0.503777
-0.510131
-0.516213
-0.522014
-0.527528
-0.532745
-0.537659
-0.542261
-0.546543
-0.5505
-0.554123
-0.557406
-0.560344
-0.56293
-0.56516
-0.567028
-0.568531
-0.569666
-0.570429
-0.570819
-0.570835
-0.570475
-0.56974
-0.56863
-0.567148
-0.565296
-0.563077
-0.560494
-0.557552
-0.554257
-0.550615
-0.546632
-0.542315
-0.537673
-0.532715
-0.527449
-0.521885
-0.516034
-0.509908
-0.503516
-0.496871
-0.489985
-0.482872
-0.475543
-0.468013
-0.460294
-0.452402
-0.444349
-0.43615
-0.42782
-0.419372
-0.410822
-0.402183
-0.39347
-0.384697
-0.375879
-0.367029
-0.358162
-0.349289
-0.340426
-0.331583
-0.322774
-0.314011
-0.305305
-0.296666
-0.288107
-0.279636
-0.271262
-0.262995
-0.254843
-0.246814
-0.238914
-0.231149
-0.223526
-0.21605
-0.208726
-0.201557
-0.194546
-0.187697
-0.181012
-0.174493
-0.168141
-0.161957
-0.155941
-0.150093
-0.144413
-0.1389
-0.133552
-0.128369
-0.123348
-0.118487
-0.113784
-0.109236
-0.104841
-0.100596
-0.0964968
-0.0925414
-0.0887261
-0.0850475
-0.0815022
-0.0780865
-0.0747969
-0.0716298
-0.0685816
-0.0656487
-0.0628275
-0.0601144
-0.0575058
-0.0549982
-0.0525882
-0.0502722
-0.0480469
-0.0459091
-0.0438553
-0.0418824
-0.0399874
-0.038167
-0.0364184
-0.0347385
-0.0331245
-0.0315735
-0.0300829
-0.0286499
-0.0272719
-0.0259464
-0.0246707
-0.0234425
-0.0222594
-0.0211189
-0.0200189
-0.0189571
-0.0179313
-0.0169394
-0.0159795
-0.0150496
-0.0141478
-0.0132723
-0.0124215
-0.0115936
-0.0107872
-0.0100007
-0.00923259
-0.00848154
-0.00774615
-0.00702509
-0.00631705
-0.00562075
-0.00493491
-0.00425833
-0.00358963
-0.00292782
-0.00227124
-0.00161933
-0.000969885
-0.000322529
0.266764
0.266631
0.266343
0.265889
0.265269
0.264487
0.263542
0.262431
0.261153
0.259706
0.258087
0.256295
0.254326
0.252177
0.249846
0.24733
0.244625
0.241727
0.238634
0.23534
0.231843
0.228138
0.224221
0.220089
0.215738
0.211163
0.206361
0.201328
0.19606
0.190555
0.184809
0.17882
0.172585
0.166102
0.159369
0.152386
0.145152
0.137667
0.129932
0.121948
0.113716
0.105241
0.0965246
0.0875721
0.0783881
0.0689787
0.0593504
0.0495107
0.0394677
0.0292303
0.018808
0.00821105
-0.00254976
-0.0134631
-0.0245172
-0.0356999
-0.0469986
-0.0584007
-0.0698931
-0.0814629
-0.0930969
-0.104782
-0.116506
-0.128255
-0.140018
-0.151782
-0.163535
-0.175266
-0.186964
-0.198619
-0.21022
-0.221758
-0.233224
-0.244609
-0.255906
-0.267106
-0.278203
-0.289189
-0.300059
-0.310806
-0.321425
-0.331909
-0.342255
-0.352456
-0.362507
-0.372404
-0.382142
-0.391715
-0.401119
-0.410348
-0.419396
-0.428259
-0.43693
-0.445403
-0.453671
-0.46173
-0.46957
-0.477186
-0.48457
-0.491714
-0.498611
-0.505253
-0.511631
-0.517738
-0.523565
-0.529105
-0.534348
-0.539287
-0.543915
-0.548222
-0.552203
-0.55585
-0.559156
-0.562115
-0.564721
-0.56697
-0.568855
-0.570373
-0.571521
-0.572296
-0.572696
-0.572719
-0.572364
-0.571632
-0.570524
-0.569041
-0.567185
-0.56496
-0.562369
-0.559417
-0.55611
-0.552453
-0.548453
-0.544117
-0.539454
-0.534473
-0.529182
-0.523591
-0.517712
-0.511554
-0.505129
-0.49845
-0.491528
-0.484376
-0.477008
-0.469436
-0.461675
-0.453738
-0.44564
-0.437394
-0.429016
-0.420519
-0.411919
-0.403229
-0.394465
-0.38564
-0.376769
-0.367866
-0.358945
-0.350019
-0.341102
-0.332207
-0.323345
-0.314529
-0.305772
-0.297083
-0.288473
-0.279953
-0.271532
-0.263219
-0.255021
-0.246948
-0.239006
-0.231201
-0.22354
-0.216027
-0.208667
-0.201465
-0.194423
-0.187544
-0.180832
-0.174287
-0.167911
-0.161705
-0.155668
-0.149802
-0.144105
-0.138577
-0.133216
-0.128021
-0.12299
-0.11812
-0.11341
-0.108857
-0.104457
-0.100208
-0.0961072
-0.0921507
-0.0883353
-0.0846575
-0.0811138
-0.0777006
-0.0744143
-0.0712512
-0.0682075
-0.0652798
-0.0624642
-0.0597572
-0.0571551
-0.0546544
-0.0522515
-0.049943
-0.0477255
-0.0455955
-0.0435499
-0.0415852
-0.0396985
-0.0378866
-0.0361464
-0.034475
-0.0328695
-0.0313271
-0.029845
-0.0284204
-0.0270509
-0.0257337
-0.0244663
-0.0232463
-0.0220713
-0.0209388
-0.0198467
-0.0187927
-0.0177746
-0.0167904
-0.015838
-0.0149155
-0.0140209
-0.0131527
-0.0123089
-0.0114881
-0.0106885
-0.00990877
-0.00914739
-0.00840297
-0.00767413
-0.00695956
-0.00625795
-0.00556803
-0.00488852
-0.00421822
-0.00355579
-0.00290021
-0.00224983
-0.00160415
-0.000960836
-0.000319775
0.267734
0.267602
0.267316
0.266863
0.266247
0.265469
0.264528
0.263423
0.262151
0.26071
0.259099
0.257313
0.255352
0.253212
0.250889
0.248382
0.245685
0.242795
0.239709
0.236423
0.232932
0.229233
0.225321
0.221193
0.216843
0.212269
0.207466
0.20243
0.197157
0.191644
0.185888
0.179886
0.173634
0.167132
0.160377
0.153368
0.146104
0.138586
0.130813
0.122788
0.114512
0.105988
0.0972194
0.0882109
0.0789674
0.0694952
0.059801
0.0498925
0.0397781
0.0294671
0.0189693
0.00829533
-0.00254364
-0.0135359
-0.0246692
-0.0359309
-0.0473082
-0.0587878
-0.0703565
-0.0820008
-0.0937073
-0.105463
-0.117254
-0.129068
-0.140892
-0.152714
-0.164521
-0.176304
-0.188049
-0.199748
-0.211389
-0.222964
-0.234463
-0.245879
-0.257202
-0.268427
-0.279545
-0.290551
-0.301438
-0.3122
-0.322833
-0.33333
-0.343687
-0.353899
-0.363961
-0.373869
-0.383618
-0.393203
-0.402618
-0.41186
-0.420923
-0.429801
-0.438488
-0.446979
-0.455268
-0.463347
-0.47121
-0.47885
-0.486259
-0.49343
-0.500355
-0.507026
-0.513435
-0.519572
-0.525431
-0.531001
-0.536276
-0.541247
-0.545906
-0.550244
-0.554255
-0.55793
-0.561264
-0.564249
-0.56688
-0.569151
-0.571057
-0.572594
-0.573758
-0.574547
-0.574958
-0.57499
-0.574642
-0.573914
-0.572807
-0.571322
-0.569463
-0.567231
-0.56463
-0.561666
-0.558344
-0.554669
-0.550649
-0.546291
-0.541603
-0.536594
-0.531272
-0.525649
-0.519735
-0.51354
-0.507076
-0.500355
-0.493389
-0.486192
-0.478776
-0.471154
-0.463342
-0.455351
-0.447198
-0.438896
-0.43046
-0.421904
-0.413243
-0.404492
-0.395665
-0.386777
-0.377843
-0.368876
-0.359891
-0.3509
-0.341919
-0.332959
-0.324034
-0.315155
-0.306335
-0.297585
-0.288915
-0.280336
-0.271857
-0.263487
-0.255236
-0.24711
-0.239117
-0.231263
-0.223555
-0.215998
-0.208595
-0.201353
-0.194273
-0.187359
-0.180613
-0.174037
-0.167632
-0.161399
-0.155339
-0.14945
-0.143734
-0.138188
-0.132811
-0.127602
-0.122558
-0.117678
-0.11296
-0.108399
-0.103994
-0.0997413
-0.0956377
-0.0916799
-0.0878644
-0.0841877
-0.0806462
-0.0772361
-0.0739537
-0.0707954
-0.0677573
-0.0648358
-0.0620271
-0.0593274
-0.0567333
-0.0542409
-0.0518467
-0.0495473
-0.0473391
-0.0452187
-0.0431828
-0.0412281
-0.0393515
-0.0375497
-0.0358197
-0.0341586
-0.0325633
-0.0310312
-0.0295593
-0.0281449
-0.0267855
-0.0254783
-0.0242209
-0.0230108
-0.0218455
-0.0207228
-0.0196402
-0.0185956
-0.0175868
-0.0166117
-0.0156682
-0.0147546
-0.0138688
-0.0130092
-0.0121739
-0.0113614
-0.0105702
-0.00979857
-0.00904524
-0.00830876
-0.00758779
-0.00688099
-0.00618709
-0.00550482
-0.0048329
-0.00417015
-0.00351522
-0.00286712
-0.00222418
-0.00158596
-0.000949993
-0.000316483
0.268863
0.268733
0.268448
0.267999
0.267386
0.266613
0.265677
0.264578
0.263314
0.261881
0.260277
0.258501
0.256549
0.254419
0.252106
0.249608
0.246921
0.244042
0.240965
0.237687
0.234205
0.230513
0.226607
0.222483
0.218137
0.213564
0.20876
0.20372
0.198442
0.19292
0.187152
0.181135
0.174865
0.168341
0.16156
0.15452
0.147222
0.139665
0.131849
0.123775
0.115447
0.106866
0.0980356
0.0889612
0.0796477
0.0701014
0.0603294
0.0503397
0.040141
0.0297431
0.0191561
0.0083911
-0.0025402
-0.0136256
-0.0248524
-0.0362075
-0.0476775
-0.0592486
-0.0709072
-0.0826393
-0.0944311
-0.106269
-0.118139
-0.130029
-0.141925
-0.153815
-0.165686
-0.177528
-0.189329
-0.201078
-0.212767
-0.224384
-0.235922
-0.247372
-0.258727
-0.269979
-0.281122
-0.292149
-0.303055
-0.313835
-0.324483
-0.334994
-0.345364
-0.355589
-0.365663
-0.375583
-0.385343
-0.394941
-0.40437
-0.413627
-0.422706
-0.431601
-0.440308
-0.44882
-0.457132
-0.465236
-0.473125
-0.480794
-0.488233
-0.495436
-0.502394
-0.5091
-0.515543
-0.521718
-0.527613
-0.533221
-0.538534
-0.543542
-0.548238
-0.552612
-0.556658
-0.560368
-0.563734
-0.56675
-0.56941
-0.571708
-0.573639
-0.575198
-0.576382
-0.577187
-0.577612
-0.577655
-0.577315
-0.576592
-0.575486
-0.574
-0.572135
-0.569895
-0.567284
-0.564306
-0.560966
-0.557271
-0.553227
-0.548842
-0.544125
-0.539083
-0.533727
-0.528065
-0.52211
-0.515871
-0.509361
-0.502591
-0.495574
-0.488323
-0.480851
-0.473172
-0.465299
-0.457246
-0.449028
-0.44066
-0.432156
-0.423531
-0.414799
-0.405976
-0.397076
-0.388114
-0.379105
-0.370063
-0.361002
-0.351936
-0.342878
-0.333843
-0.324843
-0.31589
-0.306997
-0.298174
-0.289433
-0.280785
-0.272238
-0.263803
-0.255487
-0.247299
-0.239247
-0.231336
-0.223572
-0.215962
-0.20851
-0.20122
-0.194096
-0.18714
-0.180355
-0.173743
-0.167304
-0.16104
-0.154951
-0.149037
-0.143297
-0.13773
-0.132334
-0.127109
-0.122051
-0.11716
-0.112431
-0.107862
-0.103451
-0.0991937
-0.0950872
-0.0911281
-0.0873126
-0.0836373
-0.0800983
-0.0766919
-0.0734144
-0.0702618
-0.0672303
-0.0643162
-0.0615156
-0.0588247
-0.0562398
-0.0537573
-0.0513734
-0.0490846
-0.0468874
-0.0447783
-0.0427539
-0.0408108
-0.038946
-0.0371561
-0.0354381
-0.033789
-0.0322058
-0.0306857
-0.0292258
-0.0278234
-0.0264758
-0.0251804
-0.0239346
-0.022736
-0.0215822
-0.0204707
-0.0193992
-0.0183656
-0.0173676
-0.0164032
-0.0154703
-0.014567
-0.0136915
-0.0128419
-0.0120166
-0.0112139
-0.0104322
-0.00967012
-0.00892617
-0.00819897
-0.00748716
-0.00678944
-0.00610452
-0.00543117
-0.00476809
-0.00411414
-0.00346795
-0.00282857
-0.0021943
-0.00156478
-0.000937367
-0.000312659
0.270152
0.270022
0.269739
0.269293
0.268685
0.267917
0.266988
0.265897
0.26464
0.263217
0.261623
0.259858
0.257917
0.255798
0.253497
0.251011
0.248336
0.245468
0.242402
0.239135
0.235662
0.231979
0.228081
0.223962
0.21962
0.215049
0.210244
0.205202
0.199917
0.194386
0.188606
0.182572
0.176281
0.169731
0.162921
0.155847
0.148509
0.140907
0.133041
0.124913
0.116524
0.107877
0.098976
0.0898254
0.0804309
0.0707989
0.0609369
0.0508531
0.0405568
0.030058
0.0193676
0.00849711
-0.00254126
-0.0137347
-0.0250699
-0.0365332
-0.0481105
-0.0597876
-0.0715501
-0.0833838
-0.0952742
-0.107207
-0.119169
-0.131146
-0.143124
-0.155092
-0.167037
-0.178947
-0.19081
-0.202618
-0.214359
-0.226025
-0.237606
-0.249095
-0.260484
-0.271767
-0.282937
-0.293989
-0.304916
-0.315714
-0.326379
-0.336905
-0.347289
-0.357526
-0.367613
-0.377546
-0.38732
-0.396931
-0.406376
-0.415649
-0.424746
-0.433661
-0.44239
-0.450926
-0.459264
-0.467396
-0.475317
-0.483018
-0.490493
-0.497733
-0.504729
-0.511475
-0.51796
-0.524177
-0.530115
-0.535767
-0.541124
-0.546176
-0.550914
-0.555331
-0.559419
-0.563168
-0.566573
-0.569625
-0.572318
-0.574648
-0.576607
-0.578192
-0.579399
-0.580224
-0.580665
-0.580721
-0.58039
-0.579672
-0.578569
-0.577081
-0.575211
-0.572962
-0.570338
-0.567343
-0.563983
-0.560265
-0.556194
-0.551779
-0.547027
-0.541948
-0.536551
-0.530846
-0.524844
-0.518555
-0.511992
-0.505166
-0.498091
-0.490778
-0.483242
-0.475495
-0.467553
-0.459428
-0.451137
-0.442692
-0.43411
-0.425405
-0.416592
-0.407686
-0.398701
-0.389654
-0.380559
-0.37143
-0.362282
-0.353128
-0.343984
-0.334862
-0.325775
-0.316737
-0.307759
-0.298853
-0.29003
-0.281301
-0.272676
-0.264165
-0.255775
-0.247516
-0.239395
-0.231417
-0.223591
-0.21592
-0.208411
-0.201067
-0.193891
-0.186887
-0.180057
-0.173403
-0.166925
-0.160626
-0.154504
-0.14856
-0.142793
-0.137202
-0.131786
-0.126542
-0.121468
-0.116562
-0.111822
-0.107245
-0.102826
-0.0985641
-0.0944545
-0.0904939
-0.0866787
-0.0830051
-0.0794692
-0.0760673
-0.0727953
-0.0696494
-0.0666257
-0.0637202
-0.060929
-0.0582483
-0.0556742
-0.0532031
-0.0508311
-0.0485546
-0.04637
-0.0442739
-0.0422627
-0.0403331
-0.0384819
-0.0367057
-0.0350015
-0.0333662
-0.0317969
-0.0302905
-0.0288444
-0.0274557
-0.0261217
-0.0248397
-0.0236074
-0.022422
-0.0212812
-0.0201826
-0.0191239
-0.0181029
-0.0171173
-0.0161651
-0.0152443
-0.0143528
-0.013489
-0.0126509
-0.0118369
-0.0110453
-0.0102747
-0.00952348
-0.00879025
-0.00807364
-0.0073723
-0.00668494
-0.00601029
-0.00534711
-0.00469414
-0.00405022
-0.00341401
-0.00278458
-0.00216021
-0.00154061
-0.000922968
-0.000308312
0.271598
0.271469
0.271189
0.270746
0.270143
0.269382
0.26846
0.267377
0.26613
0.264717
0.263135
0.261382
0.259454
0.257348
0.255061
0.252589
0.249928
0.247073
0.244021
0.240767
0.237305
0.233632
0.229743
0.225632
0.221295
0.216727
0.211922
0.206877
0.201586
0.196046
0.190251
0.184199
0.177885
0.171308
0.164464
0.157352
0.14997
0.142318
0.134396
0.126205
0.117747
0.109026
0.100044
0.0908065
0.0813196
0.0715899
0.061625
0.0514338
0.0410258
0.0304118
0.0196031
0.0086119
-0.00254894
-0.0138659
-0.0253251
-0.036912
-0.0486119
-0.06041
-0.0722912
-0.0842405
-0.0962431
-0.108284
-0.12035
-0.132425
-0.144497
-0.156553
-0.16858
-0.180567
-0.192502
-0.204374
-0.216174
-0.227893
-0.239522
-0.251054
-0.262482
-0.273798
-0.284998
-0.296075
-0.307024
-0.317842
-0.328524
-0.339066
-0.349464
-0.359715
-0.369815
-0.379761
-0.389549
-0.399175
-0.408636
-0.417927
-0.427044
-0.435982
-0.444735
-0.453298
-0.461666
-0.46983
-0.477786
-0.485525
-0.493039
-0.500321
-0.507362
-0.514154
-0.520687
-0.526952
-0.53294
-0.538643
-0.54405
-0.549152
-0.55394
-0.558406
-0.562541
-0.566337
-0.569785
-0.572879
-0.575611
-0.577977
-0.579969
-0.581584
-0.582817
-0.583665
-0.584125
-0.584195
-0.583875
-0.583164
-0.582063
-0.580573
-0.578697
-0.576438
-0.573799
-0.570786
-0.567404
-0.563659
-0.559558
-0.555108
-0.550318
-0.545197
-0.539754
-0.534
-0.527945
-0.521599
-0.514976
-0.508087
-0.500945
-0.493563
-0.485954
-0.478132
-0.470111
-0.461905
-0.45353
-0.444999
-0.436328
-0.427533
-0.418627
-0.409627
-0.400547
-0.391403
-0.38221
-0.372982
-0.363735
-0.354483
-0.345239
-0.336018
-0.326833
-0.317698
-0.308623
-0.299623
-0.290707
-0.281887
-0.273173
-0.264575
-0.256101
-0.247761
-0.239561
-0.231509
-0.22361
-0.215871
-0.208297
-0.200891
-0.193657
-0.186598
-0.179717
-0.173015
-0.166494
-0.160154
-0.153996
-0.148018
-0.142221
-0.136603
-0.131163
-0.125898
-0.120806
-0.115885
-0.111133
-0.106545
-0.102119
-0.0978511
-0.093738
-0.089776
-0.0859612
-0.0822898
-0.0787576
-0.0753609
-0.0720955
-0.0689574
-0.0659425
-0.0630469
-0.0602665
-0.0575974
-0.0550357
-0.0525775
-0.0502191
-0.0479566
-0.0457865
-0.0437051
-0.0417089
-0.0397946
-0.0379588
-0.0361982
-0.0345096
-0.03289
-0.0313363
-0.0298456
-0.028415
-0.0270417
-0.0257231
-0.0244564
-0.0232391
-0.0220687
-0.0209426
-0.0198586
-0.0188143
-0.0178074
-0.0168358
-0.0158974
-0.0149901
-0.0141121
-0.0132613
-0.0124362
-0.011635
-0.010856
-0.0100977
-0.00935872
-0.00863755
-0.00793284
-0.00724327
-0.00656755
-0.00590444
-0.00525269
-0.00461107
-0.00397843
-0.00335344
-0.00273518
-0.00212193
-0.00151348
-0.000906809
-0.000303451
0.2732
0.273072
0.272795
0.272357
0.271759
0.271005
0.270092
0.269019
0.267783
0.266382
0.264813
0.263074
0.261161
0.259071
0.256799
0.254343
0.251698
0.248859
0.245822
0.242583
0.239135
0.235475
0.231596
0.227494
0.223164
0.2186
0.213797
0.208749
0.203452
0.197902
0.192092
0.186021
0.179683
0.173075
0.166194
0.15904
0.151608
0.1439
0.135916
0.127655
0.119121
0.110315
0.101243
0.0919078
0.0823167
0.0724766
0.0623956
0.0520828
0.0415487
0.0308042
0.0198616
0.00873375
-0.00256574
-0.0140226
-0.025622
-0.0373487
-0.0491872
-0.0611219
-0.073137
-0.0852167
-0.0973456
-0.109508
-0.12169
-0.133877
-0.146054
-0.158208
-0.170327
-0.182398
-0.194411
-0.206355
-0.218221
-0.229998
-0.24168
-0.253258
-0.264726
-0.276079
-0.287309
-0.298413
-0.309386
-0.320224
-0.330923
-0.341481
-0.351893
-0.362157
-0.372271
-0.38223
-0.392032
-0.401674
-0.411152
-0.420462
-0.429601
-0.438562
-0.447343
-0.455936
-0.464337
-0.472538
-0.480533
-0.488314
-0.495874
-0.503203
-0.510295
-0.517139
-0.523726
-0.530047
-0.536092
-0.541852
-0.547316
-0.552476
-0.557321
-0.561843
-0.566032
-0.56988
-0.573378
-0.576519
-0.579297
-0.581703
-0.583734
-0.585382
-0.586645
-0.587519
-0.588
-0.588087
-0.587779
-0.587076
-0.585978
-0.584486
-0.582604
-0.580333
-0.577679
-0.574645
-0.571238
-0.567463
-0.563328
-0.55884
-0.554007
-0.548839
-0.543345
-0.537535
-0.531421
-0.525013
-0.518323
-0.511363
-0.504147
-0.496686
-0.488996
-0.481089
-0.472981
-0.464684
-0.456215
-0.447588
-0.438818
-0.429921
-0.420912
-0.411806
-0.402619
-0.393367
-0.384064
-0.374726
-0.365367
-0.356003
-0.346648
-0.337316
-0.328021
-0.318776
-0.309593
-0.300486
-0.291466
-0.282543
-0.273729
-0.265034
-0.256466
-0.248034
-0.239746
-0.231609
-0.22363
-0.215814
-0.208166
-0.200691
-0.193392
-0.186272
-0.179334
-0.172579
-0.166009
-0.159624
-0.153424
-0.147409
-0.141579
-0.13593
-0.130463
-0.125175
-0.120064
-0.115126
-0.11036
-0.105761
-0.101326
-0.0970528
-0.0929362
-0.0889729
-0.0851588
-0.08149
-0.0779623
-0.0745716
-0.0713137
-0.0681845
-0.0651798
-0.0622954
-0.0595273
-0.0568714
-0.0543236
-0.0518801
-0.0495369
-0.0472902
-0.0451363
-0.0430715
-0.0410922
-0.039195
-0.0373765
-0.0356333
-0.0339622
-0.0323601
-0.0308239
-0.0293507
-0.0279375
-0.0265815
-0.02528
-0.0240303
-0.0228299
-0.0216761
-0.0205665
-0.0194987
-0.0184704
-0.0174793
-0.0165233
-0.0156002
-0.014708
-0.0138448
-0.0130087
-0.0121979
-0.0114109
-0.0106459
-0.00990136
-0.00917592
-0.00846813
-0.00777664
-0.00710014
-0.00643735
-0.00578703
-0.00514797
-0.00451895
-0.00389882
-0.00328628
-0.00268042
-0.00207949
-0.00148341
-0.000888904
-0.000298085
0.274956
0.27483
0.274556
0.274123
0.273532
0.272785
0.271882
0.27082
0.269597
0.26821
0.266656
0.264933
0.263037
0.260964
0.258711
0.256273
0.253646
0.250826
0.247807
0.244584
0.241153
0.237507
0.233642
0.229551
0.225229
0.220671
0.21587
0.210821
0.205519
0.199958
0.194134
0.188042
0.181677
0.175037
0.168117
0.160916
0.153431
0.145661
0.137607
0.129269
0.12065
0.111751
0.102577
0.093133
0.0834255
0.0734619
0.0632507
0.0528017
0.0421258
0.031235
0.020142
0.00886066
-0.00259453
-0.0142084
-0.0259652
-0.0378488
-0.0498427
-0.0619304
-0.0740953
-0.0863209
-0.0985909
-0.110889
-0.123201
-0.13551
-0.147803
-0.160066
-0.172286
-0.184451
-0.19655
-0.208573
-0.220508
-0.232349
-0.244087
-0.255715
-0.267227
-0.278616
-0.289879