/*--------------------------------*- C++ -*----------------------------------*\
| =========                 |                                                 |
| \\      /  F ield         | OpenFOAM: The Open Source CFD Toolbox           |
|  \\    /   O peration     | Version:  2306                                  |
|   \\  /    A nd           | Website:  www.openfoam.com                      |
|    \\/     M anipulation  |                                                 |
\*---------------------------------------------------------------------------*/
FoamFile
{
    version     2.0;
    format      ascii;
    arch        "LSB;label=32;scalar=64";
    class       surfaceScalarField;
    location    "6.5";
    object      phi;
}
// * * * * * * * * * * * * * * * * * * * * * * * * * * * * * * * * * * * * * //

dimensions      [0 3 -1 0 0 0 0];

oriented        oriented;

internalField   nonuniform List<scalar> 
65152
(
0.00625051
-5.07245e-07
0.00625203
-1.52365e-06
0.00625457
-2.54067e-06
0.00625813
-3.55945e-06
0.00626271
-4.58168e-06
0.00626832
-5.60845e-06
0.00627496
-6.64048e-06
0.00628264
-7.6785e-06
0.00629136
-8.72334e-06
0.00630114
-9.77578e-06
0.00631198
-1.08365e-05
0.00632388
-1.19062e-05
0.00633687
-1.29854e-05
0.00635094
-1.40745e-05
0.00636612
-1.51739e-05
0.0063824
-1.62838e-05
0.0063998
-1.74044e-05
0.00641834
-1.85357e-05
0.00643802
-1.96776e-05
0.00645885
-2.08297e-05
0.00648084
-2.19918e-05
0.006504
-2.31633e-05
0.00652835
-2.43433e-05
0.00655388
-2.55311e-05
0.0065806
-2.67256e-05
0.00660853
-2.79254e-05
0.00663766
-2.91292e-05
0.00666799
-3.03354e-05
0.00669953
-3.15422e-05
0.00673228
-3.27476e-05
0.00676623
-3.39494e-05
0.00680138
-3.51453e-05
0.00683771
-3.63328e-05
0.00687522
-3.75093e-05
0.00691389
-3.8672e-05
0.00695371
-3.9818e-05
0.00699465
-4.09442e-05
0.0070367
-4.20477e-05
0.00707983
-4.31252e-05
0.007124
-4.41735e-05
0.00716919
-4.51895e-05
0.00721536
-4.61699e-05
0.00726247
-4.71117e-05
0.00731048
-4.80118e-05
0.00735935
-4.88672e-05
0.00740902
-4.96751e-05
0.00745946
-5.0433e-05
0.0075106
-5.11383e-05
0.00756238
-5.1789e-05
0.00761477
-5.2383e-05
0.00766769
-5.29187e-05
0.00772108
-5.33946e-05
0.00777489
-5.38098e-05
0.00782905
-5.41633e-05
0.00788351
-5.44548e-05
0.00793819
-5.4684e-05
0.00799304
-5.48513e-05
0.008048
-5.4957e-05
0.008103
-5.50019e-05
0.00815799
-5.49871e-05
0.0082129
-5.49139e-05
0.00826769
-5.47839e-05
0.00832229
-5.45989e-05
0.00837665
-5.43608e-05
0.00843072
-5.40717e-05
0.00848445
-5.37339e-05
0.0085378
-5.33499e-05
0.00859073
-5.29219e-05
0.00864318
-5.24526e-05
0.00869512
-5.19443e-05
0.00874652
-5.13996e-05
0.00879734
-5.08208e-05
0.00884755
-5.02104e-05
0.00889712
-4.95705e-05
0.00894603
-4.89033e-05
0.00899424
-4.82107e-05
0.00904173
-4.74946e-05
0.00908849
-4.67567e-05
0.00913449
-4.59983e-05
0.00917971
-4.52208e-05
0.00922413
-4.44253e-05
0.00926775
-4.36125e-05
0.00931053
-4.27832e-05
0.00935247
-4.19377e-05
0.00939354
-4.10765e-05
0.00943374
-4.01994e-05
0.00947305
-3.93065e-05
0.00951145
-3.83974e-05
0.00954892
-3.74717e-05
0.00958545
-3.65288e-05
0.00962101
-3.5568e-05
0.0096556
-3.45886e-05
0.00968919
-3.35896e-05
0.00972176
-3.25702e-05
0.00975329
-3.15293e-05
0.00978376
-3.0466e-05
0.00981314
-2.93793e-05
0.00984141
-2.82682e-05
0.00986854
-2.71319e-05
0.00989451
-2.59696e-05
0.00991929
-2.47804e-05
0.00994285
-2.35638e-05
0.00996517
-2.23191e-05
0.00998622
-2.1046e-05
0.010006
-1.97443e-05
0.0100244
-1.84138e-05
0.0100414
-1.70546e-05
0.0100571
-1.56668e-05
0.0100713
-1.42509e-05
0.0100842
-1.28074e-05
0.0100955
-1.1337e-05
0.0101053
-9.84049e-06
0.0101137
-8.31903e-06
0.0101204
-6.77376e-06
0.0101256
-5.206e-06
0.0101292
-3.61724e-06
0.0101313
-2.00909e-06
0.0101316
-3.83313e-07
0.0101304
1.25836e-06
0.0101275
2.91383e-06
0.0101229
4.58116e-06
0.0101166
6.25821e-06
0.0101087
7.94278e-06
0.0100991
9.63263e-06
0.0100877
1.13255e-05
0.0100747
1.30189e-05
0.01006
1.47106e-05
0.0100436
1.63982e-05
0.0100255
1.80792e-05
0.0100058
1.97512e-05
0.00998436
2.14118e-05
0.0099613
2.30586e-05
0.00993661
2.46891e-05
0.00991031
2.63009e-05
0.00988242
2.78917e-05
0.00985296
2.94589e-05
0.00982196
3.10004e-05
0.00978944
3.25137e-05
0.00975545
3.39966e-05
0.00972
3.54467e-05
0.00968314
3.68619e-05
0.0096449
3.82399e-05
0.00960532
3.95786e-05
0.00956445
4.08759e-05
0.00952232
4.21297e-05
0.00947898
4.33381e-05
0.00943448
4.4499e-05
0.00938887
4.56108e-05
0.0093422
4.66715e-05
0.00929452
4.76795e-05
0.00924588
4.86332e-05
0.00919635
4.95311e-05
0.00914598
5.03718e-05
0.00909483
5.1154e-05
0.00904295
5.18766e-05
0.00899041
5.25386e-05
0.00893727
5.31392e-05
0.00888359
5.36775e-05
0.00882944
5.41531e-05
0.00877488
5.45655e-05
0.00871996
5.49145e-05
0.00866476
5.52001e-05
0.00860934
5.54223e-05
0.00855376
5.55815e-05
0.00849808
5.56781e-05
0.00844237
5.57127e-05
0.00838668
5.56861e-05
0.00833108
5.55993e-05
0.00827563
5.54535e-05
0.00822038
5.52499e-05
0.00816539
5.499e-05
0.00811071
5.46753e-05
0.00805641
5.43077e-05
0.00800252
5.38889e-05
0.0079491
5.3421e-05
0.00789619
5.2906e-05
0.00784384
5.2346e-05
0.0077921
5.17434e-05
0.007741
5.11004e-05
0.00769058
5.04194e-05
0.00764088
4.97029e-05
0.00759192
4.89532e-05
0.00754375
4.81729e-05
0.00749639
4.73644e-05
0.00744986
4.65302e-05
0.00740418
4.56728e-05
0.00735939
4.47946e-05
0.00731549
4.38981e-05
0.00727251
4.29855e-05
0.00723045
4.20594e-05
0.00718932
4.11218e-05
0.00714915
4.01751e-05
0.00710993
3.92213e-05
0.00707167
3.82625e-05
0.00703436
3.73008e-05
0.00699803
3.6338e-05
0.00696265
3.53758e-05
0.00692823
3.44161e-05
0.00689477
3.34605e-05
0.00686226
3.25105e-05
0.0068307
3.15674e-05
0.00680006
3.06327e-05
0.00677036
2.97076e-05
0.00674156
2.87931e-05
0.00671367
2.78903e-05
0.00668667
2.70002e-05
0.00666055
2.61236e-05
0.00663529
2.52611e-05
0.00661087
2.44135e-05
0.00658729
2.35812e-05
0.00656453
2.27647e-05
0.00654256
2.19642e-05
0.00652138
2.11799e-05
0.00650097
2.04119e-05
0.00648131
1.966e-05
0.00646239
1.89239e-05
0.00644419
1.82029e-05
0.00642669
1.74964e-05
0.00640989
1.68031e-05
0.00639376
1.61217e-05
0.00637831
1.54504e-05
0.00636353
1.47874e-05
0.0063494
1.41303e-05
0.00633592
1.34768e-05
0.00632309
1.28246e-05
0.00631092
1.21714e-05
0.00629941
1.15153e-05
0.00628855
1.08547e-05
0.00627836
1.01887e-05
0.00626885
9.51719e-06
0.00626001
8.84088e-06
0.00625185
8.16142e-06
0.00624436
7.48139e-06
0.00623756
6.80427e-06
0.00623143
6.13427e-06
0.00622595
5.47625e-06
0.00622111
4.83543e-06
0.0062169
4.21724e-06
0.00621327
3.62704e-06
0.0062102
3.06989e-06
0.00620765
2.55034e-06
0.00620558
2.07229e-06
0.00620394
1.63881e-06
0.00620269
1.25207e-06
0.00620177
9.13305e-07
0.00620115
6.22828e-07
0.00620077
3.80055e-07
0.00620059
1.83645e-07
0.00620055
3.14745e-08
0.00620063
-7.88907e-08
0.00620078
-1.50982e-07
0.00620097
-1.86748e-07
0.00620116
-1.93517e-07
0.00620133
-1.64142e-07
0.00620146
-1.31618e-07
-1.848e-08
0.00625051
-1.01499e-06
0.00625203
-3.04544e-06
0.00625457
-5.07842e-06
0.00625812
-7.11591e-06
0.0062627
-9.16e-06
0.00626831
-1.12128e-05
0.00627494
-1.3276e-05
0.00628261
-1.53514e-05
0.00629133
-1.74405e-05
0.0063011
-1.95448e-05
0.00631193
-2.16659e-05
0.00632383
-2.38049e-05
0.00633681
-2.59629e-05
0.00635087
-2.8141e-05
0.00636604
-3.03396e-05
0.00638231
-3.25595e-05
0.00639971
-3.48009e-05
0.00641824
-3.70638e-05
0.00643791
-3.93479e-05
0.00645873
-4.16529e-05
0.00648072
-4.39778e-05
0.00650388
-4.63216e-05
0.00652822
-4.86828e-05
0.00655375
-5.10596e-05
0.00658047
-5.345e-05
0.0066084
-5.58513e-05
0.00663753
-5.82608e-05
0.00666787
-6.06751e-05
0.00669942
-6.30908e-05
0.00673217
-6.55039e-05
0.00676613
-6.791e-05
0.00680129
-7.03045e-05
0.00683764
-7.26823e-05
0.00687517
-7.50383e-05
0.00691386
-7.73668e-05
0.00695371
-7.96619e-05
0.00699468
-8.19177e-05
0.00703676
-8.41279e-05
0.00707992
-8.62862e-05
0.00712414
-8.83863e-05
0.00716937
-9.04215e-05
0.00721558
-9.23857e-05
0.00726274
-9.42724e-05
0.00731081
-9.60755e-05
0.00735973
-9.77893e-05
0.00740946
-9.94079e-05
0.00745996
-0.000100926
0.00751116
-0.000102339
0.00756301
-0.000103643
0.00761546
-0.000104832
0.00766845
-0.000105905
0.00772191
-0.000106858
0.00777579
-0.000107689
0.00783002
-0.000108397
0.00788455
-0.00010898
0.0079393
-0.000109438
0.00799422
-0.000109772
0.00804925
-0.000109983
0.00810432
-0.000110072
0.00815937
-0.000110041
0.00821435
-0.000109893
0.0082692
-0.000109631
0.00832386
-0.000109259
0.00837828
-0.000108781
0.00843241
-0.0001082
0.0084862
-0.000107522
0.0085396
-0.000106752
0.00859257
-0.000105893
0.00864507
-0.000104952
0.00869706
-0.000103933
0.0087485
-0.000102841
0.00879936
-0.000101681
0.00884961
-0.000100458
0.00889921
-9.91759e-05
0.00894815
-9.78393e-05
0.00899639
-9.64522e-05
0.00904391
-9.50183e-05
0.0090907
-9.35408e-05
0.00913672
-9.20227e-05
0.00918197
-9.04665e-05
0.00922642
-8.88743e-05
0.00927005
-8.7248e-05
0.00931286
-8.55887e-05
0.00935482
-8.38975e-05
0.00939592
-8.21747e-05
0.00943614
-8.04206e-05
0.00947547
-7.86348e-05
0.00951389
-7.68169e-05
0.00955138
-7.49659e-05
0.00958793
-7.30806e-05
0.00962352
-7.11596e-05
0.00965814
-6.92014e-05
0.00969175
-6.72042e-05
0.00972435
-6.51661e-05
0.0097559
-6.30851e-05
0.0097864
-6.09592e-05
0.0098158
-5.87866e-05
0.0098441
-5.65652e-05
0.00987126
-5.42932e-05
0.00989726
-5.1969e-05
0.00992207
-4.95911e-05
0.00994567
-4.71581e-05
0.00996802
-4.4669e-05
0.00998909
-4.21229e-05
0.0100089
-3.95193e-05
0.0100273
-3.6858e-05
0.0100444
-3.4139e-05
0.0100601
-3.13629e-05
0.0100744
-2.85303e-05
0.0100872
-2.56422e-05
0.0100986
-2.27002e-05
0.0101084
-1.9706e-05
0.0101168
-1.66616e-05
0.0101236
-1.35695e-05
0.0101288
-1.04322e-05
0.0101324
-7.2528e-06
0.0101345
-4.03448e-06
0.0101349
-7.80637e-07
0.0101336
2.50478e-06
0.0101307
5.81809e-06
0.0101261
9.15518e-06
0.0101199
1.25118e-05
0.0101119
1.58835e-05
0.0101023
1.92658e-05
0.010091
2.26541e-05
0.010078
2.60437e-05
0.0100632
2.94298e-05
0.0100468
3.28077e-05
0.0100287
3.61724e-05
0.010009
3.95192e-05
0.00998753
4.28432e-05
0.00996445
4.61394e-05
0.00993974
4.94031e-05
0.00991341
5.26295e-05
0.00988549
5.58136e-05
0.00985599
5.89508e-05
0.00982496
6.20364e-05
0.00979241
6.50656e-05
0.00975837
6.80338e-05
0.00972288
7.09366e-05
0.00968597
7.37694e-05
0.00964768
7.65278e-05
0.00960805
7.92076e-05
0.00956713
8.18045e-05
0.00952494
8.43144e-05
0.00948155
8.67332e-05
0.00943699
8.90573e-05
0.00939132
9.12827e-05
0.00934458
9.3406e-05
0.00929684
9.54238e-05
0.00924814
9.73329e-05
0.00919854
9.91302e-05
0.0091481
0.000100813
0.00909687
0.000102379
0.00904492
0.000103825
0.00899231
0.00010515
0.0089391
0.000106352
0.00888535
0.000107429
0.00883112
0.000108381
0.00877648
0.000109206
0.00872149
0.000109904
0.00866621
0.000110475
0.00861072
0.00011092
0.00855506
0.000111238
0.00849931
0.00011143
0.00844352
0.000111498
0.00838777
0.000111444
0.0083321
0.00011127
0.00827657
0.000110977
0.00822125
0.000110568
0.0081662
0.000110046
0.00811146
0.000109415
0.00805709
0.000108678
0.00800314
0.000107839
0.00794966
0.000106901
0.0078967
0.000105868
0.0078443
0.000104746
0.0077925
0.000103538
0.00774135
0.00010225
0.00769089
0.000100885
0.00764114
9.94497e-05
0.00759214
9.79477e-05
0.00754393
9.63845e-05
0.00749653
9.47649e-05
0.00744997
9.30939e-05
0.00740427
9.13765e-05
0.00735944
8.96176e-05
0.00731552
8.78221e-05
0.00727251
8.59946e-05
0.00723043
8.41399e-05
0.00718929
8.22624e-05
0.0071491
8.03667e-05
0.00710986
7.8457e-05
0.00707159
7.65374e-05
0.00703427
7.46119e-05
0.00699793
7.26844e-05
0.00696255
7.07583e-05
0.00692812
6.88372e-05
0.00689466
6.69243e-05
0.00686215
6.50227e-05
0.00683058
6.31352e-05
0.00679995
6.12644e-05
0.00677024
5.94129e-05
0.00674145
5.75828e-05
0.00671357
5.57763e-05
0.00668657
5.39951e-05
0.00666046
5.22409e-05
0.0066352
5.05152e-05
0.0066108
4.88192e-05
0.00658722
4.71539e-05
0.00656447
4.55202e-05
0.00654251
4.39188e-05
0.00652134
4.23498e-05
0.00650094
4.08133e-05
0.00648129
3.93092e-05
0.00646238
3.78366e-05
0.00644419
3.63945e-05
0.0064267
3.49813e-05
0.00640991
3.35946e-05
0.0063938
3.22317e-05
0.00637836
3.08892e-05
0.00636359
2.95631e-05
0.00634947
2.82491e-05
0.006336
2.69424e-05
0.00632319
2.56382e-05
0.00631103
2.43322e-05
0.00629952
2.30203e-05
0.00628868
2.16996e-05
0.0062785
2.03681e-05
0.00626899
1.90257e-05
0.00626016
1.76737e-05
0.006252
1.63154e-05
0.00624453
1.49561e-05
0.00623773
1.36026e-05
0.0062316
1.22633e-05
0.00622613
1.0948e-05
0.0062213
9.66704e-06
0.00621708
8.43134e-06
0.00621346
7.25158e-06
0.00621039
6.13788e-06
0.00620784
5.09935e-06
0.00620577
4.14377e-06
0.00620413
3.27727e-06
0.00620288
2.50421e-06
0.00620197
1.82705e-06
0.00620134
1.24642e-06
0.00620096
7.61162e-07
0.00620078
3.68571e-07
0.00620074
6.4441e-08
0.00620082
-1.56159e-07
0.00620097
-3.00155e-07
0.00620116
-3.71726e-07
0.00620135
-3.84949e-07
0.00620151
-3.26596e-07
0.00620164
-2.60751e-07
-3.56472e-08
0.00625051
-1.52139e-06
0.00625203
-4.56488e-06
0.00625456
-7.61224e-06
0.00625811
-1.06666e-05
0.00626268
-1.3731e-05
0.00626828
-1.68084e-05
0.0062749
-1.99015e-05
0.00628256
-2.30129e-05
0.00629127
-2.6145e-05
0.00630102
-2.93003e-05
0.00631184
-3.24807e-05
0.00632372
-3.56883e-05
0.00633668
-3.89246e-05
0.00635073
-4.21912e-05
0.00636588
-4.5489e-05
0.00638214
-4.88189e-05
0.00639952
-5.21814e-05
0.00641804
-5.55765e-05
0.00643769
-5.90038e-05
0.0064585
-6.24627e-05
0.00648048
-6.5952e-05
0.00650362
-6.947e-05
0.00652796
-7.30145e-05
0.00655348
-7.65828e-05
0.0065802
-8.01719e-05
0.00660813
-8.3778e-05
0.00663726
-8.73967e-05
0.00666761
-9.10232e-05
0.00669917
-9.46522e-05
0.00673195
-9.82776e-05
0.00676593
-0.000101893
0.00680112
-0.000105491
0.0068375
-0.000109065
0.00687507
-0.000112607
0.00691381
-0.000116107
0.0069537
-0.000119558
0.00699474
-0.00012295
0.00703688
-0.000126273
0.00708011
-0.000129519
0.00712441
-0.000132678
0.00716972
-0.000135739
0.00721603
-0.000138693
0.00726329
-0.000141531
0.00731146
-0.000144244
0.00736049
-0.000146822
0.00741034
-0.000149256
0.00746095
-0.00015154
0.00751228
-0.000153665
0.00756426
-0.000155626
0.00761684
-0.000157415
0.00766997
-0.000159028
0.00772357
-0.00016046
0.00777759
-0.000161709
0.00783196
-0.000162771
0.00788663
-0.000163646
0.00794152
-0.000164334
0.00799659
-0.000164834
0.00805175
-0.000165148
0.00810696
-0.000165278
0.00816214
-0.000165228
0.00821725
-0.000165003
0.00827223
-0.000164605
0.00832701
-0.000164042
0.00838155
-0.000163319
0.00843579
-0.000162443
0.00848969
-0.00016142
0.00854319
-0.000160258
0.00859626
-0.000158964
0.00864886
-0.000157545
0.00870094
-0.00015601
0.00875246
-0.000154366
0.0088034
-0.00015262
0.00885372
-0.000150779
0.0089034
-0.000148851
0.0089524
-0.000146841
0.0090007
-0.000144755
0.00904828
-0.0001426
0.00909512
-0.00014038
0.0091412
-0.000138099
0.00918649
-0.000135762
0.00923099
-0.000133371
0.00927467
-0.000130929
0.00931752
-0.000128439
0.00935952
-0.000125901
0.00940066
-0.000123316
0.00944093
-0.000120685
0.0094803
-0.000118007
0.00951876
-0.00011528
0.0095563
-0.000112505
0.0095929
-0.000109678
0.00962854
-0.000106798
0.0096632
-0.000103863
0.00969686
-0.000100869
0.00972951
-9.78135e-05
0.00976112
-9.4694e-05
0.00979167
-9.15071e-05
0.00982113
-8.825e-05
0.00984949
-8.49196e-05
0.00987671
-8.15133e-05
0.00990277
-7.80283e-05
0.00992764
-7.44625e-05
0.00995129
-7.08137e-05
0.0099737
-6.70804e-05
0.00999484
-6.32614e-05
0.0100147
-5.93557e-05
0.0100332
-5.5363e-05
0.0100503
-5.12834e-05
0.0100661
-4.71176e-05
0.0100804
-4.28667e-05
0.0100933
-3.85322e-05
0.0101047
-3.41163e-05
0.0101146
-2.96217e-05
0.010123
-2.50515e-05
0.0101299
-2.04092e-05
0.0101351
-1.56989e-05
0.0101388
-1.0925e-05
0.0101409
-6.09246e-06
0.0101413
-1.20616e-06
0.0101401
3.72739e-06
0.0101372
8.70326e-06
0.0101326
1.3715e-05
0.0101264
1.87561e-05
0.0101184
2.382e-05
0.0101088
2.89e-05
0.0100975
3.39891e-05
0.0100844
3.90802e-05
0.0100697
4.41662e-05
0.0100533
4.92398e-05
0.0100351
5.42938e-05
0.0100153
5.93209e-05
0.00999388
6.43136e-05
0.00997075
6.92648e-05
0.00994599
7.41672e-05
0.0099196
7.90134e-05
0.00989162
8.37963e-05
0.00986206
8.85087e-05
0.00983096
9.31436e-05
0.00979833
9.76938e-05
0.00976421
0.000102153
0.00972863
0.000106513
0.00969163
0.000110768
0.00965325
0.000114912
0.00961352
0.000118938
0.00957249
0.000122839
0.00953019
0.000126609
0.00948668
0.000130243
0.009442
0.000133734
0.00939621
0.000137077
0.00934935
0.000140267
0.00930148
0.000143298
0.00925264
0.000146166
0.00920291
0.000148865
0.00915233
0.000151393
0.00910096
0.000153745
0.00904887
0.000155917
0.00899611
0.000157907
0.00894275
0.000159712
0.00888885
0.00016133
0.00883447
0.000162759
0.00877968
0.000163997
0.00872454
0.000165045
0.00866912
0.000165901
0.00861347
0.000166567
0.00855766
0.000167043
0.00850176
0.00016733
0.00844583
0.00016743
0.00838993
0.000167347
0.00833412
0.000167082
0.00827846
0.000166639
0.008223
0.000166022
0.00816781
0.000165236
0.00811294
0.000164285
0.00805845
0.000163174
0.00800438
0.00016191
0.00795078
0.000160497
0.0078977
0.000158943
0.0078452
0.000157254
0.0077933
0.000155436
0.00774205
0.000153497
0.00769149
0.000151444
0.00764166
0.000149284
0.00759258
0.000147025
0.00754429
0.000144673
0.00749682
0.000142237
0.00745019
0.000139725
0.00740442
0.000137142
0.00735954
0.000134497
0.00731557
0.000131798
0.00727251
0.000129051
0.00723039
0.000126262
0.00718921
0.000123441
0.00714899
0.000120591
0.00710972
0.000117721
0.00707142
0.000114837
0.00703409
0.000111944
0.00699773
0.000109048
0.00696233
0.000106154
0.0069279
0.000103268
0.00689443
0.000100395
0.00686192
9.75384e-05
0.00683035
9.47036e-05
0.00679972
9.18941e-05
0.00677002
8.91137e-05
0.00674123
8.63657e-05
0.00671336
8.36532e-05
0.00668637
8.0979e-05
0.00666027
7.83454e-05
0.00663503
7.57548e-05
0.00661064
7.3209e-05
0.00658708
7.07095e-05
0.00656435
6.82575e-05
0.00654241
6.5854e-05
0.00652126
6.34993e-05
0.00650088
6.11937e-05
0.00648125
5.89367e-05
0.00646236
5.67271e-05
0.00644419
5.45634e-05
0.00642673
5.24431e-05
0.00640996
5.03628e-05
0.00639388
4.83184e-05
0.00637846
4.63046e-05
0.00636371
4.43157e-05
0.00634961
4.23449e-05
0.00633617
4.03854e-05
0.00632338
3.84298e-05
0.00631124
3.64716e-05
0.00629976
3.45048e-05
0.00628893
3.25248e-05
0.00627877
3.0529e-05
0.00626928
2.85168e-05
0.00626046
2.64904e-05
0.00625232
2.44547e-05
0.00624486
2.24174e-05
0.00623807
2.03889e-05
0.00623196
1.83818e-05
0.00622649
1.64106e-05
0.00622167
1.4491e-05
0.00621746
1.26391e-05
0.00621384
1.08711e-05
0.00621078
9.20207e-06
0.00620823
7.64569e-06
0.00620616
6.21361e-06
0.00620452
4.91504e-06
0.00620327
3.7565e-06
0.00620236
2.7417e-06
0.00620173
1.87157e-06
0.00620135
1.14438e-06
0.00620116
5.56092e-07
0.00620112
1.00397e-07
0.0062012
-2.30114e-07
0.00620134
-4.45784e-07
0.00620153
-5.52955e-07
0.00620171
-5.72595e-07
0.00620187
-4.85109e-07
0.006202
-3.86269e-07
-4.88862e-08
0.00625051
-2.02653e-06
0.00625202
-6.08063e-06
0.00625455
-1.01399e-05
0.00625809
-1.42087e-05
0.00626265
-1.8291e-05
0.00626823
-2.23908e-05
0.00627484
-2.65116e-05
0.00628249
-3.06571e-05
0.00629117
-3.48305e-05
0.00630091
-3.9035e-05
0.0063117
-4.32735e-05
0.00632356
-4.75485e-05
0.0063365
-5.18623e-05
0.00635052
-5.62168e-05
0.00636565
-6.06135e-05
0.00638188
-6.50535e-05
0.00639924
-6.95376e-05
0.00641773
-7.40657e-05
0.00643736
-7.86375e-05
0.00645815
-8.32521e-05
0.00648011
-8.7908e-05
0.00650324
-9.26028e-05
0.00652756
-9.73339e-05
0.00655307
-0.000102098
0.00657979
-0.00010689
0.00660772
-0.000111705
0.00663686
-0.000116539
0.00666722
-0.000121383
0.0066988
-0.000126232
0.0067316
-0.000131077
0.00676562
-0.000135909
0.00680085
-0.00014072
0.00683728
-0.000145498
0.00687491
-0.000150234
0.00691371
-0.000154915
0.00695369
-0.000159531
0.00699481
-0.000164069
0.00703705
-0.000168516
0.00708039
-0.00017286
0.0071248
-0.000177087
0.00717024
-0.000181184
0.00721669
-0.000185139
0.0072641
-0.000188938
0.00731242
-0.000192569
0.00736162
-0.00019602
0.00741164
-0.000199279
0.00746244
-0.000202336
0.00751395
-0.00020518
0.00756613
-0.000207803
0.00761891
-0.000210197
0.00767224
-0.000212354
0.00772605
-0.00021427
0.00778028
-0.000215939
0.00783487
-0.000217358
0.00788975
-0.000218526
0.00794485
-0.000219441
0.00800012
-0.000220105
0.0080555
-0.000220521
0.00811091
-0.00022069
0.0081663
-0.000220617
0.0082216
-0.000220308
0.00827677
-0.00021977
0.00833174
-0.00021901
0.00838645
-0.000218036
0.00844087
-0.000216856
0.00849493
-0.000215481
0.00854859
-0.000213919
0.00860181
-0.000212182
0.00865454
-0.000210279
0.00870675
-0.00020822
0.0087584
-0.000206016
0.00880946
-0.000203677
0.00885989
-0.000201211
0.00890967
-0.000198629
0.00895877
-0.000195939
0.00900716
-0.00019315
0.00905483
-0.000190267
0.00910175
-0.0001873
0.0091479
-0.000184252
0.00919327
-0.00018113
0.00923784
-0.000177938
0.00928159
-0.000174679
0.0093245
-0.000171355
0.00936657
-0.000167969
0.00940778
-0.000164522
0.00944811
-0.000161014
0.00948754
-0.000157443
0.00952607
-0.000153809
0.00956368
-0.000150111
0.00960034
-0.000146344
0.00963605
-0.000142507
0.00967079
-0.000138597
0.00970453
-0.000134608
0.00973725
-0.000130538
0.00976894
-0.000126382
0.00979957
-0.000122137
0.00982912
-0.000117798
0.00985756
-0.000113361
0.00988487
-0.000108822
0.00991101
-0.000104178
0.00993598
-9.94251e-05
0.00995973
-9.45616e-05
0.00998223
-8.95847e-05
0.0100035
-8.44927e-05
0.0100234
-7.92845e-05
0.010042
-7.39596e-05
0.0100592
-6.85181e-05
0.0100751
-6.29607e-05
0.0100895
-5.7289e-05
0.0101025
-5.15052e-05
0.010114
-4.5612e-05
0.0101239
-3.96131e-05
0.0101324
-3.35125e-05
0.0101393
-2.73152e-05
0.0101446
-2.10265e-05
0.0101484
-1.46525e-05
0.0101505
-8.19964e-06
0.0101509
-1.67443e-06
0.0101498
4.91406e-06
0.0101469
1.15595e-05
0.0101424
1.82531e-05
0.0101361
2.49863e-05
0.0101282
3.17503e-05
0.0101186
3.85358e-05
0.0101072
4.53336e-05
0.0100942
5.21344e-05
0.0100794
5.89283e-05
0.0100629
6.57059e-05
0.0100448
7.24573e-05
0.0100249
7.91729e-05
0.0100034
8.58427e-05
0.0099802
9.2457e-05
0.00995536
9.90062e-05
0.0099289
0.00010548
0.00990082
0.00011187
0.00987117
0.000118166
0.00983995
0.000124358
0.00980721
0.000130437
0.00977297
0.000136394
0.00973726
0.000142219
0.00970013
0.000147905
0.0096616
0.000153441
0.00962172
0.000158819
0.00958052
0.000164031
0.00953806
0.000169069
0.00949438
0.000173924
0.00944953
0.000178588
0.00940355
0.000183055
0.0093565
0.000187317
0.00930843
0.000191367
0.0092594
0.000195198
0.00920946
0.000198805
0.00915867
0.000202182
0.00910709
0.000205324
0.00905478
0.000208226
0.00900181
0.000210884
0.00894822
0.000213294
0.0088941
0.000215454
0.0088395
0.000217361
0.00878448
0.000219014
0.00872911
0.000220411
0.00867346
0.000221553
0.00861759
0.000222439
0.00856156
0.000223072
0.00850544
0.000223452
0.00844929
0.000223582
0.00839317
0.000223466
0.00833714
0.000223107
0.00828127
0.00022251
0.00822561
0.000221681
0.00817022
0.000220625
0.00811516
0.000219348
0.00806048
0.000217858
0.00800622
0.000216163
0.00795245
0.000214269
0.00789921
0.000212187
0.00784654
0.000209923
0.00779449
0.000207488
0.00774309
0.000204891
0.00769239
0.000202142
0.00764243
0.00019925
0.00759323
0.000196226
0.00754482
0.000193078
0.00749724
0.000189818
0.00745051
0.000186455
0.00740465
0.000183
0.00735969
0.000179462
0.00731563
0.000175851
0.00727251
0.000172177
0.00723032
0.000168448
0.00718909
0.000164675
0.00714882
0.000160865
0.00710951
0.000157029
0.00707117
0.000153173
0.00703381
0.000149306
0.00699742
0.000145436
0.00696201
0.000141569
0.00692756
0.000137713
0.00689408
0.000133875
0.00686156
0.000130059
0.00682999
0.000126273
0.00679937
0.00012252
0.00676967
0.000118807
0.0067409
0.000115138
0.00671304
0.000111516
0.00668607
0.000107946
0.00665998
0.000104431
0.00663477
0.000100973
0.0066104
9.75749e-05
0.00658687
9.42391e-05
0.00656416
9.09671e-05
0.00654225
8.77599e-05
0.00652114
8.46183e-05
0.00650079
8.15423e-05
0.00648119
7.85314e-05
0.00646234
7.5584e-05
0.0064442
7.26981e-05
0.00642677
6.98702e-05
0.00641004
6.7096e-05
0.00639399
6.43698e-05
0.00637861
6.16849e-05
0.00636389
5.90333e-05
0.00634983
5.64063e-05
0.00633642
5.37944e-05
0.00632366
5.11883e-05
0.00631155
4.85789e-05
0.0063001
4.59583e-05
0.00628931
4.33206e-05
0.00627917
4.06619e-05
0.00626971
3.79817e-05
0.00626092
3.52828e-05
0.0062528
3.25716e-05
0.00624536
2.98586e-05
0.00623859
2.71572e-05
0.00623249
2.44845e-05
0.00622704
2.18596e-05
0.00622222
1.93034e-05
0.00621803
1.68374e-05
0.00621441
1.44831e-05
0.00621136
1.22605e-05
0.00620881
1.0188e-05
0.00620675
8.28098e-06
0.00620511
6.55175e-06
0.00620386
5.00901e-06
0.00620294
3.6577e-06
0.00620231
2.49906e-06
0.00620193
1.53081e-06
0.00620174
7.47542e-07
0.0062017
1.40888e-07
0.00620176
-2.99053e-07
0.0062019
-5.86029e-07
0.00620208
-7.28534e-07
0.00620226
-7.54445e-07
0.00620241
-6.37765e-07
0.00620253
-5.05939e-07
-5.6474e-08
0.0062505
-2.53002e-06
0.00625201
-7.59137e-06
0.00625453
-1.26592e-05
0.00625806
-1.77392e-05
0.00626261
-2.28363e-05
0.00626817
-2.79554e-05
0.00627476
-3.31011e-05
0.00628238
-3.8278e-05
0.00629104
-4.34902e-05
0.00630075
-4.87418e-05
0.00631151
-5.40364e-05
0.00632334
-5.93772e-05
0.00633625
-6.47673e-05
0.00635024
-7.02089e-05
0.00636533
-7.57041e-05
0.00638153
-8.12544e-05
0.00639885
-8.68606e-05
0.00641731
-9.25229e-05
0.00643691
-9.82409e-05
0.00645768
-0.000104014
0.00647961
-0.000109839
0.00650272
-0.000115714
0.00652702
-0.000121636
0.00655252
-0.0001276
0.00657923
-0.000133601
0.00660716
-0.000139633
0.00663631
-0.000145688
0.00666669
-0.000151759
0.00669829
-0.000157836
0.00673112
-0.00016391
0.00676518
-0.000169969
0.00680046
-0.000176002
0.00683696
-0.000181997
0.00687467
-0.000187939
0.00691357
-0.000193814
0.00695364
-0.000199608
0.00699488
-0.000205305
0.00703725
-0.000210889
0.00708074
-0.000216344
0.0071253
-0.000221653
0.00717092
-0.0002268
0.00721755
-0.000231768
0.00726515
-0.000236541
0.00731369
-0.000241103
0.00736311
-0.000245439
0.00741336
-0.000249534
0.0074644
-0.000253375
0.00751617
-0.000256948
0.00756861
-0.000260242
0.00762166
-0.000263248
0.00767526
-0.000265956
0.00772935
-0.000268359
0.00778386
-0.000270451
0.00783873
-0.000272229
0.00789389
-0.00027369
0.00794929
-0.000274833
0.00800484
-0.00027566
0.00806049
-0.000276173
0.00811618
-0.000276376
0.00817184
-0.000276275
0.0082274
-0.000275877
0.00828282
-0.00027519
0.00833804
-0.000274224
0.00839299
-0.00027299
0.00844763
-0.000271498
0.00850191
-0.00026976
0.00855578
-0.000267789
0.0086092
-0.000265598
0.00866212
-0.000263199
0.00871451
-0.000260607
0.00876632
-0.000257832
0.00881754
-0.000254889
0.00886811
-0.00025179
0.00891803
-0.000248545
0.00896726
-0.000245167
0.00901577
-0.000241665
0.00906355
-0.000238049
0.00911058
-0.000234327
0.00915684
-0.000230507
0.0092023
-0.000226595
0.00924696
-0.000222597
0.0092908
-0.000218517
0.0093338
-0.000214359
0.00937596
-0.000210124
0.00941725
-0.000205813
0.00945766
-0.000201427
0.00949718
-0.000196965
0.0095358
-0.000192425
0.00957349
-0.000187805
0.00961025
-0.000183101
0.00964605
-0.00017831
0.00968088
-0.000173426
0.00971472
-0.000168447
0.00974755
-0.000163365
0.00977934
-0.000158177
0.00981008
-0.000152876
0.00983974
-0.000147458
0.0098683
-0.000141917
0.00989573
-0.000136248
0.00992199
-0.000130447
0.00994708
-0.00012451
0.00997095
-0.000118433
0.00999358
-0.000112213
0.0100149
-0.000105849
0.010035
-9.93374e-05
0.0100537
-9.26791e-05
0.0100711
-8.58737e-05
0.010087
-7.89223e-05
0.0101016
-7.18267e-05
0.0101146
-6.45896e-05
0.0101262
-5.72145e-05
0.0101363
-4.9706e-05
0.0101449
-4.20692e-05
0.0101519
-3.43103e-05
0.0101573
-2.64362e-05
0.0101611
-1.84543e-05
0.0101633
-1.03728e-05
0.0101638
-2.2004e-06
0.0101627
6.0524e-06
0.0101598
1.43768e-05
0.0101553
2.27622e-05
0.0101491
3.11975e-05
0.0101412
3.96717e-05
0.0101316
4.81733e-05
0.0101202
5.66906e-05
0.0101071
6.52117e-05
0.0100923
7.37246e-05
0.0100758
8.2217e-05
0.0100576
9.06769e-05
0.0100377
9.90919e-05
0.0100161
0.00010745
0.0099928
0.000115738
0.00996786
0.000123945
0.00994129
0.000132058
0.00991309
0.000140065
0.0098833
0.000147955
0.00985194
0.000155714
0.00981905
0.000163332
0.00978464
0.000170798
0.00974877
0.000178099
0.00971145
0.000185224
0.00967273
0.000192162
0.00963264
0.000198903
0.00959124
0.000205435
0.00954856
0.000211749
0.00950465
0.000217833
0.00945956
0.00022368
0.00941333
0.000229278
0.00936603
0.00023462
0.0093177
0.000239695
0.0092684
0.000244497
0.00921819
0.000249018
0.00916712
0.00025325
0.00911526
0.000257187
0.00906266
0.000260823
0.00900939
0.000264152
0.00895552
0.000267172
0.00890109
0.000269877
0.00884619
0.000272264
0.00879087
0.000274332
0.0087352
0.00027608
0.00867925
0.000277507
0.00862308
0.000278613
0.00856675
0.0002794
0.00851033
0.00027987
0.00845388
0.000280027
0.00839748
0.000279874
0.00834117
0.000279417
0.00828501
0.000278661
0.00822908
0.000277613
0.00817343
0.00027628
0.0081181
0.000274671
0.00806317
0.000272794
0.00800867
0.000270659
0.00795466
0.000268276
0.0079012
0.000265655
0.00784831
0.000262809
0.00779605
0.000259747
0.00774446
0.000256482
0.00769358
0.000253026
0.00764344
0.000249392
0.00759407
0.000245591
0.00754551
0.000241637
0.00749779
0.000237543
0.00745092
0.00023332
0.00740494
0.000228981
0.00735986
0.00022454
0.00731571
0.000220007
0.00727249
0.000215396
0.00723022
0.000210717
0.00718891
0.000205983
0.00714857
0.000201205
0.00710921
0.000196393
0.00707082
0.000191557
0.00703342
0.000186709
0.006997
0.000181857
0.00696156
0.00017701
0.0069271
0.000172177
0.0068936
0.000167366
0.00686108
0.000162586
0.00682951
0.000157842
0.00679889
0.000153142
0.0067692
0.000148491
0.00674045
0.000143896
0.0067126
0.000139361
0.00668566
0.000134891
0.0066596
0.00013049
0.00663441
0.000126161
0.00661007
0.000121908
0.00658658
0.000117734
0.00656391
0.000113639
0.00654204
0.000109627
0.00652096
0.000105696
0.00650066
0.000101848
0.00648111
9.80821e-05
0.00646229
9.43959e-05
0.00644421
9.07869e-05
0.00642683
8.72508e-05
0.00641014
8.37823e-05
0.00639413
8.03742e-05
0.0063788
7.70182e-05
0.00636413
7.37042e-05
0.00635012
7.04214e-05
0.00633675
6.71581e-05
0.00632404
6.39024e-05
0.00631197
6.06432e-05
0.00630056
5.73705e-05
0.0062898
5.40768e-05
0.00627971
5.07574e-05
0.00627028
4.74116e-05
0.00626152
4.40426e-05
0.00625343
4.06588e-05
0.00624602
3.72727e-05
0.00623927
3.39014e-05