/*--------------------------------*- C++ -*----------------------------------*\
| =========                 |                                                 |
| \\      /  F ield         | OpenFOAM: The Open Source CFD Toolbox           |
|  \\    /   O peration     | Version:  2306                                  |
|   \\  /    A nd           | Website:  www.openfoam.com                      |
|    \\/     M anipulation  |                                                 |
\*---------------------------------------------------------------------------*/
FoamFile
{
    version     2.0;
    format      ascii;
    arch        "LSB;label=32;scalar=64";
    class       volScalarField;
    location    "6.5";
    object      T;
}
// * * * * * * * * * * * * * * * * * * * * * * * * * * * * * * * * * * * * * //

dimensions      [0 0 0 1 0 0 0];

internalField   nonuniform List<scalar> 
32768
(
300
300
300
300
300
300
300
300
300
300
300
300
300
300
300
300
300
300
300
300
300
300
300
300
300
300
300
300
300
300
300
300
300
300
300
300
300
300
300
300
300
300
300
300
300
300
300
300
300
300
300
300
300
300
300
300
300
300
300
300
300
300
300
300
300
300
300
300
300
300
300
300
300
300
299.999
299.999
299.999
299.999
299.999
299.999
299.999
299.998
299.998
299.998
299.997
299.997
299.997
299.996
299.996
299.995
299.994
299.994
299.993
299.992
299.991
299.99
299.988
299.987
299.986
299.984
299.982
299.98
299.978
299.976
299.973
299.97
299.967
299.964
299.96
299.957
299.953
299.948
299.943
299.938
299.933
299.927
299.921
299.914
299.907
299.9
299.892
299.883
299.874
299.865
299.855
299.844
299.833
299.821
299.809
299.796
299.783
299.768
299.753
299.738
299.721
299.704
299.687
299.668
299.649
299.629
299.608
299.586
299.564
299.541
299.517
299.492
299.466
299.44
299.412
299.384
299.355
299.325
299.294
299.262
299.23
299.196
299.161
299.125
299.089
299.051
299.012
298.972
298.931
298.888
298.844
298.799
298.752
298.703
298.652
298.6
298.545
298.487
298.426
298.362
298.293
298.221
298.143
298.06
297.97
297.872
297.765
297.648
297.519
297.377
297.219
297.043
296.847
296.628
296.383
296.108
295.799
295.452
295.063
294.627
294.138
293.591
292.979
292.297
291.538
290.694
289.759
288.725
287.586
286.333
284.958
283.456
281.818
280.038
278.109
276.025
273.781
271.371
268.791
266.037
263.107
259.999
256.713
253.247
249.604
245.785
241.795
237.636
233.315
228.838
224.212
219.446
214.548
209.528
204.398
199.166
193.845
188.445
182.974
177.438
171.839
166.166
160.388
154.438
148.177
141.334
133.39
123.364
109.411
88.0648
52.8396
-8.39891
-118.329
-319.311
-690.421
-1379.2
-2660.77
-5047.95
-9495.98
-17783.3
-33219
-61956.1
300
300
300
300
300
300
300
300
300
300
300
300
300
300
300
300
300
300
300
300
300
300
300
300
300
300
300
300
300
300
300
300
300
300
300
300
300
300
300
300
300
300
300
300
300
300
300
300
300
300
300
300
300
300
300
300
300
300
300
300
300
300
300
300
300
300
300
300
300
300
300
300
300
299.999
299.999
299.999
299.999
299.999
299.999
299.999
299.998
299.998
299.998
299.998
299.997
299.997
299.996
299.996
299.995
299.994
299.994
299.993
299.992
299.991
299.99
299.989
299.987
299.986
299.984
299.982
299.98
299.978
299.976
299.973
299.971
299.968
299.964
299.961
299.957
299.953
299.949
299.944
299.939
299.933
299.928
299.922
299.915
299.908
299.901
299.893
299.884
299.875
299.866
299.856
299.845
299.834
299.823
299.811
299.798
299.784
299.77
299.755
299.74
299.724
299.707
299.689
299.671
299.652
299.632
299.611
299.59
299.568
299.545
299.521
299.497
299.471
299.445
299.418
299.39
299.362
299.332
299.302
299.27
299.238
299.205
299.171
299.136
299.1
299.063
299.025
298.986
298.945
298.904
298.861
298.817
298.772
298.724
298.675
298.625
298.572
298.516
298.459
298.398
298.333
298.265
298.193
298.115
298.032
297.941
297.843
297.737
297.62
297.491
297.349
297.191
297.015
296.819
296.6
296.355
296.079
295.77
295.424
295.035
294.598
294.109
293.562
292.95
292.268
291.508
290.664
289.729
288.695
287.555
286.302
284.927
283.424
281.786
280.006
278.076
275.992
273.747
271.336
268.755
266.001
263.071
259.962
256.675
253.209
249.565
245.746
241.755
237.595
233.274
228.796
224.17
219.403
214.505
209.485
204.354
199.123
193.802
188.401
182.93
177.394
171.795
166.121
160.344
154.394
148.134
141.291
133.348
123.324
109.372
88.0298
52.81
-8.41959
-118.336
-319.295
-690.368
-1379.09
-2660.59
-5047.69
-9495.66
-17783.1
-33219.3
-61958.2
300
300
300
300
300
300
300
300
300
300
300
300
300
300
300
300
300
300
300
300
300
300
300
300
300
300
300
300
300
300
300
300
300
300
300
300
300
300
300
300
300
300
300
300
300
300
300
300
300
300
300
300
300
300
300
300
300
300
300
300
300
300
300
300
300
300
300
300
300
300
300
300
299.999
299.999
299.999
299.999
299.999
299.999
299.999
299.998
299.998
299.998
299.997
299.997
299.997
299.996
299.996
299.995
299.994
299.993
299.993
299.992
299.99
299.989
299.988
299.987
299.985
299.983
299.981
299.979
299.977
299.974
299.972
299.969
299.966
299.962
299.958
299.954
299.95
299.946
299.941
299.935
299.93
299.924
299.917
299.91
299.903
299.895
299.887
299.878
299.869
299.859
299.849
299.838
299.826
299.814
299.801
299.788
299.774
299.76
299.744
299.728
299.712
299.694
299.676
299.658
299.638
299.618
299.597
299.575
299.553
299.53
299.506
299.481
299.455
299.429
299.402
299.374
299.345
299.316
299.285
299.254
299.222
299.189
299.155
299.12
299.085
299.048
299.011
298.972
298.932
298.892
298.85
298.807
298.762
298.716
298.669
298.62
298.569
298.515
298.46
298.402
298.341
298.277
298.208
298.136
298.058
297.975
297.885
297.787
297.68
297.563
297.434
297.292
297.134
296.959
296.763
296.544
296.298
296.023
295.714
295.368
294.978
294.542
294.053
293.506
292.894
292.211
291.451
290.607
289.672
288.638
287.497
286.244
284.869
283.366
281.727
279.946
278.016
275.931
273.686
271.274
268.693
265.938
263.007
259.898
256.61
253.144
249.5
245.68
241.688
237.529
233.207
228.729
224.102
219.335
214.436
209.416
204.285
199.054
193.732
188.332
182.86
177.325
171.726
166.053
160.276
154.327
148.067
141.225
133.284
123.262
109.314
87.9774
52.7672
-8.44689
-118.338
-319.257
-690.271
-1378.91
-2660.3
-5047.27
-9495.22
-17782.9
-33220.4
-61963.1
300
300
300
300
300
300
300
300
300
300
300
300
300
300
300
300
300
300
300
300
300
300
300
300
300
300
300
300
300
300
300
300
300
300
300
300
300
300
300
300
300
300
300
300
300
300
300
300
300
300
300
300
300
300
300
300
300
300
300
300
300
300
300
300
300
300
300
300
300
300
300
299.999
299.999
299.999
299.999
299.999
299.999
299.998
299.998
299.998
299.998
299.997
299.997
299.996
299.996
299.995
299.994
299.993
299.993
299.992
299.991
299.989
299.988
299.986
299.985
299.983
299.981
299.979
299.977
299.974
299.971
299.968
299.965
299.962
299.958
299.954
299.949
299.944
299.939
299.934
299.928
299.922
299.915
299.908
299.9
299.892
299.884
299.875
299.865
299.855
299.844
299.833
299.821
299.809
299.796
299.782
299.768
299.753
299.737
299.721
299.704
299.687
299.668
299.649
299.63
299.609
299.588
299.566
299.543
299.52
299.496
299.471
299.446
299.419
299.392
299.364
299.336
299.306
299.276
299.245
299.214
299.181
299.148
299.114
299.079
299.043
299.007
298.969
298.931
298.891
298.851
298.81
298.767
298.723
298.678
298.632
298.584
298.535
298.483
298.43
298.374
298.316
298.255
298.191
298.122
298.05
297.972
297.889
297.799
297.701
297.594
297.477
297.349
297.207
297.049
296.873
296.678
296.459
296.214
295.939
295.63
295.283
294.894
294.458
293.969
293.421
292.81
292.127
291.367
290.523
289.587
288.553
287.412
286.158
284.783
283.28
281.641
279.859
277.929
275.843
273.597
271.185
268.604
265.848
262.917
259.807
256.519
253.052
249.407
245.587
241.594
237.434
233.112
228.634
224.007
219.24
214.341
209.321
204.19
198.958
193.637
188.236
182.765
177.23
171.631
165.959
160.183
154.234
147.975
141.135
133.196
123.178
109.235
87.9067
52.7101
-8.482
-118.338
-319.201
-690.13
-1378.64
-2659.88
-5046.71
-9494.65
-17782.9
-33222.4
-61970.6
300
300
300
300
300
300
300
300
300
300
300
300
300
300
300
300
300
300
300
300
300
300
300
300
300
300
300
300
300
300
300
300
300
300
300
300
300
300
300
300
300
300
300
300
300
300
300
300
300
300
300
300
300
300
300
300
300
300
300
300
300
300
300
300
300
300
300
300
300
299.999
299.999
299.999
299.999
299.999
299.999
299.998
299.998
299.998
299.998
299.997
299.997
299.996
299.996
299.995
299.994
299.993
299.992
299.991
299.99
299.989
299.988
299.986
299.984
299.982
299.98
299.978
299.976
299.973
299.97
299.967
299.963
299.959
299.955
299.951
299.946
299.941
299.936
299.93
299.923
299.917
299.91
299.902
299.894
299.885
299.876
299.866
299.856
299.845
299.834
299.822
299.81
299.796
299.783
299.768
299.753
299.737
299.721
299.704
299.686
299.667
299.648
299.628
299.607
299.586
299.564
299.541
299.518
299.494
299.469
299.443
299.417
299.39
299.362
299.334
299.304
299.275
299.244
299.213
299.181
299.148
299.115
299.081
299.046
299.011
298.974
298.937
298.9
298.861
298.821
298.781
298.74
298.698
298.654
298.61
298.565
298.518
298.469
298.42
298.368
298.314
298.258
298.2
298.139
298.074
298.006
297.933
297.856
297.773
297.683
297.585
297.479
297.362
297.234
297.092
296.934
296.759
296.564
296.345
296.1
295.825
295.517
295.17
294.781
294.345
293.856
293.309
292.697
292.015
291.255
290.411
289.475
288.44
287.3
286.045
284.67
283.166
281.526
279.745
277.814
275.728
273.481
271.069
268.486
265.73
262.798
259.688
256.399
252.931
249.286
245.466
241.473
237.313
232.99
228.512
223.884
219.117
214.218
209.198
204.067
198.836
193.514
188.114
182.644
177.109
171.511
165.839
160.063
154.116
147.859
141.021
133.085
123.07
109.135
87.8172
52.6382
-8.52527
-118.335
-319.126
-689.946
-1378.31
-2659.35
-5046
-9493.95
-17782.9
-33225.1
-61981
300
300
300
300
300
300
300
300
300
300
300
300
300
300
300
300
300
300
300
300
300
300
300
300
300
300
300
300
300
300
300
300
300
300
300
300
300
300
300
300
300
300
300
300
300
300
300
300
300
300
300
300
300
300
300
300
300
300
300
300
300
300
300
300
300
300
300
299.999
299.999
299.999
299.999
299.999
299.999
299.998
299.998
299.998
299.998
299.997
299.997
299.996
299.995
299.995
299.994
299.993
299.992
299.991
299.99
299.988
299.987
299.985
299.983
299.981
299.979
299.977
299.974
299.971
299.968
299.964
299.961
299.956
299.952
299.947
299.942
299.936
299.93
299.924
299.917
299.91
299.902
299.893
299.885
299.875
299.865
299.854
299.843
299.831
299.819
299.806
299.792
299.778
299.763
299.747
299.73
299.713
299.695
299.677
299.657
299.637
299.617
299.595
299.573
299.55
299.526
299.502
299.477
299.451
299.425
299.398
299.37
299.342
299.313
299.283
299.252
299.221
299.19
299.157
299.125
299.091
299.057
299.022
298.987
298.951
298.914
298.877
298.839
298.801
298.761
298.721
298.681
298.639
298.597
298.554
298.51
298.465
298.419
298.371
298.323
298.272
298.22
298.166
298.11
298.052
297.991
297.926
297.858
297.786
297.708
297.625
297.535
297.438
297.332
297.216
297.088
296.946
296.789
296.614
296.419
296.201
295.956
295.682
295.374
295.028
294.639
294.203
293.715
293.168
292.556
291.874
291.114
290.269
289.334
288.299
287.158
285.903
284.528
283.023
281.384
279.601
277.67
275.583
273.336
270.923
268.34
265.584
262.651
259.54
256.251
252.783
249.137
245.316
241.323
237.162
232.839
228.361
223.733
218.966
214.067
209.047
203.916
198.685
193.364
187.964
182.494
176.96
171.363
165.692
159.918
153.972
147.716
140.881
132.948
122.94
109.012
87.7081
52.5509
-8.57724
-118.33
-319.033
-689.718
-1377.89
-2658.69
-5045.13
-9493.12
-17783
-33228.6
-61994.1
300
300
300
300
300
300
300
300
300
300
300
300
300
300
300
300
300
300
300
300
300
300
300
300
300
300
300
300
300
300
300
300
300
300
300
300
300
300
300
300
300
300
300
300
300
300
300
300
300
300
300
300
300
300
300
300
300
300
300
300
300
300
300
300
300
299.999
299.999
299.999
299.999
299.999
299.999
299.998
299.998
299.998
299.997
299.997
299.997
299.996
299.995
299.995
299.994
299.993
299.992
299.991
299.989
299.988
299.986
299.984
299.982
299.98
299.978
299.975
299.972
299.969
299.965
299.961
299.957
299.953
299.948
299.942
299.937
299.931
299.924
299.917
299.909
299.901
299.892
299.883
299.873
299.862
299.851
299.839
299.827
299.814
299.8
299.785
299.77
299.754
299.737
299.719
299.701
299.682
299.662
299.641
299.62
299.598
299.575
299.551
299.527
299.502
299.476
299.449
299.422
299.394
299.365
299.336
299.306
299.275
299.244
299.212
299.18
299.147
299.113
299.079
299.044
299.009
298.973
298.937
298.9
298.863
298.826
298.787
298.749
298.709
298.67
298.63
298.589
298.547
298.506
298.463
298.42
298.376
298.331
298.285
298.238
298.19
298.141
298.091
298.038
297.984
297.928
297.87
297.809
297.744
297.676
297.604
297.527
297.445
297.355
297.258
297.153
297.037
296.91
296.769
296.612
296.438
296.243
296.026
295.782
295.508
295.2
294.855
294.467
294.031
293.543
292.996
292.385
291.703
290.943
290.099
289.163
288.128
286.987
285.732
284.356
282.852
281.211
279.429
277.497
275.41
273.162
270.748
268.165
265.408
262.474
259.363
256.073
252.604
248.958
245.137
241.144
236.983
232.659
228.181
223.553
218.786
213.887
208.867
203.737
198.506
193.186
187.786
182.317
176.784
171.187
165.518
159.745
153.801
147.547
140.715
132.786
122.784
108.867
87.5789
52.4476
-8.63864
-118.324
-318.922
-689.448
-1377.39
-2657.92
-5044.1
-9492.15
-17783.2
-33232.9
-62009.9
300
300
300
300
300
300
300
300
300
300
300
300
300
300
300
300
300
300
300
300
300
300
300
300
300
300
300
300
300
300
300
300
300
300
300
300
300
300
300
300
300
300
300
300
300
300
300
300
300
300
300
300
300
300
300
300
300
300
300
300
300
300
300
300
299.999
299.999
299.999
299.999
299.999
299.999
299.998
299.998
299.997
299.997
299.997
299.996
299.995
299.994
299.994
299.993
299.991
299.99
299.989
299.987
299.985
299.983
299.981
299.979
299.976
299.973
299.97
299.966
299.963
299.958
299.954
299.949
299.943
299.937
299.931
299.924
299.916
299.908
299.9
299.891
299.881
299.87
299.859
299.847
299.834
299.821
299.807
299.792
299.776
299.76
299.743
299.725
299.706
299.686
299.665
299.643
299.621
299.598
299.574
299.549
299.523
299.497
299.469
299.441
299.412
299.382
299.352
299.321
299.289
299.257
299.224
299.19
299.156
299.121
299.086
299.05
299.013
298.976
298.939
298.901
298.863
298.825
298.786
298.747
298.707
298.667
298.627
298.586
298.546
298.504
298.463
298.421
298.378
298.335
298.292
298.248
298.204
298.159
298.114
298.067
298.02
297.972
297.922
297.872
297.819
297.766
297.71
297.652
297.591
297.527
297.459
297.388
297.311
297.229
297.141
297.044
296.94
296.825
296.698
296.558
296.402
296.229
296.035
295.818
295.575
295.302
294.995
294.65
294.263
293.828
293.34
292.794
292.183
291.501
290.741
289.897
288.962
287.927
286.786
285.531
284.154
282.65
281.009
279.226
277.293
275.206
272.957
270.543
267.959
265.201
262.267
259.155
255.865
252.395
248.749
244.927
240.933
236.772
232.449
227.97
223.343
218.575
213.677
208.657
203.527
198.297
192.977
187.578
182.11
176.578
170.982
165.314
159.543
153.601
147.35
140.521
132.598
122.603
108.698
87.4284
52.3272
-8.71034
-118.318
-318.793
-689.135
-1376.82
-2657.02
-5042.91
-9491.04
-17783.4
-33237.9
-62028.4
300
300
300
300
300
300
300
300
300
300
300
300
300
300
300
300
300
300
300
300
300
300
300
300
300
300
300
300
300
300
300
300
300
300
300
300
300
300
300
300
300
300
300
300
300
300
300
300
300
300
300
300
300
300
300
300
300
300
300
300
300
300
299.999
299.999
299.999
299.999
299.999
299.999
299.998
299.998
299.998
299.997
299.997
299.996
299.995
299.994
299.993
299.992
299.991
299.99
299.988
299.987
299.985
299.983
299.98
299.978
299.975
299.971
299.968
299.964
299.96
299.955
299.95
299.944
299.938
299.931
299.924
299.916
299.908
299.899
299.889
299.879
299.868
299.856
299.843
299.83
299.816
299.8
299.784
299.767
299.75
299.731
299.711
299.69
299.669
299.646
299.623
299.598
299.573
299.546
299.519
299.49
299.461
299.431
299.4
299.368
299.335
299.302
299.267
299.232
299.197
299.16
299.123
299.085
299.047
299.008
298.969
298.929
298.889
298.849
298.808
298.767
298.725
298.684
298.642
298.6
298.557
298.515
298.472
298.429
298.386
298.343
298.3
298.256
298.213
298.169
298.125
298.081
298.037
297.992
297.947
297.901
297.855
297.808
297.761
297.712
297.663
297.612
297.56
297.507
297.452
297.394
297.334
297.271
297.204
297.133
297.058
296.977
296.889
296.794
296.69
296.576
296.451
296.312
296.157
295.985
295.792
295.577
295.334
295.062
294.756
294.412
294.026
293.592
293.105
292.559
291.949
291.267
290.508
289.664
288.729
287.694
286.553
285.298
283.921
282.416
280.775
278.991
277.058
274.97
272.721
270.306
267.721
264.963
262.028
258.916
255.624
252.155
248.507
244.685
240.691
236.53
232.206
227.727
223.1
218.333
213.435
208.415
203.286
198.056
192.737
187.339
181.872
176.341
170.747
165.081
159.311
153.372
147.124
140.299
132.382
122.396
108.504
87.2557
52.1888
-8.79341
-118.313
-318.649
-688.781
-1376.17
-2656
-5041.57
-9489.79
-17783.7
-33243.7
-62049.6
300
300
300
300
300
300
300
300
300
300
300
300
300
300
300
300
300
300
300
300
300
300
300
300
300
300
300
300
300
300
300
300
300
300
300
300
300
300
300
300
300
300
300
300
300
300
300
300
300
300
300
300
300
300
300
300
300
300
300
300
300
299.999
299.999
299.999
299.999
299.999
299.998
299.998
299.998
299.997
299.997
299.996
299.995
299.994
299.993
299.992
299.991
299.99
299.988
299.986
299.984
299.982
299.979
299.976
299.973
299.97
299.966
299.961
299.957
299.951
299.946
299.939
299.933
299.925
299.917
299.908
299.899
299.889
299.878
299.866
299.854
299.84
299.826
299.811
299.795
299.777
299.759
299.74
299.719
299.698
299.675
299.652
299.627
299.601
299.574
299.546
299.517
299.486
299.455
299.422
299.389
299.354
299.319
299.282
299.245
299.206
299.167
299.127
299.086
299.045
299.003
298.96
298.917
298.873
298.829
298.784
298.739
298.694
298.649
298.603
298.557
298.511
298.465
298.419
298.373
298.327
298.281
298.235
298.189
298.143
298.097
298.051
298.006
297.96
297.915
297.87
297.824
297.779
297.734
297.688
297.642
297.596
297.55
297.503
297.456
297.408
297.359
297.309
297.258
297.205
297.151
297.094
297.035
296.973
296.908
296.838
296.764
296.684
296.598
296.505
296.402
296.29
296.166
296.028
295.875
295.705
295.514
295.299
295.058
294.788
294.483
294.14
293.755
293.322
292.836
292.291
291.681
291
290.242
289.398
288.463
287.428
286.287
285.032
283.655
282.15
280.508
278.724
276.79
274.702
272.452
270.036
267.451
264.691
261.756
258.643
255.351
251.88
248.233
244.41
240.416
236.254
231.93
227.451
222.824
218.057
213.159
208.14
203.011
197.782
192.464
187.068
181.601
176.072
170.48
164.815
159.048
153.111
146.867
140.048
132.137
122.161
108.283
87.0594
52.0309
-8.88909
-118.309
-318.489
-688.387
-1375.44
-2654.87
-5040.07
-9488.4
-17784
-33250.2
-62073.5
300
300
300
300
300
300
300
300
300
300
300
300
300
300
300
300
300
300
300
300
300
300
300
300
300
300
300
300
300
300
300
300
300
300
300
300
300
300
300
300
300
300
300
300
300
300
300
300
300
300
300
300
300
300
300
300
300
300
300
299.999
299.999
299.999
299.999
299.999
299.998
299.998
299.998
299.997
299.997
299.996
299.995
299.994
299.993
299.992
299.991
299.989
299.988
299.986
299.983
299.981
299.978
299.975
299.972
299.968
299.964
299.959
299.954
299.948
299.942
299.935
299.927
299.919
299.91
299.9
299.89
299.878
299.866
299.853
299.839
299.824
299.807
299.79
299.771
299.752
299.731
299.709
299.686
299.661
299.635
299.608
299.58
299.55
299.519
299.486
299.453
299.418
299.382
299.344
299.305
299.265
299.224
299.182
299.139
299.095
299.05
299.004
298.957
298.909
298.861
298.812
298.762
298.712
298.662
298.611
298.56
298.509
298.458
298.406
298.355
298.303
298.252
298.201
298.15
298.099
298.049
297.998
297.948
297.899
297.85
297.801
297.753
297.705
297.657
297.61
297.563
297.516
297.47
297.424
297.378
297.332
297.286
297.24
297.194
297.148
297.101
297.054
297.006
296.957
296.907
296.856
296.803
296.748
296.691
296.631
296.567
296.499
296.427
296.35
296.265
296.174
296.074
295.963
295.841
295.706
295.555
295.386
295.197
294.984
294.745
294.476
294.173
293.832
293.448
293.016
292.531
291.987
291.378
290.698
289.94
289.098
288.163
287.128
285.987
284.732
283.355
281.849
280.207
278.423
276.488
274.399
272.148
269.732
267.145
264.385
261.449
258.335
255.042
251.571
247.923
244.1
240.105
235.943
231.619
227.14
222.513
217.746
212.848
207.83
202.702
197.474
192.157
186.762
181.297
175.769
170.179
164.517
158.752
152.819
146.579
139.764
131.861
121.896
108.036
86.8381
51.8524
-8.99877
-118.308
-318.316
-687.954
-1374.65
-2653.61
-5038.42
-9486.87
-17784.4
-33257.5
-62100.1
300
300
300
300
300
300
300
300
300
300
300
300
300
300
300
300
300
300
300
300
300
300
300
300
300
300
300
300
300
300
300
300
300
300
300
300
300
300
300
300
300
300
300
300
300
300
300
300
300
300
300
300
300
300
300
300
300
300
299.999
299.999
299.999
299.999
299.999
299.998
299.998
299.997
299.997
299.996
299.995
299.994
299.993
299.992
299.991
299.989
299.987
299.985
299.983
299.98
299.977
299.974
299.97
299.966
299.962
299.956
299.951
299.944
299.937
299.93
299.922
299.912
299.902
299.892
299.88
299.867
299.853
299.839
299.823
299.806
299.787
299.768
299.747
299.724
299.701
299.675
299.649
299.621
299.591
299.56
299.527
299.493
299.457
299.42
299.381
299.34
299.298
299.255
299.21
299.164
299.116
299.068
299.017
298.966
298.914
298.861
298.806
298.751
298.695
298.639
298.582
298.524
298.466
298.408
298.349
298.291
298.232
298.173
298.115
298.057
297.999
297.941
297.884
297.827
297.771
297.715
297.66
297.606
297.552
297.499
297.447
297.396
297.345
297.295
297.245
297.197
297.149
297.101
297.055
297.008
296.962
296.917
296.872
296.827
296.782
296.737
296.691
296.646
296.6
296.553
296.505
296.456
296.405
296.352
296.297
296.24
296.179
296.114
296.044
295.969
295.888
295.799
295.701
295.593
295.474
295.341
295.192
295.026
294.839
294.629
294.392
294.125
293.824
293.485
293.103
292.672
292.189
291.647
291.039
290.36
289.603
288.761
287.826
286.792
285.651
284.396
283.019
281.513
279.871
278.085
276.15
274.06
271.809
269.391
266.804
264.043
261.106
257.991
254.697
251.225
247.576
243.752
239.757
235.594
231.27
226.791
222.164
217.398
212.501
207.483
202.356
197.129
191.813
186.419
180.956
175.43
169.842
164.183
158.421
152.492
146.256
139.448
131.553
121.6
107.758
86.5903
51.6515
-9.12402
-118.313
-318.132
-687.485
-1373.78
-2652.25
-5036.61
-9485.19
-17784.8
-33265.5
-62129.2
300
300
300
300
300
300
300
300
300
300
300
300
300
300
300
300
300
300
300
300
300
300
300
300
300
300
300
300
300
300
300
300
300
300
300
300
300
300
300
300
300
300
300
300
300
300
300
300
300
300
300
300
300
300
300
300
299.999
299.999
299.999
299.999
299.999
299.998
299.998
299.997
299.997
299.996
299.996
299.995
299.994
299.992
299.991
299.989
299.987
299.985
299.983
299.98
299.977
299.973
299.969
299.965
299.96
299.954
299.948
299.941
299.934
299.925
299.916
299.906
299.895
299.883
299.87
299.856
299.84
299.824
299.806
299.787
299.766
299.744
299.72
299.695
299.668
299.639
299.609
299.577
299.543
299.507
299.469
299.43
299.389
299.346
299.301
299.254
299.205
299.155
299.103
299.049
298.994
298.937
298.879
298.819
298.758
298.696
298.633
298.569
298.504
298.438
298.372
298.305
298.238
298.17
298.102
298.035
297.967
297.9
297.832
297.766
297.699
297.634
297.569
297.505
297.441
297.379
297.317
297.257
297.197
297.139
297.082
297.026
296.971
296.917
296.864
296.813
296.762
296.713
296.665
296.617
296.571
296.525
296.48
296.436
296.392
296.349
296.306
296.263
296.22
296.177
296.134
296.09
296.045
295.999
295.951
295.902
295.85
295.796
295.738
295.677
295.611
295.539
295.461
295.376
295.282
295.177
295.061
294.932
294.786
294.623
294.439
294.232
293.998
293.733
293.435
293.098
292.718
292.29
291.808
291.267
290.661
289.984
289.227
288.386
287.452
286.419
285.278
284.023
282.646
281.139
279.496
277.71
275.775
273.683
271.431
269.013
266.424
263.662
260.724
257.608
254.313
250.84
247.19
243.366
239.37
235.207
230.883
226.403
221.777
217.01
212.114
207.097
201.971
196.745
191.431
186.038
180.577
175.054
169.468
163.812
158.054
152.128
145.898
139.096
131.211
121.272
107.45
86.3142
51.4267
-9.26656
-118.324
-317.938
-686.981
-1372.84
-2650.77
-5034.65
-9483.38
-17785.3
-33274.2
-62160.9
300
300
300
300
300
300
300
300
300
300
300
300
300
300
300
300
300
300
300
300
300
300
300
300
300
300
300
300
300
300
300
300
300
300
300
300
300
300
300
300
300
300
300
300
300
300
300
300
300
300
300
300
300
300
300
299.999
299.999
299.999
299.999
299.998
299.998
299.998
299.997
299.996
299.996
299.995
299.994
299.993
299.991
299.989
299.987
299.985
299.983
299.98
299.976
299.973
299.968
299.964
299.958
299.952
299.946
299.938
299.93
299.921
299.911
299.9
299.888
299.874
299.86
299.844
299.827
299.809
299.788
299.767
299.744
299.719
299.692
299.663
299.633
299.6
299.566
299.529
299.49
299.449
299.406
299.361
299.313
299.264
299.212
299.158
299.101
299.043
298.982
298.92
298.856
298.789
298.721
298.652
298.581
298.508
298.434
298.359
298.283
298.207
298.129
298.051
297.972
297.894
297.815
297.736
297.657
297.579
297.501
297.424
297.348
297.272
297.198
297.124
297.052
296.981
296.911
296.843
296.777
296.711
296.648
296.586
296.526
296.467
296.41
296.355
296.301
296.249
296.198
296.149
296.101
296.055
296.01
295.966
295.923
295.881
295.84
295.8
295.76
295.721
295.681
295.642
295.603
295.563
295.522
295.48
295.437
295.392
295.345
295.295
295.242
295.185
295.124
295.057
294.983
294.902
294.812
294.712
294.6
294.474
294.333
294.174
293.993
293.79
293.559
293.298
293.002
292.668
292.291
291.865
291.386
290.847
290.243
289.567
288.812
287.972
287.039
286.006
284.865
283.61
282.233
280.726
279.083
277.296
275.359
273.267
271.014
268.594
266.004
263.241
260.301
257.184
253.888
250.414
246.763
242.938
238.941
234.778
230.453
225.974
221.347
216.581
211.686
206.67
201.544
196.32
191.007
185.617
180.158
174.637
169.054
163.401
157.647
151.726
145.502
138.708
130.833
120.908
107.109
86.008
51.176
-9.42828
-118.344
-317.736
-686.446
-1371.83
-2649.18
-5032.54
-9481.43
-17785.8
-33283.6
-62195.2
300
300
300
300
300
300
300
300
300
300
300
300
300
300
300
300
300
300
300
300
300
300
300
300
300
300
300
300
300
300
300
300
300
300
300
300
300
300
300
300
300
300
300
300
300
300
300
300
300
300
300
300
300
299.999
299.999
299.999
299.999
299.999
299.998
299.998
299.997
299.997
299.996
299.995
299.994
299.993
299.991
299.99
299.988
299.985
299.983
299.98
299.976
299.972
299.968
299.963
299.957
299.951
299.944
299.936
299.927
299.917
299.906
299.894
299.881
299.866
299.85
299.833
299.814
299.793
299.771
299.747
299.721
299.693
299.662
299.63
299.596
299.559
299.52
299.478
299.434
299.387
299.338
299.286
299.231
299.174
299.114
299.051
298.986
298.919
298.848
298.776
298.701
298.624
298.544
298.463
298.38
298.295
298.208
298.12
298.031
297.941
297.85
297.759
297.667
297.574
297.482
297.39
297.298
297.206
297.115
297.026
296.937
296.849
296.763
296.678
296.594
296.513
296.433
296.355
296.28
296.206
296.135
296.065
295.998
295.933
295.871
295.81
295.752
295.696
295.643
295.591
295.541
295.494
295.448
295.404
295.362
295.321
295.282
295.244
295.207
295.171
295.136
295.102
295.068
295.034
295
294.965
294.93
294.894
294.857
294.818
294.777
294.733
294.685
294.634
294.578
294.517
294.449
294.373
294.289
294.194
294.087
293.967
293.83
293.675
293.5
293.3
293.074
292.816
292.525
292.194
291.82
291.397
290.921
290.384
289.782
289.108
288.355
287.516
286.584
285.551
284.411
283.156
281.779
280.272
278.628
276.84
274.903
272.809
270.554
268.133
265.542
262.777
259.836
256.718
253.42
249.945
246.293
242.467
238.469
234.305
229.98
225.501
220.874
216.108
211.213
206.198
201.074
195.851
190.54
185.152
179.696
174.178
168.598
162.949
157.2
151.284
145.066
138.281
130.417
120.508
106.734
85.6698
50.8974
-9.61122
-118.375
-317.529
-685.881
-1370.76
-2647.48
-5030.29
-9479.34
-17786.4
-33293.7
-62231.9
300
300
300
300
300
300
300
300
300
300
300
300
300
300
300
300
300
300
300
300
300
300
300
300
300
300
300
300
300
300
300
300
300
300
300
300
300
300
300
300
300
300
300
300
300
300
300
300
300
300
300
300
299.999
299.999
299.999
299.999
299.999
299.998
299.998
299.997
299.996
299.996
299.995
299.993
299.992
299.99
299.988
299.986
299.983
299.98
299.977
299.972
299.968
299.962
299.956
299.95
299.942
299.933
299.924
299.913
299.901
299.888
299.874
299.858
299.841
299.821
299.801
299.778
299.753
299.726
299.697
299.666
299.632
299.596
299.557
299.515
299.471
299.424
299.374
299.32
299.264
299.205
299.142
299.076
299.007
298.935
298.86
298.782
298.7
298.616
298.529
298.439
298.346
298.251
298.153
298.054
297.953
297.849
297.745
297.639
297.532
297.424
297.316
297.207
297.098
296.989
296.881
296.774
296.667
296.562
296.458
296.355
296.254
296.155
296.058
295.964
295.872
295.782
295.695
295.611
295.529
295.451
295.375
295.302
295.233
295.166
295.102
295.042
294.984
294.929
294.877
294.827
294.78
294.736
294.694
294.654
294.617
294.581
294.547
294.515
294.484
294.455
294.426
294.398
294.371
294.345
294.318
294.291
294.263
294.235
294.205
294.173
294.14
294.103
294.063
294.019
293.97
293.916
293.855
293.786
293.708
293.62
293.52
293.405
293.274
293.125
292.955
292.761
292.539
292.287
291.999
291.673
291.302
290.883
290.41
289.876
289.277
288.605
287.853
287.016
286.085
285.053
283.914
282.659
281.281
279.774
278.129
276.341
274.402
272.307
270.051
267.628
265.035
262.269
259.326
256.206
252.907
249.43
245.777
241.949
237.951
233.786
229.46
224.98
220.354
215.589
210.694
205.68
200.557
195.336
190.027
184.641
179.188
173.673
168.098
162.452
156.708
150.799
144.588
137.812
129.96
120.069
106.321
85.2974
50.589
-9.81758
-118.419
-317.319
-685.29
-1369.63
-2645.68
-5027.91
-9477.13
-17787
-33304.4
-62271
300
300
300
300
300
300
300
300
300
300
300
300
300
300
300
300
300
300
300
300
300
300
300
300
300
300
300
300
300
300
300
300
300
300
300
300
300
300
300
300
300
300
300
300
300
300
300
300
300
300
300
299.999
299.999
299.999
299.999
299.998
299.998
299.997
299.997
299.996
299.995
299.994
299.992
299.991
299.989
299.986
299.984
299.981
299.977
299.973
299.968
299.962
299.956
299.949
299.941
299.932
299.922
299.91
299.898
299.884
299.868
299.851
299.832
299.811
299.788
299.763
299.736
299.706
299.674
299.639
299.601
299.561