/*--------------------------------*- C++ -*----------------------------------*\
| =========                 |                                                 |
| \\      /  F ield         | OpenFOAM: The Open Source CFD Toolbox           |
|  \\    /   O peration     | Version:  2306                                  |
|   \\  /    A nd           | Website:  www.openfoam.com                      |
|    \\/     M anipulation  |                                                 |
\*---------------------------------------------------------------------------*/
FoamFile
{
    version     2.0;
    format      ascii;
    arch        "LSB;label=32;scalar=64";
    class       volVectorField;
    location    "6.5";
    object      U;
}
// * * * * * * * * * * * * * * * * * * * * * * * * * * * * * * * * * * * * * //

dimensions      [0 1 -1 0 0 0 0];

internalField   nonuniform List<vector> 
32768
(
(1.00001 -4.05e-05 0)
(1.00017 -0.000121707 0)
(1.00049 -0.000203069 0)
(1.00097 -0.000284589 0)
(1.00163 -0.000366372 0)
(1.00244 -0.000448516 0)
(1.00342 -0.000531086 0)
(1.00457 -0.00061414 0)
(1.00588 -0.000697738 0)
(1.00736 -0.000781943 0)
(1.00901 -0.000866812 0)
(1.01083 -0.000952394 0)
(1.01282 -0.00103873 0)
(1.01498 -0.00112586 0)
(1.01732 -0.00121382 0)
(1.01984 -0.00130261 0)
(1.02253 -0.00139226 0)
(1.02541 -0.00148276 0)
(1.02846 -0.0015741 0)
(1.0317 -0.00166626 0)
(1.03513 -0.00175922 0)
(1.03874 -0.00185292 0)
(1.04254 -0.00194731 0)
(1.04653 -0.00204231 0)
(1.05071 -0.00213784 0)
(1.05508 -0.00223381 0)
(1.05965 -0.00233009 0)
(1.0644 -0.00242655 0)
(1.06935 -0.00252306 0)
(1.0745 -0.00261945 0)
(1.07983 -0.00271555 0)
(1.08536 -0.00281118 0)
(1.09108 -0.00290614 0)
(1.09699 -0.00300021 0)
(1.10308 -0.00309318 0)
(1.10936 -0.00318481 0)
(1.11582 -0.00327486 0)
(1.12246 -0.00336308 0)
(1.12928 -0.00344923 0)
(1.13626 -0.00353304 0)
(1.14341 -0.00361427 0)
(1.15072 -0.00369265 0)
(1.15819 -0.00376794 0)
(1.1658 -0.0038399 0)
(1.17355 -0.00390829 0)
(1.18144 -0.00397288 0)
(1.18945 -0.00403347 0)
(1.19757 -0.00408987 0)
(1.20581 -0.00414189 0)
(1.21415 -0.00418939 0)
(1.22257 -0.00423222 0)
(1.23108 -0.00427029 0)
(1.23966 -0.00430349 0)
(1.2483 -0.00433177 0)
(1.25699 -0.00435509 0)
(1.26572 -0.00437345 0)
(1.27449 -0.00438684 0)
(1.28328 -0.00439532 0)
(1.29208 -0.00439894 0)
(1.30088 -0.00439779 0)
(1.30967 -0.00439198 0)
(1.31845 -0.00438162 0)
(1.3272 -0.00436686 0)
(1.33592 -0.00434786 0)
(1.3446 -0.00432479 0)
(1.35323 -0.00429782 0)
(1.36179 -0.00426715 0)
(1.3703 -0.00423298 0)
(1.37873 -0.00419548 0)
(1.38708 -0.00415488 0)
(1.39535 -0.00411136 0)
(1.40353 -0.00406511 0)
(1.41161 -0.00401633 0)
(1.4196 -0.00396519 0)
(1.42748 -0.00391186 0)
(1.43525 -0.0038565 0)
(1.4429 -0.00379925 0)
(1.45045 -0.00374025 0)
(1.45787 -0.00367962 0)
(1.46517 -0.00361745 0)
(1.47234 -0.00355383 0)
(1.47938 -0.00348883 0)
(1.48629 -0.0034225 0)
(1.49307 -0.00335489 0)
(1.49971 -0.003286 0)
(1.50622 -0.00321584 0)
(1.51258 -0.00314441 0)
(1.51879 -0.00307168 0)
(1.52486 -0.00299762 0)
(1.53079 -0.00292219 0)
(1.53655 -0.00284532 0)
(1.54217 -0.00276696 0)
(1.54762 -0.00268703 0)
(1.55292 -0.00260546 0)
(1.55804 -0.00252218 0)
(1.56301 -0.0024371 0)
(1.56779 -0.00235016 0)
(1.57241 -0.00226126 0)
(1.57684 -0.00217035 0)
(1.58109 -0.00207736 0)
(1.58515 -0.00198222 0)
(1.58902 -0.00188488 0)
(1.59269 -0.00178531 0)
(1.59616 -0.00168346 0)
(1.59942 -0.00157933 0)
(1.60248 -0.00147289 0)
(1.60532 -0.00136416 0)
(1.60794 -0.00125315 0)
(1.61033 -0.0011399 0)
(1.6125 -0.00102443 0)
(1.61443 -0.000906819 0)
(1.61612 -0.000787126 0)
(1.61758 -0.000665436 0)
(1.61879 -0.000541844 0)
(1.61975 -0.000416455 0)
(1.62045 -0.000289389 0)
(1.6209 -0.000160773 0)
(1.6211 -3.07414e-05 0)
(1.62103 0.000100547 0)
(1.62069 0.00023294 0)
(1.6201 0.000366281 0)
(1.61923 0.0005004 0)
(1.61809 0.000635119 0)
(1.61669 0.00077026 0)
(1.61501 0.000905638 0)
(1.61306 0.00104107 0)
(1.61085 0.00117636 0)
(1.60836 0.00131131 0)
(1.6056 0.00144575 0)
(1.60257 0.00157946 0)
(1.59928 0.00171226 0)
(1.59572 0.00184396 0)
(1.5919 0.00197435 0)
(1.58782 0.00210325 0)
(1.58348 0.00223047 0)
(1.57889 0.00235581 0)
(1.57406 0.00247908 0)
(1.56897 0.0026001 0)
(1.56365 0.00271869 0)
(1.5581 0.00283466 0)
(1.55231 0.00294784 0)
(1.5463 0.00305804 0)
(1.54007 0.00316511 0)
(1.53364 0.00326886 0)
(1.52699 0.00336913 0)
(1.52015 0.00346577 0)
(1.51313 0.00355862 0)
(1.50591 0.00364753 0)
(1.49853 0.00373236 0)
(1.49098 0.00381298 0)
(1.48327 0.00388925 0)
(1.47542 0.00396106 0)
(1.46742 0.0040283 0)
(1.4593 0.00409087 0)
(1.45105 0.00414867 0)
(1.4427 0.00420162 0)
(1.43424 0.00424966 0)
(1.42569 0.00429272 0)
(1.41706 0.00433077 0)
(1.40836 0.00436377 0)
(1.3996 0.0043917 0)
(1.39079 0.00441456 0)
(1.38194 0.00443235 0)
(1.37306 0.0044451 0)
(1.36415 0.00445284 0)
(1.35524 0.00445563 0)
(1.34632 0.00445353 0)
(1.33742 0.00444662 0)
(1.32853 0.00443499 0)
(1.31967 0.00441873 0)
(1.31085 0.00439798 0)
(1.30208 0.00437285 0)
(1.29336 0.00434348 0)
(1.2847 0.00431002 0)
(1.27611 0.00427264 0)
(1.2676 0.00423148 0)
(1.25918 0.00418673 0)
(1.25085 0.00413857 0)
(1.24262 0.00408718 0)
(1.2345 0.00403276 0)
(1.22649 0.00397548 0)
(1.21859 0.00391556 0)
(1.21082 0.00385319 0)
(1.20318 0.00378856 0)
(1.19567 0.00372187 0)
(1.18829 0.00365333 0)
(1.18105 0.00358313 0)
(1.17395 0.00351145 0)
(1.167 0.0034385 0)
(1.1602 0.00336445 0)
(1.15354 0.00328949 0)
(1.14704 0.00321379 0)
(1.14069 0.00313753 0)
(1.13449 0.00306087 0)
(1.12844 0.00298396 0)
(1.12255 0.00290697 0)
(1.11681 0.00283004 0)
(1.11123 0.00275329 0)
(1.1058 0.00267687 0)
(1.10052 0.0026009 0)
(1.0954 0.00252548 0)
(1.09042 0.00245072 0)
(1.0856 0.00237673 0)
(1.08092 0.0023036 0)
(1.07638 0.0022314 0)
(1.07199 0.00216021 0)
(1.06774 0.00209009 0)
(1.06363 0.00202111 0)
(1.05966 0.00195331 0)
(1.05582 0.00188674 0)
(1.05211 0.00182142 0)
(1.04853 0.00175739 0)
(1.04508 0.00169466 0)
(1.04176 0.00163322 0)
(1.03855 0.00157307 0)
(1.03547 0.00151419 0)
(1.0325 0.00145651 0)
(1.02964 0.00139999 0)
(1.0269 0.00134453 0)
(1.02426 0.00129001 0)
(1.02174 0.00123631 0)
(1.01932 0.00118326 0)
(1.01701 0.00113069 0)
(1.0148 0.00107841 0)
(1.01269 0.00102623 0)
(1.01069 0.000973964 0)
(1.0088 0.000921465 0)
(1.00701 0.000868605 0)
(1.00533 0.000815315 0)
(1.00375 0.000761582 0)
(1.00228 0.000707463 0)
(1.00092 0.000653092 0)
(0.999669 0.000598676 0)
(0.998526 0.000544491 0)
(0.997492 0.000490876 0)
(0.996563 0.00043822 0)
(0.995739 0.00038694 0)
(0.995016 0.000337471 0)
(0.99439 0.000290241 0)
(0.993855 0.000245656 0)
(0.993407 0.000204081 0)
(0.993039 0.000165825 0)
(0.992744 0.000131137 0)
(0.992515 0.000100188 0)
(0.992344 7.30785e-05 0)
(0.992223 4.98327e-05 0)
(0.992144 3.0404e-05 0)
(0.992101 1.46851e-05 0)
(0.992086 2.50584e-06 0)
(0.992091 -6.32757e-06 0)
(0.992111 -1.20988e-05 0)
(0.992139 -1.49632e-05 0)
(0.992172 -1.55071e-05 0)
(0.992199 -1.31601e-05 0)
(0.992227 -1.05555e-05 0)
(0.992236 -1.51977e-06 0)
(1.00001 -0.000121676 0)
(1.00017 -0.000365344 0)
(1.00049 -0.000609388 0)
(1.00097 -0.000853944 0)
(1.00162 -0.00109929 0)
(1.00244 -0.00134569 0)
(1.00342 -0.00159335 0)
(1.00456 -0.00184246 0)
(1.00587 -0.00209322 0)
(1.00735 -0.0023458 0)
(1.009 -0.00260037 0)
(1.01082 -0.0028571 0)
(1.01281 -0.0031161 0)
(1.01497 -0.00337748 0)
(1.01731 -0.00364134 0)
(1.01982 -0.00390772 0)
(1.02252 -0.00417668 0)
(1.02539 -0.0044482 0)
(1.02845 -0.00472227 0)
(1.03169 -0.00499881 0)
(1.03511 -0.00527774 0)
(1.03872 -0.00555891 0)
(1.04252 -0.00584216 0)
(1.04651 -0.00612726 0)
(1.05069 -0.00641396 0)
(1.05506 -0.00670197 0)
(1.05963 -0.00699094 0)
(1.06438 -0.00728047 0)
(1.06933 -0.00757015 0)
(1.07448 -0.00785949 0)
(1.07982 -0.00814798 0)
(1.08535 -0.00843506 0)
(1.09107 -0.00872013 0)
(1.09698 -0.00900256 0)
(1.10308 -0.00928168 0)
(1.10936 -0.00955678 0)
(1.11583 -0.00982715 0)
(1.12247 -0.0100921 0)
(1.12929 -0.0103507 0)
(1.13628 -0.0106024 0)
(1.14344 -0.0108463 0)
(1.15076 -0.0110817 0)
(1.15823 -0.0113077 0)
(1.16585 -0.0115238 0)
(1.17361 -0.0117291 0)
(1.1815 -0.0119231 0)
(1.18952 -0.012105 0)
(1.19766 -0.0122744 0)
(1.20591 -0.0124305 0)
(1.21425 -0.0125731 0)
(1.22269 -0.0127017 0)
(1.23121 -0.0128159 0)
(1.2398 -0.0129156 0)
(1.24845 -0.0130004 0)
(1.25715 -0.0130704 0)
(1.2659 -0.0131254 0)
(1.27467 -0.0131655 0)
(1.28347 -0.0131908 0)
(1.29228 -0.0132016 0)
(1.30109 -0.013198 0)
(1.3099 -0.0131804 0)
(1.31869 -0.0131492 0)
(1.32745 -0.0131047 0)
(1.33618 -0.0130476 0)
(1.34486 -0.0129781 0)
(1.3535 -0.012897 0)
(1.36208 -0.0128048 0)
(1.37059 -0.0127021 0)
(1.37903 -0.0125894 0)
(1.38739 -0.0124674 0)
(1.39566 -0.0123366 0)
(1.40385 -0.0121977 0)
(1.41194 -0.0120511 0)
(1.41993 -0.0118975 0)
(1.42781 -0.0117374 0)
(1.43559 -0.0115712 0)
(1.44325 -0.0113993 0)
(1.4508 -0.0112222 0)
(1.45822 -0.0110402 0)
(1.46553 -0.0108536 0)
(1.4727 -0.0106626 0)
(1.47975 -0.0104676 0)
(1.48667 -0.0102685 0)
(1.49345 -0.0100656 0)
(1.50009 -0.00985895 0)
(1.5066 -0.00964848 0)
(1.51296 -0.00943419 0)
(1.51918 -0.00921602 0)
(1.52526 -0.00899387 0)
(1.53118 -0.0087676 0)
(1.53695 -0.00853703 0)
(1.54257 -0.00830199 0)
(1.54803 -0.00806225 0)
(1.55333 -0.0078176 0)
(1.55846 -0.0075678 0)
(1.56343 -0.00731262 0)
(1.56822 -0.00705183 0)
(1.57284 -0.00678519 0)
(1.57727 -0.00651249 0)
(1.58153 -0.00623353 0)
(1.58559 -0.00594813 0)
(1.58947 -0.00565613 0)
(1.59314 -0.00535741 0)
(1.59662 -0.00505187 0)
(1.59989 -0.00473944 0)
(1.60295 -0.0044201 0)
(1.60579 -0.00409387 0)
(1.60841 -0.00376078 0)
(1.61081 -0.00342094 0)
(1.61298 -0.00307446 0)
(1.61492 -0.00272153 0)
(1.61662 -0.00236234 0)
(1.61808 -0.00199715 0)
(1.61929 -0.00162625 0)
(1.62025 -0.00124995 0)
(1.62096 -0.0008686 0)
(1.62142 -0.000482597 0)
(1.62161 -9.23476e-05 0)
(1.62154 0.000301689 0)
(1.62121 0.000699051 0)
(1.62061 0.00109926 0)
(1.61975 0.0015018 0)
(1.61861 0.00190615 0)
(1.61721 0.00231177 0)
(1.61553 0.0027181 0)
(1.61358 0.00312458 0)
(1.61136 0.00353064 0)
(1.60887 0.00393571 0)
(1.60611 0.00433921 0)
(1.60308 0.00474055 0)
(1.59979 0.00513915 0)
(1.59623 0.00553443 0)
(1.5924 0.0059258 0)
(1.58832 0.00631269 0)
(1.58398 0.00669452 0)
(1.57938 0.00707072 0)
(1.57454 0.00744072 0)
(1.56945 0.00780396 0)
(1.56412 0.0081599 0)
(1.55856 0.00850798 0)
(1.55277 0.00884768 0)
(1.54675 0.00917845 0)
(1.54052 0.00949979 0)
(1.53407 0.00981118 0)
(1.52742 0.0101121 0)
(1.52057 0.0104022 0)
(1.51353 0.0106809 0)
(1.50631 0.0109477 0)
(1.49892 0.0112023 0)
(1.49136 0.0114443 0)
(1.48364 0.0116732 0)
(1.47577 0.0118887 0)
(1.46777 0.0120905 0)
(1.45963 0.0122783 0)
(1.45137 0.0124518 0)
(1.44301 0.0126107 0)
(1.43454 0.0127548 0)
(1.42598 0.012884 0)
(1.41734 0.0129982 0)
(1.40863 0.0130971 0)
(1.39985 0.0131809 0)
(1.39103 0.0132495 0)
(1.38217 0.0133028 0)
(1.37327 0.013341 0)
(1.36435 0.0133641 0)
(1.35543 0.0133724 0)
(1.3465 0.013366 0)
(1.33759 0.0133452 0)
(1.32869 0.0133101 0)
(1.31982 0.0132612 0)
(1.31099 0.0131988 0)
(1.3022 0.0131233 0)
(1.29347 0.013035 0)
(1.2848 0.0129345 0)
(1.27621 0.0128221 0)
(1.26769 0.0126985 0)
(1.25926 0.0125641 0)
(1.25092 0.0124194 0)
(1.24268 0.012265 0)
(1.23455 0.0121015 0)
(1.22653 0.0119295 0)
(1.21863 0.0117495 0)
(1.21085 0.0115622 0)
(1.2032 0.0113681 0)
(1.19569 0.0111679 0)
(1.1883 0.0109621 0)
(1.18106 0.0107512 0)
(1.17396 0.010536 0)
(1.167 0.010317 0)
(1.1602 0.0100947 0)
(1.15354 0.00986961 0)
(1.14703 0.00964235 0)
(1.14068 0.0094134 0)
(1.13448 0.00918327 0)
(1.12843 0.00895241 0)
(1.12254 0.0087213 0)
(1.1168 0.00849036 0)
(1.11121 0.00826001 0)
(1.10578 0.00803063 0)
(1.10051 0.00780259 0)
(1.09538 0.00757623 0)
(1.0904 0.00735188 0)
(1.08558 0.00712982 0)
(1.0809 0.00691033 0)
(1.07636 0.00669365 0)
(1.07197 0.00648001 0)
(1.06773 0.0062696 0)
(1.06362 0.0060626 0)
(1.05965 0.00585915 0)
(1.05581 0.00565939 0)
(1.0521 0.00546341 0)
(1.04853 0.00527129 0)
(1.04508 0.00508305 0)
(1.04175 0.00489872 0)
(1.03855 0.00471826 0)
(1.03546 0.00454158 0)
(1.0325 0.00436855 0)
(1.02964 0.00419897 0)
(1.0269 0.00403258 0)
(1.02427 0.00386904 0)
(1.02175 0.00370794 0)
(1.01933 0.00354881 0)
(1.01702 0.00339111 0)
(1.01481 0.00323428 0)
(1.01271 0.00307776 0)
(1.01071 0.002921 0)
(1.00882 0.00276353 0)
(1.00703 0.00260499 0)
(1.00535 0.00244516 0)
(1.00377 0.00228401 0)
(1.0023 0.00212171 0)
(1.00095 0.00195865 0)
(0.999695 0.00179545 0)
(0.998553 0.00163295 0)
(0.99752 0.00147217 0)
(0.996592 0.00131425 0)
(0.995769 0.00116047 0)
(0.995046 0.00101211 0)
(0.99442 0.000870477 0)
(0.993886 0.000736769 0)
(0.993438 0.000612088 0)
(0.993071 0.000497364 0)
(0.992776 0.000393335 0)
(0.992546 0.000300523 0)
(0.992375 0.000219225 0)
(0.992254 0.000149515 0)
(0.992175 9.1253e-05 0)
(0.992132 4.41164e-05 0)
(0.992116 7.59808e-06 0)
(0.992121 -1.88901e-05 0)
(0.992141 -3.61868e-05 0)
(0.992168 -4.47801e-05 0)
(0.992201 -4.63858e-05 0)
(0.992228 -3.93696e-05 0)
(0.992256 -3.15036e-05 0)
(0.992265 -4.44785e-06 0)
(1.00001 -0.00020288 0)
(1.00017 -0.00060886 0)
(1.00049 -0.00101538 0)
(1.00097 -0.00142282 0)
(1.00162 -0.00183158 0)
(1.00244 -0.00224207 0)
(1.00341 -0.00265466 0)
(1.00456 -0.00306967 0)
(1.00587 -0.00348744 0)
(1.00734 -0.00390827 0)
(1.00899 -0.00433244 0)
(1.0108 -0.00476022 0)
(1.01279 -0.00519181 0)
(1.01495 -0.0056274 0)
(1.01729 -0.00606714 0)
(1.0198 -0.00651114 0)
(1.02249 -0.00695944 0)
(1.02536 -0.00741206 0)
(1.02841 -0.00786896 0)
(1.03165 -0.00833003 0)
(1.03507 -0.0087951 0)
(1.03868 -0.00926397 0)
(1.04248 -0.00973634 0)
(1.04647 -0.0102118 0)
(1.05065 -0.0106901 0)
(1.05502 -0.0111705 0)
(1.05958 -0.0116526 0)
(1.06434 -0.0121357 0)
(1.0693 -0.0126191 0)
(1.07444 -0.0131019 0)
(1.07978 -0.0135834 0)
(1.08532 -0.0140626 0)
(1.09104 -0.0145385 0)
(1.09696 -0.01501 0)
(1.10306 -0.015476 0)
(1.10936 -0.0159353 0)
(1.11583 -0.0163868 0)
(1.12249 -0.0168292 0)
(1.12932 -0.0172612 0)
(1.13632 -0.0176815 0)
(1.14349 -0.0180889 0)
(1.15082 -0.018482 0)
(1.15831 -0.0188596 0)
(1.16594 -0.0192205 0)
(1.17372 -0.0195635 0)
(1.18163 -0.0198875 0)
(1.18967 -0.0201914 0)
(1.19783 -0.0204742 0)
(1.2061 -0.020735 0)
(1.21446 -0.0209731 0)
(1.22292 -0.0211878 0)
(1.23146 -0.0213784 0)
(1.24007 -0.0215447 0)
(1.24875 -0.0216862 0)
(1.25747 -0.0218028 0)
(1.26624 -0.0218944 0)
(1.27504 -0.0219611 0)
(1.28386 -0.0220031 0)
(1.29269 -0.0220208 0)
(1.30153 -0.0220144 0)
(1.31035 -0.0219846 0)
(1.31916 -0.0219321 0)
(1.32794 -0.0218574 0)
(1.33669 -0.0217615 0)
(1.3454 -0.0216452 0)
(1.35405 -0.0215093 0)
(1.36264 -0.021355 0)
(1.37117 -0.021183 0)
(1.37963 -0.0209945 0)
(1.388 -0.0207905 0)
(1.39629 -0.0205718 0)
(1.40449 -0.0203396 0)
(1.41259 -0.0200947 0)
(1.42059 -0.0198381 0)
(1.42849 -0.0195706 0)
(1.43627 -0.0192931 0)
(1.44395 -0.0190061 0)
(1.4515 -0.0187105 0)
(1.45893 -0.0184067 0)
(1.46625 -0.0180954 0)
(1.47343 -0.0177769 0)
(1.48048 -0.0174516 0)
(1.48741 -0.0171197 0)
(1.4942 -0.0167814 0)
(1.50085 -0.0164369 0)
(1.50736 -0.0160861 0)
(1.51373 -0.015729 0)
(1.51996 -0.0153654 0)
(1.52604 -0.0149953 0)
(1.53197 -0.0146183 0)
(1.53775 -0.0142342 0)
(1.54338 -0.0138426 0)
(1.54884 -0.0134432 0)
(1.55415 -0.0130357 0)
(1.55929 -0.0126195 0)
(1.56426 -0.0121944 0)
(1.56907 -0.01176 0)
(1.57369 -0.0113158 0)
(1.57814 -0.0108614 0)
(1.5824 -0.0103966 0)
(1.58648 -0.00992105 0)
(1.59036 -0.00943446 0)
(1.59405 -0.00893662 0)
(1.59753 -0.00842738 0)
(1.60081 -0.00790663 0)
(1.60388 -0.00737431 0)
(1.60673 -0.00683045 0)
(1.60937 -0.00627513 0)
(1.61178 -0.0057085 0)
(1.61396 -0.00513077 0)
(1.6159 -0.00454223 0)
(1.61761 -0.00394323 0)
(1.61907 -0.00333418 0)
(1.62029 -0.00271557 0)
(1.62126 -0.00208792 0)
(1.62198 -0.00145182 0)
(1.62244 -0.000807942 0)
(1.62264 -0.000156959 0)
(1.62257 0.00050038 0)
(1.62225 0.00116329 0)
(1.62165 0.00183096 0)
(1.62079 0.00250254 0)
(1.61965 0.00317714 0)
(1.61825 0.00385387 0)
(1.61657 0.0045318 0)
(1.61462 0.00520999 0)
(1.6124 0.00588749 0)
(1.60991 0.00656334 0)
(1.60714 0.00723656 0)
(1.60411 0.00790619 0)
(1.60081 0.00857126 0)
(1.59724 0.00923078 0)
(1.59341 0.00988379 0)
(1.58931 0.0105293 0)
(1.58496 0.0111664 0)
(1.58036 0.0117941 0)
(1.57551 0.0124115 0)
(1.57041 0.0130176 0)
(1.56506 0.0136115 0)
(1.55949 0.0141923 0)
(1.55368 0.0147591 0)
(1.54765 0.015311 0)
(1.5414 0.0158472 0)
(1.53493 0.0163668 0)
(1.52827 0.0168689 0)
(1.5214 0.0173529 0)
(1.51434 0.0178179 0)
(1.5071 0.0182632 0)
(1.49969 0.018688 0)
(1.49211 0.0190918 0)
(1.48437 0.0194737 0)
(1.47648 0.0198333 0)
(1.46845 0.02017 0)
(1.4603 0.0204833 0)
(1.45202 0.0207726 0)
(1.44363 0.0210377 0)
(1.43514 0.0212781 0)
(1.42655 0.0214936 0)
(1.41789 0.021684 0)
(1.40915 0.021849 0)
(1.40035 0.0219887 0)
(1.39151 0.0221029 0)
(1.38262 0.0221916 0)
(1.3737 0.0222552 0)
(1.36476 0.0222936 0)
(1.35581 0.0223071 0)
(1.34686 0.0222962 0)
(1.33792 0.0222611 0)
(1.329 0.0222023 0)
(1.32011 0.0221204 0)
(1.31126 0.022016 0)
(1.30245 0.0218895 0)
(1.2937 0.0217419 0)
(1.28501 0.0215738 0)
(1.27639 0.0213859 0)
(1.26786 0.0211792 0)
(1.25941 0.0209545 0)
(1.25106 0.0207127 0)
(1.2428 0.0204548 0)
(1.23466 0.0201816 0)
(1.22662 0.0198942 0)
(1.21871 0.0195935 0)
(1.21092 0.0192806 0)
(1.20326 0.0189564 0)
(1.19573 0.018622 0)
(1.18833 0.0182783 0)
(1.18108 0.0179262 0)
(1.17397 0.0175669 0)
(1.16701 0.0172011 0)
(1.16019 0.0168299 0)
(1.15353 0.0164542 0)
(1.14702 0.0160749 0)
(1.14066 0.0156927 0)
(1.13445 0.0153086 0)
(1.1284 0.0149233 0)
(1.12251 0.0145376 0)
(1.11677 0.0141522 0)
(1.11118 0.0137678 0)
(1.10575 0.0133851 0)
(1.10047 0.0130046 0)
(1.09534 0.012627 0)
(1.09037 0.0122527 0)
(1.08554 0.0118823 0)
(1.08086 0.0115161 0)
(1.07633 0.0111547 0)
(1.07194 0.0107984 0)
(1.0677 0.0104475 0)
(1.06359 0.0101022 0)
(1.05962 0.00976298 0)
(1.05578 0.00942987 0)
(1.05208 0.00910308 0)
(1.04851 0.00878273 0)
(1.04506 0.0084689 0)
(1.04174 0.00816158 0)
(1.03854 0.00786072 0)
(1.03546 0.00756618 0)
(1.0325 0.00727774 0)
(1.02965 0.00699507 0)
(1.02691 0.00671773 0)
(1.02428 0.00644515 0)
(1.02176 0.00617665 0)
(1.01935 0.00591145 0)
(1.01704 0.00564865 0)
(1.01484 0.00538733 0)
(1.01274 0.00512654 0)
(1.01074 0.00486537 0)
(1.00885 0.00460303 0)
(1.00707 0.00433893 0)
(1.00539 0.00407269 0)
(1.00382 0.00380426 0)
(1.00235 0.00353393 0)
(1.00099 0.00326235 0)
(0.999747 0.00299055 0)
(0.998607 0.00271991 0)
(0.997575 0.00245213 0)
(0.996649 0.00218914 0)
(0.995827 0.00193303 0)
(0.995106 0.00168595 0)
(0.994481 0.00145007 0)
(0.993948 0.00122739 0)
(0.9935 0.00101974 0)
(0.993133 0.000828674 0)
(0.992838 0.000655421 0)
(0.992609 0.000500851 0)
(0.992437 0.000365457 0)
(0.992316 0.000249363 0)
(0.992237 0.000152339 0)
(0.992193 7.38444e-05 0)
(0.992177 1.30384e-05 0)
(0.992182 -3.10665e-05 0)
(0.992201 -5.98524e-05 0)
(0.992228 -7.41604e-05 0)
(0.99226 -7.67958e-05 0)
(0.992286 -6.513e-05 0)
(0.992314 -5.19592e-05 0)
(0.992321 -6.94399e-06 0)
(1.00001 -0.000283812 0)
(1.00017 -0.000851696 0)
(1.00049 -0.00142034 0)
(1.00097 -0.00199031 0)
(1.00162 -0.00256217 0)
(1.00243 -0.00313645 0)
(1.00341 -0.00371367 0)
(1.00455 -0.00429432 0)
(1.00585 -0.00487886 0)
(1.00732 -0.00546773 0)
(1.00897 -0.00606132 0)
(1.01078 -0.00665999 0)
(1.01276 -0.00726406 0)
(1.01492 -0.00787378 0)
(1.01725 -0.00848938 0)
(1.01976 -0.00911099 0)
(1.02245 -0.00973871 0)
(1.02531 -0.0103725 0)
(1.02836 -0.0110124 0)
(1.0316 -0.0116583 0)
(1.03501 -0.0123098 0)
(1.03862 -0.0129667 0)
(1.04242 -0.0136286 0)
(1.0464 -0.0142951 0)
(1.05058 -0.0149654 0)
(1.05495 -0.0156389 0)
(1.05952 -0.0163148 0)
(1.06428 -0.0169923 0)
(1.06923 -0.0176702 0)
(1.07438 -0.0183475 0)
(1.07973 -0.019023 0)
(1.08527 -0.0196954 0)
(1.091 -0.0203632 0)
(1.09693 -0.0210249 0)
(1.10304 -0.0216791 0)
(1.10935 -0.022324 0)
(1.11583 -0.0229579 0)
(1.1225 -0.0235791 0)
(1.12935 -0.0241857 0)
(1.13637 -0.0247761 0)
(1.14356 -0.0253482 0)
(1.15091 -0.0259005 0)
(1.15842 -0.026431 0)
(1.16608 -0.026938 0)
(1.17389 -0.0274198 0)
(1.18183 -0.0278749 0)
(1.18989 -0.0283017 0)
(1.19808 -0.0286989 0)
(1.20638 -0.0290653 0)
(1.21478 -0.0293996 0)
(1.22327 -0.0297009 0)
(1.23184 -0.0299685 0)
(1.24049 -0.0302017 0)
(1.2492 -0.0304001 0)
(1.25796 -0.0305635 0)
(1.26676 -0.0306917 0)
(1.27559 -0.0307848 0)
(1.28444 -0.0308432 0)
(1.29331 -0.0308672 0)
(1.30218 -0.0308576 0)
(1.31103 -0.030815 0)
(1.31987 -0.0307404 0)
(1.32869 -0.0306348 0)
(1.33746 -0.0304993 0)
(1.3462 -0.0303351 0)
(1.35488 -0.0301436 0)
(1.3635 -0.0299261 0)
(1.37205 -0.0296839 0)
(1.38053 -0.0294186 0)
(1.38892 -0.0291315 0)
(1.39723 -0.028824 0)
(1.40545 -0.0284975 0)
(1.41357 -0.0281534 0)
(1.42159 -0.0277929 0)
(1.4295 -0.0274172 0)
(1.4373 -0.0270275 0)
(1.44499 -0.0266248 0)
(1.45255 -0.02621 0)
(1.46 -0.025784 0)
(1.46732 -0.0253474 0)
(1.47452 -0.024901 0)
(1.48159 -0.0244451 0)
(1.48852 -0.0239801 0)
(1.49532 -0.0235063 0)
(1.50198 -0.0230238 0)
(1.5085 -0.0225327 0)
(1.51489 -0.0220328 0)
(1.52112 -0.021524 0)
(1.52722 -0.021006 0)
(1.53316 -0.0204785 0)
(1.53895 -0.0199411 0)
(1.54458 -0.0193932 0)
(1.55006 -0.0188346 0)
(1.55538 -0.0182644 0)
(1.56054 -0.0176823 0)
(1.56552 -0.0170876 0)
(1.57034 -0.0164798 0)
(1.57498 -0.0158582 0)
(1.57944 -0.0152225 0)
(1.58372 -0.0145721 0)
(1.58781 -0.0139065 0)
(1.5917 -0.0132255 0)
(1.5954 -0.0125286 0)
(1.5989 -0.0118157 0)
(1.6022 -0.0110865 0)
(1.60528 -0.0103411 0)
(1.60815 -0.00957948 0)
(1.6108 -0.00880168 0)
(1.61322 -0.00800794 0)
(1.61541 -0.00719858 0)
(1.61737 -0.00637398 0)
(1.61909 -0.00553465 0)
(1.62057 -0.00468116 0)
(1.6218 -0.00381419 0)
(1.62278 -0.00293449 0)
(1.6235 -0.0020429 0)
(1.62397 -0.00114033 0)
(1.62418 -0.000227763 0)
(1.62412 0.000693771 0)
(1.6238 0.00162317 0)
(1.62321 0.00255927 0)
(1.62235 0.00350088 0)
(1.62122 0.00444676 0)
(1.61981 0.00539564 0)
(1.61813 0.00634623 0)
(1.61618 0.0072972 0)
(1.61396 0.00824722 0)
(1.61146 0.00919494 0)
(1.60869 0.010139 0)
(1.60564 0.011078 0)
(1.60233 0.0120106 0)
(1.59876 0.0129355 0)
(1.59491 0.0138512 0)
(1.59081 0.0147565 0)
(1.58644 0.0156499 0)
(1.58182 0.0165302 0)
(1.57695 0.0173959 0)
(1.57184 0.0182459 0)
(1.56648 0.0190788 0)
(1.56088 0.0198933 0)
(1.55505 0.0206882 0)
(1.549 0.0214623 0)
(1.54272 0.0222142 0)
(1.53623 0.0229429 0)
(1.52954 0.0236473 0)
(1.52265 0.024326 0)
(1.51556 0.0249782 0)
(1.50829 0.0256027 0)
(1.50085 0.0261985 0)
(1.49324 0.0267647 0)
(1.48547 0.0273004 0)
(1.47755 0.0278047 0)
(1.46949 0.0282769 0)
(1.46129 0.0287162 0)
(1.45298 0.0291219 0)
(1.44456 0.0294936 0)
(1.43603 0.0298307 0)
(1.42741 0.0301327 0)
(1.41871 0.0303995 0)
(1.40994 0.0306307 0)
(1.4011 0.0308263 0)
(1.39222 0.0309861 0)
(1.38329 0.0311103 0)
(1.37434 0.0311989 0)
(1.36537 0.0312524 0)
(1.35638 0.0312709 0)
(1.3474 0.031255 0)
(1.33842 0.0312053 0)
(1.32947 0.0311223 0)
(1.32054 0.0310067 0)
(1.31166 0.0308595 0)
(1.30282 0.0306816 0)
(1.29404 0.0304738 0)
(1.28532 0.0302372 0)
(1.27668 0.0299731 0)
(1.26811 0.0296824 0)
(1.25964 0.0293665 0)
(1.25126 0.0290266 0)
(1.24298 0.0286641 0)
(1.23481 0.0282803 0)
(1.22676 0.0278765 0)
(1.21882 0.0274541 0)
(1.21101 0.0270145 0)
(1.20333 0.0265592 0)
(1.19579 0.0260895 0)
(1.18838 0.0256069 0)
(1.18111 0.0251126 0)
(1.17399 0.0246081 0)
(1.16701 0.0240947 0)
(1.16019 0.0235737 0)
(1.15351 0.0230464 0)
(1.14699 0.0225141 0)
(1.14063 0.0219778 0)
(1.13441 0.0214389 0)
(1.12836 0.0208984 0)
(1.12246 0.0203573 0)
(1.11671 0.0198168 0)
(1.11113 0.0192777 0)
(1.10569 0.0187409 0)
(1.10041 0.0182074 0)
(1.09529 0.0176779 0)
(1.09031 0.0171532 0)
(1.08548 0.0166339 0)
(1.08081 0.0161207 0)
(1.07628 0.0156141 0)
(1.07189 0.0151147 0)
(1.06765 0.0146229 0)
(1.06354 0.0141391 0)
(1.05958 0.0136638 0)
(1.05575 0.013197 0)
(1.05205 0.0127392 0)
(1.04848 0.0122904 0)
(1.04504 0.0118508 0)
(1.04172 0.0114203 0)
(1.03853 0.0109989 0)
(1.03545 0.0105864 0)
(1.03249 0.0101825 0)
(1.02965 0.00978666 0)
(1.02692 0.00939831 0)
(1.02429 0.00901668 0)
(1.02178 0.00864078 0)
(1.01937 0.00826954 0)
(1.01707 0.0079017 0)
(1.01487 0.00753595 0)
(1.01278 0.00717099 0)
(1.01079 0.00680553 0)
(1.00891 0.00643849 0)
(1.00713 0.00606901 0)
(1.00545 0.00569658 0)
(1.00388 0.0053211 0)
(1.00242 0.00494299 0)
(1.00107 0.00456315 0)
(0.999825 0.00418302 0)
(0.998688 0.00380454 0)
(0.997659 0.00343005 0)
(0.996735 0.00306226 0)
(0.995915 0.0027041 0)
(0.995196 0.00235858 0)
(0.994572 0.0020287 0)
(0.99404 0.00171728 0)
(0.993593 0.00142689 0)
(0.993226 0.00115969 0)
(0.992932 0.0009174 0)
(0.992703 0.000701237 0)
(0.992531 0.000511895 0)
(0.992409 0.000349547 0)
(0.99233 0.000213871 0)
(0.992286 0.000104112 0)
(0.992269 1.90945e-05 0)
(0.992273 -4.25642e-05 0)
(0.992291 -8.27937e-05 0)
(0.992317 -0.000102781 0)
(0.992349 -0.000106433 0)
(0.992373 -9.01028e-05 0)
(0.9924 -7.16489e-05 0)
(0.992406 -8.69038e-06 0)
(1.00001 -0.000364495 0)
(1.00017 -0.00109382 0)
(1.00048 -0.00182414 0)
(1.00097 -0.00255619 0)
(1.00161 -0.00329069 0)
(1.00242 -0.00402835 0)
(1.00339 -0.00476981 0)
(1.00453 -0.00551573 0)
(1.00583 -0.00626671 0)
(1.0073 -0.00702331 0)
(1.00894 -0.00778606 0)
(1.01075 -0.00855541 0)
(1.01272 -0.00933179 0)
(1.01488 -0.0101155 0)
(1.0172 -0.0109069 0)
(1.01971 -0.0117062 0)
(1.02239 -0.0125134 0)
(1.02525 -0.0133286 0)
(1.02829 -0.0141518 0)
(1.03152 -0.0149827 0)
(1.03494 -0.0158211 0)
(1.03854 -0.0166665 0)
(1.04233 -0.0175186 0)
(1.04632 -0.0183766 0)
(1.05049 -0.0192399 0)
(1.05486 -0.0201074 0)
(1.05943 -0.0209782 0)
(1.06419 -0.0218511 0)
(1.06915 -0.0227248 0)
(1.0743 -0.0235979 0)
(1.07966 -0.0244688 0)
(1.0852 -0.0253358 0)
(1.09095 -0.0261972 0)
(1.09688 -0.0270509 0)
(1.10301 -0.0278949 0)
(1.10933 -0.0287271 0)
(1.11584 -0.0295453 0)
(1.12253 -0.0303471 0)
(1.12939 -0.0311304 0)
(1.13644 -0.0318927 0)
(1.14366 -0.0326315 0)
(1.15104 -0.0333447 0)
(1.15858 -0.0340299 0)
(1.16627 -0.0346847 0)
(1.17411 -0.035307 0)
(1.18208 -0.0358948 0)
(1.19019 -0.0364461 0)
(1.19842 -0.036959 0)
(1.20675 -0.0374319 0)
(1.2152 -0.0378635 0)
(1.22373 -0.0382523 0)
(1.23235 -0.0385975 0)
(1.24104 -0.0388982 0)
(1.24979 -0.0391537 0)
(1.2586 -0.0393639 0)
(1.26744 -0.0395286 0)
(1.27632 -0.0396479 0)
(1.28522 -0.0397222 0)
(1.29413 -0.0397521 0)
(1.30304 -0.0397384 0)
(1.31194 -0.0396821 0)
(1.32082 -0.0395844 0)
(1.32968 -0.0394467 0)
(1.33849 -0.0392703 0)
(1.34726 -0.039057 0)
(1.35598 -0.0388084 0)
(1.36463 -0.0385263 0)
(1.37321 -0.0382125 0)
(1.38172 -0.0378688 0)
(1.39015 -0.0374972 0)
(1.39849 -0.0370994 0)
(1.40673 -0.0366773 0)
(1.41488 -0.0362326 0)
(1.42292 -0.0357669 0)
(1.43085 -0.0352819 0)
(1.43867 -0.0347789 0)
(1.44637 -0.0342594 0)
(1.45396 -0.0337246 0)
(1.46142 -0.0331755 0)
(1.46876 -0.0326131 0)
(1.47597 -0.0320381 0)
(1.48305 -0.0314512 0)
(1.49 -0.0308528 0)
(1.49681 -0.0302432 0)
(1.50349 -0.0296227 0)
(1.51003 -0.0289912 0)
(1.51642 -0.0283486 0)
(1.52267 -0.0276947 0)
(1.52878 -0.0270291 0)
(1.53474 -0.0263514 0)
(1.54054 -0.025661 0)
(1.54619 -0.0249574 0)
(1.55169 -0.0242398 0)
(1.55702 -0.0235075 0)
(1.56219 -0.0227599 0)
(1.5672 -0.021996 0)
(1.57203 -0.0212152 0)
(1.57669 -0.0204168 0)
(1.58117 -0.0196001 0)
(1.58546 -0.0187643 0)
(1.58957 -0.017909 0)
(1.59349 -0.0170337 0)
(1.59721 -0.0161379 0)
(1.60073 -0.0152213 0)
(1.60404 -0.0142837 0)
(1.60715 -0.0133251 0)
(1.61003 -0.0123454 0)
(1.6127 -0.0113447 0)
(1.61514 -0.0103234 0)
(1.61735 -0.00928188 0)
(1.61933 -0.00822058 0)
(1.62107 -0.00714018 0)
(1.62256 -0.00604142 0)
(1.62381 -0.00492518 0)
(1.6248 -0.00379244 0)
(1.62554 -0.00264428 0)
(1.62602 -0.00148187 0)
(1.62623 -0.000306503 0)
(1.62618 0.000880494 0)
(1.62587 0.00207769 0)
(1.62528 0.00328358 0)
(1.62443 0.00449662 0)
(1.6233 0.00571522 0)
(1.62189 0.00693773 0)
(1.62021 0.00816246 0)
(1.61826 0.00938773 0)
(1.61603 0.0106118 0)
(1.61352 0.0118329 0)
(1.61074 0.0130493 0)
(1.60769 0.0142593 0)
(1.60437 0.015461 0)
(1.60078 0.0166527 0)
(1.59692 0.0178327 0)
(1.5928 0.0189992 0)
(1.58842 0.0201504 0)
(1.58378 0.0212847 0)
(1.57888 0.0224004 0)
(1.57374 0.0234957 0)
(1.56836 0.024569 0)
(1.56273 0.0256186 0)
(1.55688 0.026643 0)
(1.55079 0.0276405 0)
(1.54449 0.0286096 0)
(1.53797 0.0295487 0)
(1.53124 0.0304564 0)
(1.52431 0.0313312 0)
(1.51719 0.0321717 0)
(1.50988 0.0329765 0)
(1.50239 0.0337444 0)
(1.49474 0.0344741 0)
(1.48693 0.0351644 0)
(1.47897 0.0358143 0)
(1.47086 0.0364228 0)
(1.46262 0.0369888 0)
(1.45427 0.0375116 0)
(1.44579 0.0379904 0)
(1.43722 0.0384246 0)
(1.42855 0.0388136 0)
(1.4198 0.039157 0)
(1.41098 0.0394546 0)
(1.4021 0.0397062 0)
(1.39317 0.0399116 0)
(1.3842 0.040071 0)
(1.37519 0.0401846 0)
(1.36617 0.0402527 0)
(1.35714 0.0402757 0)
(1.34811 0.0402544 0)
(1.33909 0.0401892 0)
(1.33009 0.0400812 0)
(1.32112 0.0399313 0)
(1.31219 0.0397404 0)
(1.30331 0.0395099 0)
(1.29449 0.0392409 0)
(1.28573 0.0389347 0)
(1.27705 0.038593 0)
(1.26845 0.0382171 0)
(1.25994 0.0378087 0)
(1.25152 0.0373694 0)
(1.24321 0.0369009 0)
(1.23501 0.0364049 0)
(1.22693 0.0358832 0)
(1.21897 0.0353377 0)
(1.21113 0.0347701 0)
(1.20343 0.0341821 0)
(1.19586 0.0335758 0)
(1.18843 0.0329527 0)
(1.18115 0.0323148 0)
(1.17401 0.0316638 0)
(1.16702 0.0310013 0)
(1.16018 0.0303292 0)
(1.15349 0.029649 0)
(1.14696 0.0289624 0)
(1.14058 0.0282709 0)
(1.13436 0.027576 0)
(1.1283 0.0268792 0)
(1.12239 0.0261817 0)
(1.11664 0.025485 0)
(1.11105 0.0247902 0)
(1.10562 0.0240986 0)
(1.10034 0.0234111 0)
(1.09521 0.022729 0)
(1.09023 0.022053 0)
(1.08541 0.0213842 0)
(1.08073 0.0207232 0)
(1.07621 0.0200709 0)
(1.07182 0.0194279 0)
(1.06758 0.0187947 0)
(1.06348 0.018172 0)
(1.05952 0.01756 0)
(1.0557 0.0169593 0)
(1.05201 0.0163701 0)
(1.04844 0.0157926 0)
(1.04501 0.015227 0)
(1.0417 0.0146731 0)
(1.03851 0.014131 0)
(1.03544 0.0136004 0)
(1.03249 0.0130808 0)
(1.02965 0.0125717 0)
(1.02693 0.0120723 0)
(1.02431 0.0115816 0)
(1.02181 0.0110983 0)
(1.01941 0.0106211 0)
(1.01711 0.0101483 0)
(1.01492 0.00967823 0)
(1.01284 0.00920925 0)
(1.01085 0.0087397 0)
(1.00898 0.00826817 0)
(1.0072 0.00779357 0)
(1.00553 0.00731523 0)
(1.00397 0.00683304 0)
(1.00252 0.00634751 0)
(1.00117 0.00585979 0)
(0.999929 0.00537173 0)
(0.998796 0.00488579 0)
(0.997771 0.004405 0)
(0.99685 0.00393282 0)
(0.996033 0.003473 0)
(0.995315 0.00302942 0)
(0.994693 0.00260591 0)
(0.994163 0.00220611 0)
(0.993717 0.00183329 0)
(0.993351 0.00149024 0)
(0.993057 0.00117918 0)