/*--------------------------------*- C++ -*----------------------------------*\
| =========                 |                                                 |
| \\      /  F ield         | OpenFOAM: The Open Source CFD Toolbox           |
|  \\    /   O peration     | Version:  2306                                  |
|   \\  /    A nd           | Website:  www.openfoam.com                      |
|    \\/     M anipulation  |                                                 |
\*---------------------------------------------------------------------------*/
FoamFile
{
    version     2.0;
    format      ascii;
    arch        "LSB;label=32;scalar=64";
    class       volScalarField;
    location    "7";
    object      Keff;
}
// * * * * * * * * * * * * * * * * * * * * * * * * * * * * * * * * * * * * * //

dimensions      [1 1 -3 -1 0 0 0];

internalField   nonuniform List<scalar> 
32768
(
67.2037
67.2017
67.1976
67.1914
67.183
67.1726
67.1601
67.1454
67.1286
67.1097
67.0886
67.0654
67.0399
67.0122
66.9823
66.9501
66.9156
66.8789
66.8398
66.7983
66.7545
66.7083
66.6597
66.6086
66.5552
66.4992
66.4409
66.38
66.3167
66.2509
66.1826
66.1119
66.0387
65.9632
65.8852
65.8049
65.7222
65.6372
65.55
65.4607
65.3692
65.2757
65.1802
65.0828
64.9836
64.8827
64.7802
64.6762
64.5708
64.4641
64.3563
64.2474
64.1376
64.027
63.9157
63.8039
63.6917
63.5791
63.4665
63.3537
63.2411
63.1286
63.0164
62.9047
62.7934
62.6828
62.5728
62.4637
62.3555
62.2482
62.1419
62.0367
61.9327
61.8299
61.7284
61.6282
61.5294
61.432
61.336
61.2414
61.1484
61.0569
60.967
60.8786
60.7918
60.7067
60.6232
60.5414
60.4612
60.3828
60.3061
60.2312
60.158
60.0867
60.0173
59.9497
59.8841
59.8204
59.7588
59.6992
59.6416
59.5863
59.5331
59.4822
59.4335
59.3873
59.3434
59.302
59.2632
59.2269
59.1932
59.1623
59.1341
59.1087
59.0862
59.0666
59.05
59.0363
59.0258
59.0183
59.014
59.0128
59.0149
59.0202
59.0287
59.0405
59.0557
59.0741
59.0959
59.121
59.1495
59.1812
59.2163
59.2547
59.2964
59.3413
59.3895
59.4409
59.4955
59.5532
59.6139
59.6778
59.7446
59.8143
59.8869
59.9624
60.0405
60.1213
60.2047
60.2906
60.379
60.4696
60.5625
60.6576
60.7546
60.8537
60.9545
61.0571
61.1613
61.267
61.3741
61.4825
61.592
61.7025
61.814
61.9262
62.0391
62.1526
62.2665
62.3806
62.495
62.6094
62.7237
62.8379
62.9518
63.0653
63.1782
63.2906
63.4022
63.513
63.6228
63.7317
63.8395
63.946
64.0513
64.1553
64.2579
64.359
64.4585
64.5565
64.6528
64.7475
64.8404
64.9315
65.0209
65.1084
65.194
65.2778
65.3597
65.4397
65.5178
65.594
65.6683
65.7406
65.8111
65.8796
65.9463
66.0111
66.074
66.1351
66.1944
66.2519
66.3076
66.3616
66.4138
66.4644
66.5134
66.5607
66.6064
66.6506
66.6933
66.7344
66.7742
66.8125
66.8494
66.8851
66.9194
66.9524
66.9842
67.0148
67.0442
67.0726
67.0998
67.1259
67.151
67.175
67.1981
67.2201
67.2412
67.2613
67.2804
67.2986
67.3157
67.3319
67.3471
67.3612
67.3743
67.3864
67.3974
67.4075
67.4165
67.4245
67.4314
67.4378
67.4424
67.4487
67.2037
67.2017
67.1976
67.1914
67.1831
67.1726
67.1601
67.1455
67.1287
67.1098
67.0887
67.0654
67.04
67.0123
66.9824
66.9502
66.9157
66.8789
66.8399
66.7984
66.7546
66.7084
66.6598
66.6087
66.5552
66.4993
66.4409
66.38
66.3166
66.2508
66.1825
66.1117
66.0385
65.9629
65.8848
65.8044
65.7217
65.6366
65.5493
65.4599
65.3683
65.2747
65.179
65.0815
64.9822
64.8812
64.7785
64.6744
64.5688
64.462
64.354
64.245
64.135
64.0243
63.9129
63.8009
63.6886
63.5759
63.4631
63.3502
63.2374
63.1248
63.0125
62.9007
62.7893
62.6786
62.5686
62.4593
62.351
62.2436
62.1373
62.0321
61.928
61.8252
61.7236
61.6234
61.5245
61.427
61.331
61.2365
61.1434
61.0519
60.9619
60.8735
60.7868
60.7016
60.6181
60.5362
60.4561
60.3776
60.3009
60.226
60.1528
60.0815
60.012
59.9444
59.8787
59.815
59.7533
59.6937
59.6361
59.5807
59.5275
59.4765
59.4278
59.3815
59.3376
59.2962
59.2572
59.2209
59.1872
59.1562
59.128
59.1025
59.08
59.0603
59.0436
59.03
59.0194
59.0119
59.0075
59.0063
59.0083
59.0136
59.0221
59.034
59.0491
59.0676
59.0893
59.1144
59.1429
59.1747
59.2098
59.2482
59.2899
59.3348
59.383
59.4344
59.489
59.5468
59.6076
59.6715
59.7383
59.8081
59.8808
59.9563
60.0345
60.1154
60.1989
60.2849
60.3733
60.464
60.557
60.6522
60.7493
60.8485
60.9494
61.0521
61.1564
61.2623
61.3695
61.478
61.5876
61.6983
61.8099
61.9223
62.0353
62.1489
62.2629
62.3772
62.4917
62.6063
62.7207
62.835
62.9491
63.0627
63.1758
63.2882
63.4
63.5109
63.6209
63.7299
63.8377
63.9444
64.0498
64.1539
64.2566
64.3578
64.4574
64.5555
64.6519
64.7466
64.8396
64.9308
65.0202
65.1078
65.1935
65.2774
65.3593
65.4394
65.5175
65.5937
65.668
65.7404
65.8108
65.8794
65.9461
66.0109
66.0738
66.1349
66.1942
66.2517
66.3075
66.3614
66.4137
66.4643
66.5132
66.5605
66.6063
66.6504
66.6931
66.7342
66.774
66.8123
66.8492
66.8848
66.9191
66.9521
66.9839
67.0145
67.0439
67.0722
67.0994
67.1255
67.1506
67.1746
67.1976
67.2197
67.2407
67.2608
67.2799
67.298
67.3152
67.3313
67.3465
67.3606
67.3737
67.3858
67.3968
67.4068
67.4158
67.4238
67.4308
67.4371
67.4417
67.448
67.2037
67.2017
67.1976
67.1914
67.1831
67.1727
67.1601
67.1455
67.1287
67.1098
67.0888
67.0655
67.0401
67.0124
66.9825
66.9503
66.9159
66.8791
66.84
66.7986
66.7548
66.7085
66.6599
66.6088
66.5553
66.4993
66.4409
66.3799
66.3165
66.2506
66.1822
66.1114
66.038
65.9623
65.8841
65.8035
65.7206
65.6354
65.548
65.4583
65.3665
65.2726
65.1768
65.079
64.9794
64.8781
64.7752
64.6708
64.565
64.4578
64.3496
64.2402
64.13
64.0189
63.9072
63.795
63.6823
63.5694
63.4563
63.3432
63.2301
63.1173
63.0048
62.8927
62.7811
62.6702
62.56
62.4506
62.3421
62.2346
62.1281
62.0228
61.9186
61.8157
61.714
61.6137
61.5147
61.4172
61.3211
61.2265
61.1334
61.0419
60.9519
60.8634
60.7766
60.6914
60.6078
60.526
60.4458
60.3673
60.2905
60.2155
60.1423
60.0709
60.0014
59.9337
59.868
59.8042
59.7424
59.6827
59.625
59.5695
59.5162
59.4651
59.4164
59.37
59.3259
59.2844
59.2454
59.2089
59.1751
59.1441
59.1157
59.0902
59.0675
59.0478
59.031
59.0173
59.0066
58.999
58.9946
58.9933
58.9953
59.0005
59.009
59.0208
59.0359
59.0544
59.0761
59.1012
59.1297
59.1615
59.1966
59.235
59.2768
59.3218
59.37
59.4215
59.4762
59.534
59.5949
59.6589
59.7259
59.7958
59.8686
59.9442
60.0225
60.1036
60.1872
60.2734
60.3619
60.4529
60.546
60.6414
60.7388
60.8381
60.9393
61.0422
61.1467
61.2528
61.3603
61.469
61.5789
61.6898
61.8017
61.9143
62.0276
62.1415
62.2558
62.3704
62.4851
62.6
62.7147
62.8293
62.9436
63.0575
63.1708
63.2836
63.3956
63.5067
63.617
63.7262
63.8343
63.9412
64.0468
64.1511
64.254
64.3554
64.4552
64.5535
64.6501
64.7449
64.8381
64.9294
65.019
65.1067
65.1925
65.2764
65.3585
65.4386
65.5168
65.5931
65.6675
65.7399
65.8104
65.879
65.9458
66.0106
66.0736
66.1347
66.194
66.2515
66.3072
66.3612
66.4135
66.464
66.513
66.5602
66.6059
66.6501
66.6927
66.7339
66.7736
66.8118
66.8487
66.8843
66.9185
66.9515
66.9833
67.0138
67.0432
67.0715
67.0986
67.1247
67.1497
67.1737
67.1967
67.2187
67.2397
67.2598
67.2788
67.2969
67.314
67.3301
67.3453
67.3594
67.3724
67.3845
67.3955
67.4055
67.4145
67.4225
67.4294
67.4358
67.4403
67.4467
67.2037
67.2017
67.1976
67.1914
67.1831
67.1727
67.1602
67.1456
67.1288
67.11
67.0889
67.0657
67.0403
67.0126
66.9827
66.9506
66.9162
66.8794
66.8403
66.7989
66.755
66.7088
66.6601
66.609
66.5555
66.4995
66.4409
66.3799
66.3164
66.2504
66.1819
66.1108
66.0374
65.9614
65.883
65.8023
65.7191
65.6336
65.5459
65.4559
65.3638
65.2696
65.1734
65.0752
64.9753
64.8736
64.7703
64.6654
64.5592
64.4516
64.3429
64.2331
64.1224
64.0109
63.8988
63.7861
63.673
63.5596
63.4461
63.3326
63.2192
63.106
62.9931
62.8807
62.7688
62.6576
62.5471
62.4375
62.3287
62.221
62.1143
62.0088
61.9045
61.8014
61.6996
61.5992
61.5001
61.4025
61.3063
61.2116
61.1184
61.0268
60.9367
60.8483
60.7614
60.6761
60.5925
60.5106
60.4303
60.3518
60.2749
60.1999
60.1266
60.0551
59.9855
59.9177
59.8519
59.788
59.7261
59.6662
59.6085
59.5528
59.4994
59.4481
59.3992
59.3527
59.3085
59.2668
59.2276
59.191
59.1571
59.1258
59.0973
59.0717
59.0489
59.029
59.0121
58.9982
58.9874
58.9797
58.9752
58.9739
58.9758
58.9809
58.9894
59.0011
59.0162
59.0346
59.0563
59.0815
59.1099
59.1417
59.1769
59.2154
59.2571
59.3022
59.3506
59.4021
59.4569
59.5149
59.5759
59.64
59.7071
59.7772
59.8502
59.926
60.0046
60.0858
60.1697
60.2561
60.3449
60.4361
60.5296
60.6252
60.7229
60.8225
60.924
61.0273
61.1322
61.2386
61.3464
61.4555
61.5658
61.6771
61.7894
61.9024
62.0161
62.1304
62.2451
62.3601
62.4753
62.5905
62.7057
62.8207
62.9354
63.0497
63.1634
63.2766
63.3889
63.5005
63.6111
63.7207
63.8291
63.9364
64.0424
64.147
64.2502
64.3518
64.452
64.5505
64.6473
64.7424
64.8358
64.9273
65.0171
65.105
65.191
65.2751
65.3573
65.4375
65.5159
65.5922
65.6667
65.7392
65.8098
65.8785
65.9453
66.0101
66.0731
66.1343
66.1936
66.2511
66.3069
66.3608
66.4131
66.4636
66.5125
66.5598
66.6055
66.6496
66.6922
66.7333
66.7729
66.8112
66.848
66.8835
66.9177
66.9506
66.9823
67.0128
67.0422
67.0704
67.0974
67.1235
67.1484
67.1724
67.1953
67.2173
67.2382
67.2582
67.2772
67.2953
67.3123
67.3284
67.3435
67.3575
67.3706
67.3826
67.3936
67.4036
67.4125
67.4205
67.4274
67.4337
67.4383
67.4446
67.2037
67.2017
67.1976
67.1914
67.1831
67.1728
67.1603
67.1457
67.129
67.1101
67.0891
67.0659
67.0405
67.0129
66.9831
66.9509
66.9165
66.8798
66.8407
66.7993
66.7554
66.7092
66.6605
66.6093
66.5557
66.4996
66.441
66.3799
66.3162
66.2501
66.1814
66.1102
66.0365
65.9603
65.8816
65.8006
65.7171
65.6313
65.5431
65.4528
65.3602
65.2656
65.1689
65.0703
64.9698
64.8676
64.7637
64.6583
64.5514
64.4433
64.334
64.2236
64.1123
64.0002
63.8875
63.7742
63.6605
63.5466
63.4326
63.3185
63.2046
63.0909
62.9776
62.8647
62.7524
62.6408
62.5299
62.42
62.3109
62.2029
62.096
61.9902
61.8856
61.7823
61.6804
61.5798
61.4806
61.3828
61.2865
61.1917
61.0985
61.0068
60.9166
60.8281
60.7411
60.6558
60.5721
60.4901
60.4097
60.3311
60.2542
60.179
60.1056
60.0341
59.9643
59.8964
59.8304
59.7664
59.7044
59.6443
59.5864
59.5306
59.4769
59.4255
59.3764
59.3296
59.2853
59.2433
59.204
59.1672
59.133
59.1016
59.0729
59.047
59.024
59.0039
58.9869
58.9728
58.9619
58.9541
58.9494
58.948
58.9497
58.9548
58.9632
58.9748
58.9899
59.0082
59.03
59.0551
59.0836
59.1154
59.1506
59.1891
59.231
59.2762
59.3246
59.3763
59.4312
59.4893
59.5506
59.6149
59.6822
59.7525
59.8257
59.9018
59.9806
60.0622
60.1463
60.2331
60.3222
60.4138
60.5076
60.6036
60.7017
60.8018
60.9037
61.0074
61.1128
61.2197
61.328
61.4376
61.5484
61.6602
61.773
61.8866
62.0008
62.1156
62.2309
62.3464
62.4622
62.578
62.6937
62.8092
62.9245
63.0393
63.1536
63.2672
63.3801
63.4922
63.6033
63.7134
63.8223
63.93
64.0364
64.1415
64.245
64.3471
64.4476
64.5465
64.6436
64.7391
64.8327
64.9246
65.0146
65.1027
65.189
65.2733
65.3557
65.4361
65.5146
65.5911
65.6657
65.7383
65.809
65.8778
65.9446
66.0096
66.0726
66.1338
66.1931
66.2507
66.3064
66.3604
66.4126
66.4631
66.512
66.5593
66.6049
66.649
66.6915
66.7325
66.7721
66.8103
66.8471
66.8825
66.9166
66.9495
66.9811
67.0115
67.0408
67.0689
67.0959
67.1218
67.1467
67.1706
67.1935
67.2153
67.2362
67.2561
67.2751
67.2931
67.3101
67.3261
67.3411
67.3551
67.3681
67.3801
67.391
67.401
67.4099
67.4179
67.4248
67.4311
67.4356
67.4419
67.2037
67.2017
67.1976
67.1915
67.1832
67.1728
67.1604
67.1458
67.1292
67.1103
67.0894
67.0662
67.0409
67.0133
66.9835
66.9514
66.917
66.8803
66.8412
66.7998
66.7559
66.7097
66.661
66.6098
66.5561
66.4999
66.4412
66.3799
66.3161
66.2498
66.1809
66.1094
66.0354
65.959
65.88
65.7985
65.7146
65.6284
65.5398
65.4489
65.3558
65.2606
65.1633
65.0641
64.963
64.8601
64.7555
64.6493
64.5418
64.4329
64.3228
64.2117
64.0997
63.9868
63.8733
63.7593
63.645
63.5303
63.4156
63.3009
63.1863
63.072
62.9581
62.8447
62.7319
62.6198
62.5085
62.398
62.2886
62.1802
62.073
61.9669
61.8621
61.7585
61.6563
61.5555
61.4562
61.3583
61.2618
61.1669
61.0736
60.9817
60.8915
60.8029
60.7158
60.6304
60.5466
60.4645
60.3841
60.3054
60.2283
60.1531
60.0795
60.0078
59.9379
59.8699
59.8037
59.7395
59.6773
59.617
59.5589
59.5028
59.4489
59.3973
59.3479
59.3009
59.2563
59.2141
59.1744
59.1374
59.103
59.0713
59.0423
59.0162
58.993
58.9727
58.9554
58.9412
58.93
58.922
58.9172
58.9156
58.9172
58.9222
58.9304
58.942
58.957
58.9753
58.997
59.0221
59.0506
59.0825
59.1177
59.1564
59.1983
59.2436
59.2922
59.3441
59.3992
59.4574
59.5189
59.5834
59.651
59.7216
59.7951
59.8715
59.9507
60.0326
60.1172
60.2043
60.2939
60.3859
60.4802
60.5767
60.6753
60.7759
60.8783
60.9826
61.0885
61.196
61.3049
61.4152
61.5266
61.6391
61.7525
61.8667
61.9817
62.0972
62.2131
62.3294
62.4458
62.5623
62.6787
62.7949
62.9109
63.0264
63.1413
63.2556
63.3692
63.4819
63.5936
63.7043
63.8138
63.9221
64.029
64.1346
64.2387
64.3413
64.4422
64.5415
64.6391
64.735
64.829
64.9212
65.0115
65.1
65.1865
65.2711
65.3537
65.4343
65.513
65.5897
65.6645
65.7373
65.8081
65.8769
65.9439
66.0089
66.072
66.1332
66.1926
66.2501
66.3058
66.3598
66.412
66.4625
66.5114
66.5586
66.6042
66.6482
66.6906
66.7316
66.7711
66.8092
66.8459
66.8813
66.9153
66.9481
66.9796
67.0099
67.0391
67.0671
67.094
67.1198
67.1446
67.1684
67.1912
67.2129
67.2337
67.2536
67.2724
67.2903
67.3072
67.3232
67.3381
67.3521
67.365
67.3769
67.3878
67.3978
67.4066
67.4146
67.4215
67.4277
67.4323
67.4386
67.2037
67.2017
67.1977
67.1915
67.1833
67.1729
67.1605
67.146
67.1294
67.1106
67.0897
67.0666
67.0413
67.0138
66.984
66.952
66.9176
66.8809
66.8419
66.8004
66.7566
66.7103
66.6616
66.6103
66.5566
66.5003
66.4414
66.38
66.316
66.2495
66.1803
66.1086
66.0343
65.9574
65.878
65.7962
65.7118
65.625
65.5359
65.4444
65.3507
65.2548
65.1567
65.0567
64.9548
64.8511
64.7457
64.6387
64.5302
64.4205
64.3095
64.1975
64.0845
63.9708
63.8564
63.7415
63.6262
63.5108
63.3952
63.2797
63.1644
63.0493
62.9347
62.8206
62.7072
62.5945
62.4826
62.3717
62.2618
62.153
62.0453
61.9389
61.8338
61.7299
61.6275
61.5265
61.4269
61.3288
61.2322
61.1372
61.0437
60.9518
60.8614
60.7727
60.6855
60.6
60.5162
60.4339
60.3534
60.2746
60.1974
60.122
60.0483
59.9764
59.9064
59.8381
59.7718
59.7073
59.6448
59.5844
59.5259
59.4696
59.4155
59.3635
59.3138
59.2665
59.2216
59.1791
59.1391
59.1017
59.067
59.035
59.0057
58.9793
58.9558
58.9352
58.9177
58.9032
58.8918
58.8836
58.8785
58.8768
58.8783
58.8831
58.8912
58.9027
58.9176
58.9359
58.9575
58.9826
59.0111
59.0431
59.0784
59.1171
59.1592
59.2046
59.2533
59.3054
59.3607
59.4192
59.4809
59.5457
59.6136
59.6846
59.7584
59.8352
59.9148
59.9971
60.0822
60.1698
60.2599
60.3524
60.4472
60.5443
60.6435
60.7447
60.8479
60.9528
61.0594
61.1676
61.2773
61.3882
61.5004
61.6137
61.7279
61.843
61.9587
62.0751
62.1918
62.3089
62.4262
62.5435
62.6607
62.7778
62.8945
63.0109
63.1266
63.2417
63.3561
63.4695
63.582
63.6934
63.8036
63.9126
64.0202
64.1264
64.2311
64.3343
64.4358
64.5357
64.6338
64.7301
64.8246
64.9172
65.0079
65.0967
65.1836
65.2685
65.3514
65.4323
65.5112
65.5882
65.6631
65.736
65.807
65.876
65.943
66.0081
66.0712
66.1325
66.1919
66.2495
66.3052
66.3592
66.4114
66.4619
66.5106
66.5578
66.6033
66.6472
66.6896
66.7305
66.7699
66.8079
66.8445
66.8798
66.9137
66.9464
66.9778
67.008
67.037
67.0649
67.0917
67.1174
67.1421
67.1658
67.1884
67.2101
67.2307
67.2505
67.2692
67.287
67.3038
67.3197
67.3346
67.3484
67.3613
67.3732
67.384
67.3939
67.4027
67.4106
67.4175
67.4237
67.4282
67.4345
67.2037
67.2017
67.1977
67.1916
67.1833
67.173
67.1607
67.1462
67.1296
67.1109
67.0901
67.067
67.0418
67.0144
66.9846
66.9526
66.9183
66.8817
66.8427
66.8013
66.7574
66.7111
66.6623
66.611
66.5572
66.5008
66.4418
66.3802
66.316
66.2492
66.1798
66.1077
66.033
65.9558
65.8759
65.7935
65.7086
65.6212
65.5314
65.4392
65.3447
65.248
65.1492
65.0483
64.9454
64.8408
64.7343
64.6263
64.5169
64.406
64.294
64.1809
64.0669
63.952
63.8366
63.7207
63.6044
63.4879
63.3714
63.255
63.1387
63.0228
62.9074
62.7925
62.6783
62.565
62.4525
62.341
62.2305
62.1212
62.0131
61.9063
61.8007
61.6966
61.5939
61.4926
61.3928
61.2945
61.1977
61.1025
61.0089
60.9168
60.8264
60.7375
60.6503
60.5647
60.4807
60.3984
60.3177
60.2387
60.1614
60.0859
60.012
59.94
59.8697
59.8012
59.7346
59.6699
59.6072
59.5464
59.4877
59.431
59.3765
59.3242
59.2742
59.2265
59.1812
59.1383
59.098
59.0602
59.0251
58.9927
58.9631
58.9364
58.9125
58.8916
58.8737
58.859
58.8473
58.8388
58.8335
58.8315
58.8328
58.8375
58.8455
58.8569
58.8717
58.8899
58.9115
58.9366
58.9651
58.9971
59.0325
59.0713
59.1135
59.1591
59.208
59.2603
59.3158
59.3746
59.4366
59.5018
59.57
59.6414
59.7157
59.7929
59.8729
59.9558
60.0413
60.1295
60.2202
60.3133
60.4088
60.5066
60.6065
60.7084
60.8123
60.9181
61.0255
61.1345
61.245
61.3569
61.4699
61.5841
61.6993
61.8153
61.932
62.0493
62.167
62.2851
62.4033
62.5216
62.6398
62.7579
62.8756
62.9928
63.1096
63.2256
63.3408
63.4552
63.5685
63.6808
63.7919
63.9016
64.01
64.117
64.2224
64.3263
64.4284
64.5289
64.6276
64.7245
64.8195
64.9126
65.0038
65.093
65.1803
65.2655
65.3488
65.43
65.5092
65.5864
65.6615
65.7347
65.8058
65.8749
65.942
66.0072
66.0705
66.1318
66.1912
66.2488
66.3045
66.3585
66.4107
66.4611
66.5098
66.5569
66.6023
66.6462
66.6885
66.7293
66.7686
66.8065
66.8429
66.8781
66.9119
66.9444
66.9757
67.0057
67.0346
67.0624
67.0891
67.1146
67.1392
67.1627
67.1852
67.2067
67.2273
67.2469
67.2655
67.2832
67.2999
67.3156
67.3304
67.3442
67.357
67.3688
67.3795
67.3893
67.3981
67.406
67.4128
67.419
67.4235
67.4298
67.2037
67.2017
67.1977
67.1916
67.1834
67.1732
67.1609
67.1465
67.13
67.1113
67.0905
67.0676
67.0424
67.015
66.9854
66.9535
66.9192
66.8826
66.8437
66.8023
66.7585
66.7121
66.6633
66.612
66.558
66.5015
66.4424
66.3806
66.3162
66.2491
66.1793
66.1069
66.0318
65.954
65.8737
65.7907
65.7051
65.617
65.5264
65.4334
65.3381
65.2405
65.1406
65.0387
64.9348
64.829
64.7215
64.6123
64.5016
64.3896
64.2763
64.162
64.0467
63.9307
63.814
63.6969
63.5794
63.4618
63.3442
63.2266
63.1094
62.9925
62.8761
62.7603
62.6453
62.5312
62.418
62.3058
62.1947
62.0848
61.9762
61.8689
61.763
61.6585
61.5554
61.4539
61.3538
61.2553
61.1584
61.063
60.9692
60.877
60.7864
60.6975
60.6101
60.5244
60.4403
60.3579
60.2771
60.198
60.1205
60.0448
59.9707
59.8985
59.828
59.7592
59.6924
59.6274
59.5643
59.5032
59.4441
59.3871
59.3322
59.2795
59.2291
59.181
59.1352
59.0919
59.0511
59.013
58.9774
58.9446
58.9146
58.8874
58.8632
58.8419
58.8237
58.8085
58.7965
58.7878
58.7822
58.78
58.781
58.7855
58.7933
58.8046
58.8193
58.8374
58.859
58.8841
58.9126
58.9446
58.9801
59.019
59.0614
59.1071
59.1563
59.2088
59.2646
59.3237
59.3861
59.4516
59.5203
59.592
59.6668
59.7445
59.8251
59.9086
59.9947
60.0835
60.1749
60.2687
60.365
60.4635
60.5642
60.667
60.7717
60.8784
60.9867
61.0967
61.2082
61.321
61.4351
61.5504
61.6666
61.7836
61.9014
62.0198
62.1387
62.2579
62.3772
62.4966
62.616
62.7351
62.854
62.9723
63.0901
63.2072
63.3235
63.4389
63.5533
63.6665
63.7785
63.8892
63.9985
64.1063
64.2126
64.3172
64.4201
64.5213
64.6207
64.7182
64.8138
64.9075
64.9992
65.0889
65.1766
65.2623
65.3459
65.4275
65.507
65.5844
65.6598
65.7332
65.8045
65.8738
65.941
66.0063
66.0697
66.131
66.1905
66.2481
66.3038
66.3578
66.4099
66.4603
66.5089
66.5559
66.6013
66.645
66.6872
66.7279
66.7671
66.8048
66.8411
66.8761
66.9098
66.9422
66.9733
67.0032
67.0319
67.0595
67.086
67.1115
67.1358
67.1592
67.1815
67.2029
67.2233
67.2428
67.2613
67.2788
67.2954
67.311
67.3257
67.3393
67.352
67.3637
67.3744
67.3842
67.3929
67.4007
67.4075
67.4137
67.4182
67.4244
67.2037
67.2017
67.1978
67.1917
67.1835
67.1733
67.1611
67.1468
67.1303
67.1118
67.0911
67.0682
67.0432
67.0159
66.9863
66.9545
66.9203
66.8838
66.8449
66.8035
66.7597
66.7134
66.6645
66.6131
66.5591
66.5024
66.4431
66.3812
66.3165
66.2491
66.179
66.1061
66.0306
65.9523
65.8713
65.7877
65.7014
65.6125
65.5211
65.4272
65.3308
65.2322
65.1312
65.0282
64.923
64.816
64.7072
64.5966
64.4846
64.3712
64.2565
64.1407
64.0241
63.9066
63.7886
63.6701
63.5513
63.4324
63.3134
63.1947
63.0763
62.9582
62.8408
62.7241
62.6081
62.4931
62.3791
62.2661
62.1544
62.0439
61.9347
61.8269
61.7205
61.6156
61.5122
61.4103
61.31
61.2113
61.1141
61.0186
60.9247
60.8323
60.7416
60.6526
60.5651
60.4793
60.3951
60.3125
60.2316
60.1523
60.0747
59.9988
59.9245
59.852
59.7813
59.7123
59.6451
59.5798
59.5163
59.4549
59.3954
59.3379
59.2826
59.2295
59.1786
59.13
59.0837
59.0399
58.9987
58.96
58.9239
58.8906
58.8601
58.8325
58.8078
58.7861
58.7675
58.7519
58.7396
58.7304
58.7246
58.7221
58.7229
58.7271
58.7348
58.7458
58.7604
58.7785
58.8
58.8251
58.8536
58.8857
58.9213
58.9603
59.0028
59.0488
59.0982
59.151
59.2071
59.2665
59.3293
59.3952
59.4643
59.5366
59.6119
59.6902
59.7714
59.8555
59.9423
60.0318
60.1239
60.2186
60.3157
60.415
60.5167
60.6204
60.7261
60.8337
60.9431
61.0542
61.1667
61.2807
61.396
61.5124
61.6298
61.7481
61.8671
61.9868
62.1069
62.2273
62.3479
62.4686
62.5893
62.7097
62.8297
62.9494
63.0684
63.1867
63.3042
63.4207
63.5362
63.6505
63.7636
63.8754
63.9857
64.0944
64.2016
64.3071
64.4109
64.5129
64.613
64.7113
64.8076
64.9019
64.9942
65.0845
65.1727
65.2588
65.3429
65.4248
65.5047
65.5824
65.6581
65.7317
65.8032
65.8726
65.94
66.0054
66.0688
66.1303
66.1898
66.2474
66.3031
66.357
66.4091
66.4594
66.508
66.5549
66.6001
66.6438
66.6858
66.7264
66.7654
66.803
66.8392
66.874
66.9075
66.9397
66.9706
67.0004
67.0289
67.0563
67.0827
67.1079
67.1321
67.1553
67.1774
67.1986
67.2189
67.2382
67.2565
67.2739
67.2903
67.3058
67.3203
67.3339
67.3465
67.3581
67.3687
67.3783
67.387
67.3948
67.4015
67.4076
67.4121
67.4183
67.2037
67.2018
67.1978
67.1918
67.1837
67.1735
67.1614
67.1471
67.1308
67.1123
67.0917
67.069
67.044
67.0168
66.9874
66.9557
66.9216
66.8851
66.8463
66.805
66.7612
66.7149
66.666
66.6146
66.5605
66.5037
66.4442
66.382
66.3171
66.2493
66.1788
66.1056
66.0295
65.9506
65.869
65.7846
65.6975
65.6078
65.5154
65.4205
65.323
65.2232
65.121
65.0166
64.9102
64.8017
64.6914
64.5794
64.4658
64.3508
64.2346
64.1172
63.999
63.8799
63.7603
63.6403
63.52
63.3996
63.2793
63.1591
63.0394
62.9201
62.8015
62.6836
62.5667
62.4507
62.3357
62.222
62.1095
61.9983
61.8885
61.7802
61.6733
61.568
61.4642
61.362
61.2614
61.1624
61.0651
60.9694
60.8753
60.7828
60.692
60.6029
60.5153
60.4294
60.3451
60.2624
60.1813
60.1019
60.0241
59.948
59.8735
59.8007
59.7297
59.6604
59.5929
59.5272
59.4634
59.4015
59.3415
59.2836
59.2278
59.1742
59.1227
59.0736
59.0268
58.9824
58.9406
58.9014
58.8648
58.8309
58.7999
58.7717
58.7465
58.7243
58.7052
58.6892
58.6765
58.667
58.6608
58.6579
58.6584
58.6624
58.6698
58.6807
58.6952
58.7131
58.7346
58.7596
58.7882
58.8203
58.856
58.8952
58.9379
58.9841
59.0337
59.0868
59.1433
59.2031
59.2663
59.3327
59.4023
59.4751
59.551
59.6299
59.7118
59.7965
59.8841
59.9744
60.0674
60.1629
60.2609
60.3612
60.4639
60.5686
60.6754
60.7842
60.8947
61.007
61.1208
61.236
61.3525
61.4703
61.589
61.7087
61.8291
61.9501
62.0716
62.1935
62.3155
62.4376
62.5596
62.6815
62.8029
62.9239
63.0443
63.164
63.2828
63.4006
63.5174
63.633
63.7473
63.8602
63.9716
64.0814
64.1897
64.2962
64.4009
64.5038
64.6048
64.7038
64.8008
64.8959
64.9888
65.0797
65.1685
65.2551
65.3396
65.422
65.5022
65.5803
65.6563
65.7301
65.8018
65.8715
65.939
66.0046
66.0681
66.1296
66.1891
66.2467
66.3024
66.3563
66.4083
66.4585
66.507
66.5538
66.599
66.6425
66.6844
66.7247
66.7636
66.801
66.837
66.8717
66.905
66.937
66.9677
66.9972
67.0256
67.0528
67.0789
67.104
67.128
67.1509
67.1729
67.1939
67.214
67.2331
67.2512
67.2684
67.2847
67.3
67.3144
67.3279
67.3403
67.3518
67.3623
67.3719
67.3805
67.3882
67.3948
67.4009
67.4054
67.4116
67.2037
67.2018
67.1978
67.1918
67.1838
67.1738
67.1617
67.1475
67.1313
67.113
67.0925
67.0698
67.045
67.018
66.9887
66.957
66.9231
66.8868
66.848
66.8068
66.763
66.7168
66.6679
66.6164
66.5622
66.5053
66.4456
66.3832
66.318
66.2499
66.179
66.1052
66.0286
65.9491
65.8668
65.7816
65.6936
65.6029
65.5095
65.4134
65.3147
65.2136
65.1101
65.0042
64.8963
64.7862
64.6743
64.5606
64.4453
64.3286
64.2106
64.0914
63.9714
63.8506
63.7293
63.6075
63.4855
63.3635
63.2416
63.12
62.9987
62.8781
62.7582
62.6391
62.521
62.4039
62.288
62.1733
62.06
61.9481
61.8377
61.7287
61.6214
61.5156
61.4114
61.3089
61.208
61.1088
61.0113
60.9154
60.8212
60.7286
60.6377
60.5484
60.4608
60.3748
60.2903
60.2075
60.1264
60.0468
59.9688
59.8925
59.8178
59.7447
59.6734
59.6038
59.5359
59.4698
59.4055
59.3432
59.2827
59.2243
59.1679
59.1137
59.0617
59.0119
58.9645
58.9196
58.8771
58.8372
58.8
58.7655
58.7339
58.7051
58.6794
58.6566
58.637
58.6205
58.6073
58.5974
58.5907
58.5875
58.5877
58.5914
58.5986
58.6093
58.6236
58.6414
58.6628
58.6878
58.7164
58.7486
58.7844
58.8237
58.8666
58.913
58.963
59.0164
59.0732
59.1335
59.1971
59.264
59.3341
59.4075
59.484
59.5636
59.6462
59.7318
59.8202
59.9114
60.0053
60.1017
60.2007
60.3021
60.4058
60.5117
60.6197
60.7297
60.8415
60.9551
61.0702
61.1868
61.3048
61.424
61.5442
61.6653
61.7873
61.9098
62.0329
62.1563
62.2799
62.4036
62.5272
62.6506
62.7736
62.8961
63.0181
63.1392
63.2595
63.3788
63.4969
63.6139
63.7295
63.8436
63.9563
64.0674
64.1767
64.2843
64.3901
64.494
64.5959
64.6958
64.7937
64.8895
64.9831
65.0747
65.1641
65.2513
65.3363
65.4191
65.4998
65.5782
65.6545
65.7286
65.8006
65.8704
65.9381
66.0038
66.0674
66.1289
66.1885
66.2461
66.3018
66.3556
66.4076
66.4577
66.5061
66.5528
66.5977
66.6411
66.6828
66.723
66.7617
66.7989
66.8347
66.8692
66.9022
66.934
66.9645
66.9939
67.022
67.049
67.0749
67.0997
67.1235
67.1462
67.168
67.1888
67.2086
67.2275
67.2454
67.2625
67.2786
67.2937
67.3079
67.3212
67.3335
67.3449
67.3553
67.3648
67.3733
67.3809
67.3875
67.3936
67.398
67.4042
67.2037
67.2018
67.1979
67.1919
67.184
67.174
67.162
67.148
67.1319
67.1137
67.0933
67.0709
67.0462
67.0193
66.9901
66.9587
66.9248
66.8886
66.85
66.8089
66.7652
66.719
66.6701
66.6186
66.5643
66.5073
66.4475
66.3848
66.3193
66.2509
66.1795
66.1052
66.028
65.9478
65.8647
65.7787
65.6898
65.598
65.5034
65.4061
65.3061
65.2035
65.0985
64.9911
64.8814
64.7696
64.6559
64.5403
64.4231
64.3045
64.1845
64.0634
63.9414
63.8187
63.6954
63.5717
63.4479
63.3241
63.2004
63.0771
62.9543
62.8321
62.7108
62.5903
62.471
62.3527
62.2358
62.1202
62.006
61.8933
61.7821
61.6726
61.5647
61.4584
61.3539
61.251
61.1499
61.0505
60.9527
60.8567
60.7624
60.6697
60.5787
60.4894
60.4017
60.3156
60.2311
60.1482
60.0668
59.9871
59.909
59.8324
59.7575
59.6842
59.6125
59.5425
59.4742
59.4077
59.3429
59.28
59.2191
59.1601
59.1031
59.0482
58.9955
58.9451
58.897
58.8514
58.8082
58.7677
58.7298
58.6946
58.6623
58.6329
58.6065
58.5831
58.5629
58.5459
58.5321
58.5217
58.5147
58.511
58.5109
58.5143
58.5212
58.5317
58.5457
58.5635
58.5848
58.6098
58.6384
58.6706
58.7065
58.746
58.7891
58.8357
58.886
58.9397
58.997
59.0577
59.1217
59.1892
59.26
59.334
59.4112
59.4915
59.5749
59.6613
59.7506
59.8427
59.9376
60.0351
60.1352
60.2377
60.3426
60.4497
60.559
60.6703
60.7835
60.8985
61.0151
61.1333
61.2528
61.3735
61.4954
61.6182
61.7418
61.866
61.9908
62.1159
62.2412
62.3666
62.492
62.6171
62.7418
62.866
62.9896
63.1124
63.2343
63.3551
63.4748
63.5933
63.7103
63.8259
63.9399
64.0523
64.1629
64.2717
64.3786
64.4836
64.5865
64.6874
64.7861
64.8828
64.9772
65.0695
65.1595
65.2473
65.3329
65.4162
65.4973
65.5762
65.6528
65.7272
65.7994
65.8695
65.9373
66.0031
66.0668
66.1284
66.188
66.2456
66.3013
66.355
66.4069
66.4569
66.5052
66.5517
66.5965
66.6397
66.6812
66.7212
66.7597
66.7967
66.8323
66.8665
66.8993
66.9309
66.9611
66.9902
67.0181
67.0448
67.0705
67.095
67.1186
67.1411
67.1626
67.1831
67.2028
67.2214
67.2392
67.256
67.2719
67.2868
67.3009
67.314
67.3262
67.3374
67.3477
67.357
67.3655
67.373
67.3795
67.3856
67.3899
67.3961
67.2037
67.2018
67.1979
67.1921
67.1842
67.1743
67.1624
67.1485
67.1325
67.1145
67.0943
67.072
67.0475
67.0208
66.9918
66.9605
66.9269
66.8908
66.8523
66.8113
66.7678
66.7216
66.6728
66.6212
66.5669
66.5098
66.4498
66.3869
66.3211
66.2523
66.1805
66.1057
66.0278
65.9469
65.863
65.776
65.6861
65.5932
65.4973
65.3987
65.2972
65.1931
65.0864
64.9772
64.8657
64.752
64.6362
64.5186
64.3993
64.2785
64.1564
64.0332
63.909
63.7841
63.6587
63.5329
63.407
63.2812
63.1557
63.0305
62.906
62.7822
62.6592
62.5374
62.4166
62.2972
62.1791
62.0624
61.9473
61.8338
61.7219
61.6117
61.5033
61.3966
61.2916
61.1884
61.087
60.9874
60.8895
60.7934
60.699
60.6062
60.5152
60.4258
60.338
60.2519
60.1673
60.0843
60.0029
59.923
59.8447
59.768
59.6928
59.6191
59.5471
59.4767
59.408
59.341
59.2758
59.2123
59.1507
59.0911
59.0335
58.9779
58.9245
58.8733
58.8245
58.7781
58.7341
58.6928
58.6541
58.6182
58.5852
58.555
58.5279
58.5039
58.483
58.4654
58.4511
58.4401
58.4326
58.4285
58.428
58.431
58.4376
58.4479
58.4617
58.4793
58.5005
58.5255
58.5541
58.5864
58.6224
58.662
58.7053
58.7523
58.8028
58.8569
58.9146
58.9758
59.0404
59.1084
59.1798
59.2545
59.3324
59.4135
59.4978
59.5851
59.6753
59.7684
59.8643
59.963
60.0642
60.168
60.2742
60.3827
60.4934
60.6061
60.7208
60.8373
60.9556
61.0753
61.1965
61.319
61.4426
61.5672
61.6926
61.8187
61.9453
62.0723
62.1995
62.3268
62.454
62.5809
62.7075
62.8336
62.959
63.0836
63.2072
63.3298
63.4512
63.5712
63.6899
63.807
63.9225
64.0363
64.1483
64.2584
64.3665
64.4726
64.5767
64.6786
64.7783
64.8759
64.9712
65.0642
65.155
65.2434
65.3296
65.4134
65.495
65.5742
65.6512
65.7259
65.7984
65.8687
65.9367
66.0026
66.0664
66.1281
66.1877
66.2453
66.3009
66.3545
66.4063
66.4562
66.5043
66.5507
66.5953
66.6383
66.6796
66.7194
66.7576
66.7944
66.8297
66.8637
66.8962
66.9275
66.9575
66.9863
67.0139
67.0404
67.0658
67.09
67.1133
67.1355
67.1568
67.1771
67.1965
67.2149
67.2324
67.249
67.2646
67.2794
67.2933
67.3062
67.3182
67.3293
67.3394
67.3487
67.357
67.3644
67.3709
67.3769
67.3812
67.3873
67.2037
67.2018
67.198
67.1922
67.1844
67.1746
67.1629
67.1491
67.1333
67.1154
67.0955
67.0733
67.0491
67.0225
66.9938
66.9627
66.9292
66.8934
66.8551
66.8142
66.7708
66.7247
66.6759
66.6244
66.5701
66.5128
66.4527
66.3896
66.3235
66.2543
66.1821
66.1067
66.0282
65.9465
65.8617
65.7738
65.6827
65.5886
65.4914
65.3912
65.2882
65.1824
65.0738
64.9627
64.8492
64.7334
64.6155
64.4956
64.374
64.2509
64.1264
64.0007
63.8742
63.7469
63.6191
63.4911
63.363
63.235
63.1074
62.9802
62.8538
62.7282
62.6036
62.4801
62.3579
62.2371
62.1178
62.0001
61.884
61.7696
61.657
61.5462
61.4371
61.33
61.2246
61.1212
61.0195
60.9197
60.8217
60.7255
60.631
60.5383
60.4472
60.3578
60.27
60.1838
60.0992
60.0162
59.9347
59.8547
59.7762
59.6993
59.6238
59.5499
59.4775
59.4067
59.3375
59.27
59.2042
59.1402
59.0779
59.0176
58.9592
58.9029
58.8487
58.7967
58.7471
58.6998
58.655