/*--------------------------------*- C++ -*----------------------------------*\
| =========                 |                                                 |
| \\      /  F ield         | OpenFOAM: The Open Source CFD Toolbox           |
|  \\    /   O peration     | Version:  2306                                  |
|   \\  /    A nd           | Website:  www.openfoam.com                      |
|    \\/     M anipulation  |                                                 |
\*---------------------------------------------------------------------------*/
FoamFile
{
    version     2.0;
    format      ascii;
    arch        "LSB;label=32;scalar=64";
    class       volScalarField;
    location    "7";
    object      p;
}
// * * * * * * * * * * * * * * * * * * * * * * * * * * * * * * * * * * * * * //

dimensions      [0 2 -2 0 0 0 0];

internalField   nonuniform List<scalar> 
32768
(
0.264885
0.264751
0.26446
0.264
0.263373
0.262582
0.261626
0.260503
0.259212
0.257749
0.256115
0.254305
0.252318
0.250151
0.247802
0.245268
0.242545
0.23963
0.23652
0.233211
0.229701
0.225986
0.222061
0.217924
0.213571
0.208999
0.204204
0.199184
0.193935
0.188454
0.182739
0.176787
0.170598
0.164168
0.157497
0.150585
0.14343
0.136034
0.128397
0.12052
0.112406
0.104057
0.0954769
0.0866693
0.077639
0.0683916
0.058933
0.04927
0.0394101
0.0293614
0.0191325
0.00873273
-0.00182812
-0.0125398
-0.0233915
-0.0343721
-0.0454703
-0.0566744
-0.0679725
-0.0793526
-0.0908026
-0.10231
-0.113864
-0.125452
-0.137062
-0.148683
-0.160304
-0.171914
-0.183502
-0.195059
-0.206574
-0.218039
-0.229445
-0.240782
-0.252045
-0.263224
-0.274314
-0.285307
-0.296197
-0.306979
-0.317646
-0.328194
-0.338618
-0.348912
-0.359072
-0.369094
-0.378973
-0.388705
-0.398285
-0.407709
-0.416972
-0.426069
-0.434996
-0.443748
-0.45232
-0.460705
-0.4689
-0.476896
-0.48469
-0.492273
-0.499641
-0.506785
-0.513699
-0.520377
-0.526809
-0.532991
-0.538913
-0.544569
-0.54995
-0.555051
-0.559862
-0.564378
-0.56859
-0.572493
-0.57608
-0.579345
-0.582281
-0.584883
-0.587146
-0.589067
-0.59064
-0.591862
-0.59273
-0.593242
-0.593396
-0.593191
-0.592626
-0.591702
-0.59042
-0.58878
-0.586786
-0.58444
-0.581745
-0.578705
-0.575327
-0.571614
-0.567573
-0.56321
-0.558534
-0.553551
-0.548271
-0.542702
-0.536853
-0.530735
-0.524357
-0.517732
-0.510869
-0.503781
-0.496479
-0.488976
-0.481284
-0.473417
-0.465386
-0.457206
-0.448889
-0.440449
-0.4319
-0.423254
-0.414526
-0.405729
-0.396876
-0.387981
-0.379057
-0.370115
-0.36117
-0.352233
-0.343316
-0.334432
-0.32559
-0.316803
-0.30808
-0.299432
-0.290868
-0.282396
-0.274026
-0.265766
-0.257622
-0.249602
-0.241712
-0.233957
-0.226343
-0.218875
-0.211556
-0.20439
-0.197381
-0.19053
-0.183839
-0.177312
-0.170947
-0.164747
-0.158711
-0.152839
-0.147131
-0.141586
-0.136202
-0.13098
-0.125915
-0.121007
-0.116254
-0.111653
-0.107201
-0.102895
-0.0987336
-0.0947125
-0.0908289
-0.0870794
-0.0834608
-0.0799697
-0.0766027
-0.0733562
-0.0702267
-0.0672108
-0.0643049
-0.0615056
-0.0588093
-0.0562126
-0.053712
-0.0513042
-0.0489859
-0.0467536
-0.0446042
-0.0425344
-0.0405411
-0.0386213
-0.0367719
-0.0349899
-0.0332724
-0.0316166
-0.0300198
-0.0284792
-0.0269921
-0.0255559
-0.0241682
-0.0228264
-0.0215281
-0.020271
-0.0190526
-0.0178708
-0.0167233
-0.0156079
-0.0145224
-0.0134648
-0.0124329
-0.0114248
-0.0104383
-0.0094716
-0.00852271
-0.00758976
-0.00667087
-0.00576433
-0.00486812
-0.00398127
-0.00310001
-0.00222854
-0.00134829
-0.000498129
0.265047
0.264914
0.264622
0.264163
0.263537
0.262746
0.261791
0.260669
0.259378
0.257917
0.256283
0.254475
0.252489
0.250324
0.247976
0.245443
0.242721
0.239807
0.236698
0.233391
0.229882
0.226167
0.222243
0.218106
0.213754
0.209182
0.204387
0.199365
0.194115
0.188633
0.182916
0.176962
0.17077
0.164337
0.157662
0.150745
0.143586
0.136184
0.128541
0.120657
0.112536
0.104179
0.0955902
0.0867735
0.0777336
0.068476
0.0590067
0.0493327
0.0394613
0.0294007
0.0191597
0.00874757
-0.00182582
-0.0125501
-0.0234145
-0.0344079
-0.0455187
-0.0567352
-0.0680456
-0.0794376
-0.0908993
-0.102418
-0.113983
-0.125581
-0.137201
-0.148832
-0.160461
-0.172079
-0.183675
-0.195239
-0.206761
-0.218231
-0.229642
-0.240985
-0.252252
-0.263435
-0.274528
-0.285524
-0.296416
-0.3072
-0.317869
-0.328419
-0.338844
-0.349139
-0.359301
-0.369324
-0.379204
-0.388937
-0.398518
-0.407943
-0.417207
-0.426306
-0.435235
-0.443989
-0.452563
-0.460951
-0.469148
-0.477148
-0.484944
-0.492531
-0.499903
-0.507051
-0.513969
-0.520651
-0.527088
-0.533274
-0.539201
-0.544862
-0.550249
-0.555354
-0.56017
-0.564691
-0.568909
-0.572816
-0.576408
-0.579676
-0.582617
-0.585223
-0.58749
-0.589414
-0.59099
-0.592215
-0.593086
-0.5936
-0.593756
-0.593552
-0.592988
-0.592065
-0.590783
-0.589143
-0.587148
-0.584801
-0.582105
-0.579064
-0.575683
-0.571968
-0.567924
-0.563558
-0.558878
-0.553892
-0.548607
-0.543033
-0.537179
-0.531055
-0.524672
-0.51804
-0.511171
-0.504076
-0.496767
-0.489257
-0.481558
-0.473682
-0.465643
-0.457454
-0.449129
-0.44068
-0.432122
-0.423467
-0.41473
-0.405923
-0.39706
-0.388155
-0.379221
-0.37027
-0.361314
-0.352367
-0.343441
-0.334546
-0.325695
-0.316898
-0.308165
-0.299508
-0.290934
-0.282454
-0.274075
-0.265806
-0.257653
-0.249625
-0.241727
-0.233965
-0.226344
-0.218869
-0.211543
-0.204371
-0.197356
-0.190499
-0.183804
-0.177271
-0.170902
-0.164698
-0.158658
-0.152783
-0.147071
-0.141523
-0.136138
-0.130913
-0.125846
-0.120937
-0.116182
-0.11158
-0.107127
-0.102821
-0.0986587
-0.0946374
-0.0907537
-0.0870044
-0.0833862
-0.0798956
-0.0765291
-0.0732834
-0.0701548
-0.0671399
-0.0642352
-0.0614371
-0.0587421
-0.0561467
-0.0536476
-0.0512413
-0.0489245
-0.0466938
-0.044546
-0.0424779
-0.0404863
-0.0385682
-0.0367205
-0.0349403
-0.0332246
-0.0315706
-0.0299755
-0.0284366
-0.0269513
-0.0255169
-0.024131
-0.0227909
-0.0214944
-0.020239
-0.0190223
-0.0178422
-0.0166964
-0.0155827
-0.0144988
-0.0134428
-0.0124126
-0.011406
-0.0104212
-0.00945604
-0.00850871
-0.0075773
-0.00665993
-0.0057549
-0.00486016
-0.0039748
-0.00309492
-0.00222499
-0.00134574
-0.000498058
0.265372
0.265238
0.264948
0.264489
0.263864
0.263075
0.262121
0.261
0.259712
0.258252
0.256621
0.254815
0.252832
0.250669
0.248323
0.245793
0.243073
0.240162
0.237056
0.23375
0.230243
0.22653
0.222607
0.218472
0.214119
0.209547
0.204751
0.199729
0.194476
0.188991
0.183271
0.177313
0.171114
0.164675
0.157993
0.151067
0.143898
0.136485
0.128829
0.120932
0.112796
0.104423
0.0958175
0.0869826
0.0779234
0.0686453
0.0591547
0.0494584
0.039564
0.0294796
0.0192142
0.00877727
-0.00182132
-0.012571
-0.023461
-0.0344798
-0.0456159
-0.0568575
-0.0681924
-0.0796085
-0.0910935
-0.102635
-0.114222
-0.125841
-0.137481
-0.14913
-0.160777
-0.172412
-0.184023
-0.1956
-0.207135
-0.218618
-0.230039
-0.241391
-0.252666
-0.263857
-0.274956
-0.285958
-0.296855
-0.307643
-0.318316
-0.328869
-0.339297
-0.349595
-0.359758
-0.369783
-0.379666
-0.389401
-0.398984
-0.408411
-0.417679
-0.426781
-0.435713
-0.444471
-0.45305
-0.461443
-0.469645
-0.477651
-0.485454
-0.493048
-0.500427
-0.507583
-0.51451
-0.521201
-0.527647
-0.533843
-0.539779
-0.54545
-0.550847
-0.555962
-0.560788
-0.565319
-0.569546
-0.573463
-0.577064
-0.580342
-0.58329
-0.585905
-0.58818
-0.59011
-0.591693
-0.592923
-0.593799
-0.594318
-0.594477
-0.594276
-0.593715
-0.592793
-0.591511
-0.589871
-0.587875
-0.585526
-0.582827
-0.579783
-0.576398
-0.572678
-0.568628
-0.564256
-0.559569
-0.554574
-0.54928
-0.543697
-0.537833
-0.531698
-0.525304
-0.51866
-0.511777
-0.504669
-0.497346
-0.489821
-0.482106
-0.474215
-0.466159
-0.457954
-0.449611
-0.441144
-0.432567
-0.423894
-0.415138
-0.406312
-0.39743
-0.388505
-0.37955
-0.370579
-0.361604
-0.352637
-0.34369
-0.334776
-0.325905
-0.317088
-0.308336
-0.29966
-0.291067
-0.282569
-0.274172
-0.265885
-0.257716
-0.249672
-0.241758
-0.233981
-0.226345
-0.218856
-0.211518
-0.204333
-0.197306
-0.190438
-0.183732
-0.17719
-0.170812
-0.164599
-0.158552
-0.15267
-0.146952
-0.141399
-0.136008
-0.130778
-0.125708
-0.120795
-0.116038
-0.111433
-0.106979
-0.102671
-0.0985085
-0.0944867
-0.090603
-0.0868541
-0.0832365
-0.0797469
-0.0763817
-0.0731375
-0.0700108
-0.0669979
-0.0640954
-0.0612997
-0.0586073
-0.0560147
-0.0535185
-0.0511152
-0.0488014
-0.046574
-0.0444294
-0.0423647
-0.0403765
-0.0384619
-0.0366176
-0.0348409
-0.0331287
-0.0314783
-0.0298867
-0.0283514
-0.0268696
-0.0254388
-0.0240563
-0.0227198
-0.0214268
-0.0201748
-0.0189616
-0.0177849
-0.0166424
-0.0155321
-0.0144516
-0.0133988
-0.0123718
-0.0113685
-0.0103868
-0.00942486
-0.00848065
-0.00755232
-0.00663801
-0.00573599
-0.00484424
-0.00396183
-0.00308485
-0.00221783
-0.00134141
-0.000496791
0.265859
0.265725
0.265435
0.264978
0.264354
0.263567
0.262615
0.261497
0.260211
0.258755
0.257127
0.255324
0.253345
0.251186
0.248845
0.246318
0.243602
0.240695
0.237592
0.23429
0.230785
0.227075
0.223154
0.21902
0.214668
0.210096
0.205299
0.200275
0.195019
0.18953
0.183804
0.177839
0.171633
0.165183
0.15849
0.151551
0.144367
0.136937
0.129263
0.121346
0.113188
0.104791
0.0961593
0.0872969
0.0782086
0.0688999
0.0593771
0.0496472
0.039718
0.0295979
0.0192958
0.00882137
-0.00181518
-0.0126032
-0.0235316
-0.0345888
-0.0457631
-0.0570423
-0.0684142
-0.0798665
-0.0913868
-0.102963
-0.114582
-0.126232
-0.137902
-0.149579
-0.161253
-0.172912
-0.184546
-0.196145
-0.207699
-0.219199
-0.230636
-0.242002
-0.25329
-0.264492
-0.275601
-0.286611
-0.297516
-0.30831
-0.318988
-0.329545
-0.339977
-0.350279
-0.360445
-0.370474
-0.380359
-0.390097
-0.399684
-0.409115
-0.418386
-0.427493
-0.436431
-0.445195
-0.45378
-0.46218
-0.470391
-0.478406
-0.486219
-0.493824
-0.501214
-0.508382
-0.515322
-0.522025
-0.528486
-0.534696
-0.540647
-0.546332
-0.551744
-0.556875
-0.561716
-0.566262
-0.570504
-0.574435
-0.57805
-0.581341
-0.584303
-0.586929
-0.589215
-0.591156
-0.592748
-0.593988
-0.594871
-0.595396
-0.595561
-0.595365
-0.594806
-0.593887
-0.592606
-0.590966
-0.588968
-0.586616
-0.583913
-0.580864
-0.577472
-0.573745
-0.569686
-0.565304
-0.560606
-0.555599
-0.550293
-0.544695
-0.538816
-0.532665
-0.526253
-0.51959
-0.512689
-0.50556
-0.498216
-0.490668
-0.482931
-0.475015
-0.466935
-0.458704
-0.450335
-0.441842
-0.433237
-0.424536
-0.415751
-0.406896
-0.397985
-0.389031
-0.380046
-0.371045
-0.362039
-0.353042
-0.344065
-0.335121
-0.32622
-0.317374
-0.308593
-0.299888
-0.291268
-0.282741
-0.274318
-0.266005
-0.257811
-0.249742
-0.241805
-0.234004
-0.226347
-0.218837
-0.211479
-0.204276
-0.197231
-0.190346
-0.183625
-0.177068
-0.170677
-0.164451
-0.158392
-0.1525
-0.146773
-0.141211
-0.135813
-0.130576
-0.125501
-0.120583
-0.115821
-0.111213
-0.106756
-0.102447
-0.0982828
-0.0942604
-0.0903767
-0.0866282
-0.0830117
-0.0795236
-0.0761603
-0.0729185
-0.0697945
-0.0667846
-0.0638855
-0.0610934
-0.0584049
-0.0558165
-0.0533246
-0.0509258
-0.0486168
-0.0463941
-0.0442545
-0.0421948
-0.0402117
-0.0383022
-0.0364633
-0.0346918
-0.0329849
-0.0313398
-0.0297536
-0.0282236
-0.0267471
-0.0253216
-0.0239444
-0.0226131
-0.0213253
-0.0200785
-0.0188705
-0.0176989
-0.0165615
-0.0154562
-0.0143806
-0.0133329
-0.0123107
-0.0113122
-0.0103354
-0.0093781
-0.00843857
-0.00751487
-0.00660513
-0.00570764
-0.00482036
-0.00394238
-0.00306978
-0.00220711
-0.001335
-0.000494642
0.266507
0.266374
0.266085
0.265629
0.265007
0.264222
0.263274
0.262159
0.260877
0.259425
0.257802
0.256004
0.254029
0.251876
0.249539
0.247018
0.244308
0.241405
0.238307
0.235009
0.231509
0.227802
0.223884
0.219752
0.215401
0.210829
0.206031
0.201004
0.195745
0.19025
0.184517
0.178543
0.172326
0.165863
0.159154
0.152198
0.144994
0.137542
0.129844
0.121899
0.113711
0.105283
0.0966167
0.0877176
0.0785902
0.0692403
0.0596743
0.0498995
0.0399237
0.0297554
0.0194041
0.0088794
-0.00180812
-0.0126476
-0.0236275
-0.0347363
-0.0459617
-0.0572914
-0.068713
-0.0802138
-0.0917813
-0.103403
-0.115066
-0.126758
-0.138467
-0.150182
-0.161891
-0.173584
-0.185248
-0.196875
-0.208455
-0.219978
-0.231436
-0.242821
-0.254126
-0.265342
-0.276464
-0.287485
-0.298399
-0.309201
-0.319886
-0.330449
-0.340886
-0.351192
-0.361363
-0.371395
-0.381284
-0.391026
-0.400617
-0.410053
-0.41933
-0.428443
-0.437388
-0.44616
-0.454753
-0.463164
-0.471385
-0.479412
-0.487239
-0.494858
-0.502263
-0.509448
-0.516404
-0.523126
-0.529605
-0.535834
-0.541805
-0.547511
-0.552943
-0.558094
-0.562955
-0.567521
-0.571783
-0.575734
-0.579367
-0.582677
-0.585655
-0.588298
-0.5906
-0.592555
-0.59416
-0.595411
-0.596304
-0.596838
-0.597011
-0.59682
-0.596266
-0.595349
-0.594069
-0.592429
-0.590429
-0.588074
-0.585366
-0.582309
-0.578909
-0.575171
-0.571102
-0.566707
-0.561994
-0.556971
-0.551647
-0.54603
-0.54013
-0.533958
-0.527522
-0.520835
-0.513908
-0.506752
-0.499379
-0.491802
-0.484034
-0.476086
-0.467974
-0.459708
-0.451304
-0.442775
-0.434134
-0.425395
-0.416572
-0.407679
-0.398728
-0.389734
-0.38071
-0.371668
-0.362622
-0.353585
-0.344568
-0.335583
-0.326642
-0.317757
-0.308937
-0.300194
-0.291536
-0.282973
-0.274513
-0.266166
-0.257937
-0.249836
-0.241866
-0.234036
-0.226349
-0.218812
-0.211427
-0.204199
-0.19713
-0.190223
-0.183481
-0.176905
-0.170495
-0.164253
-0.158179
-0.152272
-0.146533
-0.14096
-0.135551
-0.130306
-0.125223
-0.120299
-0.115532
-0.110919
-0.106459
-0.102147
-0.097981
-0.0939578
-0.0900741
-0.0863264
-0.0827112
-0.0792251
-0.0758645
-0.0726258
-0.0695055
-0.0664998
-0.0636051
-0.060818
-0.0581347
-0.0555518
-0.0530657
-0.050673
-0.0483702
-0.046154
-0.044021
-0.041968
-0.0399918
-0.0380892
-0.0362572
-0.0344928
-0.032793
-0.031155
-0.0295759
-0.028053
-0.0265837
-0.0251652
-0.0237951
-0.0224709
-0.02119
-0.0199502
-0.018749
-0.0175842
-0.0164536
-0.015355
-0.0142861
-0.0132449
-0.0122293
-0.0112372
-0.0102667
-0.00931575
-0.00838245
-0.00746492
-0.00656128
-0.00566983
-0.00478852
-0.00391645
-0.00304969
-0.00219281
-0.00132643
-0.000491738
0.267316
0.267184
0.266896
0.266442
0.265823
0.265041
0.264096
0.262986
0.261709
0.260262
0.258644
0.256853
0.254885
0.252738
0.250408
0.247893
0.24519
0.242294
0.239202
0.23591
0.232415
0.228712
0.224798
0.220668
0.21632
0.211748
0.206948
0.201919
0.196655
0.191153
0.185411
0.179426
0.173195
0.166716
0.159989
0.153011
0.145782
0.138302
0.130573
0.122594
0.114369
0.105901
0.0971912
0.0882458
0.0790693
0.0696675
0.0600472
0.0502157
0.040181
0.0299522
0.0195387
0.00895068
-0.0018011
-0.0127054
-0.0237504
-0.0349241
-0.046214
-0.0576074
-0.0690915
-0.0806534
-0.0922801
-0.103959
-0.115677
-0.127422
-0.139181
-0.150943
-0.162697
-0.17443
-0.186133
-0.197795
-0.209406
-0.220959
-0.232443
-0.243851
-0.255176
-0.26641
-0.277547
-0.288582
-0.299507
-0.310319
-0.321013
-0.331583
-0.342025
-0.352337
-0.362512
-0.372549
-0.382443
-0.392189
-0.401786
-0.411227
-0.420511
-0.429631
-0.438585
-0.447366
-0.455971
-0.464394
-0.472629
-0.480671
-0.488514
-0.496151
-0.503576
-0.510781
-0.517759
-0.524504
-0.531006
-0.53726
-0.543256
-0.548986
-0.554444
-0.559621
-0.564508
-0.569099
-0.573386
-0.577362
-0.581019
-0.584351
-0.587352
-0.590015
-0.592336
-0.594309
-0.595931
-0.597196
-0.598103
-0.598648
-0.598829
-0.598646
-0.598098
-0.597184
-0.595906
-0.594265
-0.592263
-0.589903
-0.587188
-0.584123
-0.580713
-0.576962
-0.572878
-0.568467
-0.563736
-0.558693
-0.553346
-0.547706
-0.54178
-0.53558
-0.529116
-0.522398
-0.515438
-0.508248
-0.50084
-0.493226
-0.485419
-0.477432
-0.469277
-0.460969
-0.452522
-0.443947
-0.43526
-0.426474
-0.417604
-0.408661
-0.399661
-0.390617
-0.381543
-0.372451
-0.363354
-0.354266
-0.345198
-0.336163
-0.327173
-0.318238
-0.309369
-0.300577
-0.291872
-0.283263
-0.274758
-0.266367
-0.258096
-0.249953
-0.241944
-0.234075
-0.226352
-0.218779
-0.211361
-0.204101
-0.197003
-0.190068
-0.1833
-0.176699
-0.170267
-0.164004
-0.157911
-0.151987
-0.146232
-0.140644
-0.135223
-0.129967
-0.124874
-0.119942
-0.115168
-0.11055
-0.106085
-0.10177
-0.0976024
-0.0935783
-0.0896946
-0.0859478
-0.0823345
-0.078851
-0.0754937
-0.072259
-0.0691433
-0.0661428
-0.0632539
-0.0604729
-0.0577962
-0.0552203
-0.0527415
-0.0503564
-0.0480615
-0.0458534
-0.0437287
-0.0416841
-0.0397165
-0.0378226
-0.0359994
-0.0342438
-0.0325529
-0.0309238
-0.0293537
-0.0278397
-0.0263792
-0.0249697
-0.0236084
-0.0222929
-0.0210208
-0.0197896
-0.0185971
-0.0174408
-0.0163187
-0.0152284
-0.0141678
-0.0131349
-0.0121274
-0.0111434
-0.0101808
-0.00923779
-0.00831229
-0.00740248
-0.00650647
-0.00562256
-0.00474871
-0.00388403
-0.00302458
-0.00217493
-0.00131573
-0.000488097
0.268286
0.268154
0.267868
0.267416
0.2668
0.266022
0.265082
0.263977
0.262706
0.261266
0.259655
0.257871
0.255911
0.253772
0.251451
0.248944
0.246249
0.243361
0.240276
0.236992
0.233503
0.229806
0.225897
0.221771
0.217424
0.212853
0.208052
0.203019
0.19775
0.192241
0.186489
0.18049
0.174243
0.167745
0.160995
0.153991
0.146732
0.139219
0.131453
0.123434
0.115164
0.106646
0.0978846
0.0888832
0.0796473
0.0701828
0.0604966
0.0505963
0.0404904
0.0301881
0.0196992
0.00903435
-0.00179538
-0.0127783
-0.0239022
-0.0351546
-0.0465226
-0.0579931
-0.0695529
-0.0811888
-0.0928873
-0.104635
-0.11642
-0.128228
-0.140048
-0.151867
-0.163673
-0.175456
-0.187204
-0.198908
-0.210558
-0.222145
-0.23366
-0.245096
-0.256445
-0.2677
-0.278855
-0.289905
-0.300844
-0.311667
-0.32237
-0.332948
-0.343397
-0.353714
-0.363895
-0.373937
-0.383835
-0.393587
-0.403189
-0.412638
-0.421928
-0.431058
-0.440021
-0.448814
-0.457433
-0.46587
-0.474122
-0.482183
-0.490046
-0.497704
-0.505152
-0.512382
-0.519387
-0.526159
-0.53269
-0.538973
-0.545
-0.550761
-0.55625
-0.561458
-0.566377
-0.570999
-0.575317
-0.579322
-0.583008
-0.586368
-0.589395
-0.592084
-0.594428
-0.596423
-0.598064
-0.599348
-0.60027
-0.600829
-0.601022
-0.600848
-0.600306
-0.599397
-0.59812
-0.596479
-0.594474
-0.592108
-0.589385
-0.58631
-0.582887
-0.579122
-0.57502
-0.570589
-0.565836
-0.560769
-0.555396
-0.549727
-0.54377
-0.537537
-0.531038
-0.524283
-0.517285
-0.510054
-0.502602
-0.494944
-0.48709
-0.479055
-0.470851
-0.462491
-0.453991
-0.445362
-0.43662
-0.427777
-0.418848
-0.409847
-0.400788
-0.391684
-0.382549
-0.373396
-0.364238
-0.355088
-0.34596
-0.336864
-0.327813
-0.318818
-0.30989
-0.30104
-0.292278
-0.283613
-0.275054
-0.266609
-0.258287
-0.250094
-0.242037
-0.234122
-0.226354
-0.218739
-0.211281
-0.203983
-0.196849
-0.189881
-0.183081
-0.17645
-0.169991
-0.163703
-0.157587
-0.151642
-0.145868
-0.140263
-0.134827
-0.129558
-0.124453
-0.119511
-0.114729
-0.110105
-0.105635
-0.101316
-0.0971462
-0.093121
-0.0892374
-0.0854918
-0.0818807
-0.0784004
-0.0750473
-0.0718175
-0.0687074
-0.0657132
-0.0628312
-0.0600577
-0.0573891
-0.0548216
-0.0523517
-0.0499757
-0.0476903
-0.045492
-0.0433773
-0.0413429
-0.0393857
-0.0375023
-0.0356896
-0.0339447
-0.0322645
-0.0306461
-0.0290867
-0.0275834
-0.0261337
-0.0247348
-0.0233841
-0.0220792
-0.0208176
-0.0195968
-0.0184146
-0.0172687
-0.0161567
-0.0150765
-0.0140259
-0.0130028
-0.0120051
-0.0110308
-0.0100778
-0.00914421
-0.00822808
-0.00732752
-0.00644067
-0.00556582
-0.00470093
-0.00384511
-0.00299443
-0.00215346
-0.00130287
-0.000483722
0.269415
0.269284
0.269
0.26855
0.267938
0.267165
0.266231
0.265132
0.263868
0.262436
0.260833
0.259058
0.257107
0.254978
0.252667
0.25017
0.247485
0.244606
0.241531
0.238256
0.234775
0.231085
0.227182
0.22306
0.218717
0.214146
0.209345
0.204309
0.199034
0.193516
0.187752
0.181738
0.175473
0.168953
0.162176
0.155142
0.147849
0.140297
0.132487
0.124419
0.116097
0.107522
0.0986993
0.089632
0.0803259
0.0707874
0.0610235
0.0510421
0.0408521
0.0304629
0.019885
0.00912935
-0.00179248
-0.0128683
-0.0240854
-0.0354307
-0.0468909
-0.0584525
-0.0701016
-0.0818245
-0.0936076
-0.105437
-0.1173
-0.129183
-0.141073
-0.152959
-0.164827
-0.176668
-0.188469
-0.200222
-0.211916
-0.223543
-0.235094
-0.246561
-0.257937
-0.269216
-0.280392
-0.29146
-0.302413
-0.313248
-0.323961
-0.334547
-0.345004
-0.355327
-0.365513
-0.375559
-0.385463
-0.395221
-0.404829
-0.414285
-0.423584
-0.432723
-0.441698
-0.450505
-0.459138
-0.467593
-0.475865
-0.483947
-0.491833
-0.499518
-0.506993
-0.514253
-0.521289
-0.528093
-0.534659
-0.540977
-0.547039
-0.552837
-0.558363
-0.563609
-0.568565
-0.573224
-0.577577
-0.581618
-0.585339
-0.588732
-0.59179
-0.594509
-0.596881
-0.598902
-0.600567
-0.601871
-0.602812
-0.603387
-0.603594
-0.60343
-0.602896
-0.601992
-0.600718
-0.599076
-0.597067
-0.594695
-0.591964
-0.588876
-0.585438
-0.581655
-0.577533
-0.573079
-0.5683
-0.563205
-0.557801
-0.552098
-0.546106
-0.539834
-0.533294
-0.526496
-0.519452
-0.512173
-0.504672
-0.496961
-0.489053
-0.480961
-0.472698
-0.464279
-0.455716
-0.447024
-0.438216
-0.429307
-0.420311
-0.411241
-0.402112
-0.392937
-0.383731
-0.374506
-0.365276
-0.356055
-0.346854
-0.337687
-0.328565
-0.319499
-0.310502
-0.301584
-0.292754
-0.284023
-0.2754
-0.266893
-0.25851
-0.250258
-0.242145
-0.234176
-0.226356
-0.218692
-0.211186
-0.203844
-0.196667
-0.189659
-0.182822
-0.176158
-0.169666
-0.163349
-0.157205
-0.151236
-0.14544
-0.139815
-0.134362
-0.129077
-0.123959
-0.119006
-0.114214
-0.109582
-0.105107
-0.100784
-0.0966111
-0.0925848
-0.0887015
-0.0849575
-0.0813491
-0.0778726
-0.0745243
-0.0713004
-0.0681969
-0.0652102
-0.0623364
-0.0595718
-0.0569126
-0.0543551
-0.0518956
-0.0495305
-0.0472563
-0.0450694
-0.0429665
-0.0409441
-0.0389989
-0.0371278
-0.0353276
-0.0335952
-0.0319275
-0.0303217
-0.0287748
-0.0272841
-0.0258469
-0.0244605
-0.0231223
-0.0218297
-0.0205804
-0.0193718
-0.0182017
-0.0170677
-0.0159676
-0.0148991
-0.0138602
-0.0128486
-0.0118624
-0.0108993
-0.00995753
-0.009035
-0.0081298
-0.00724005
-0.00636389
-0.00549961
-0.00464517
-0.00379969
-0.00295925
-0.00212841
-0.00128787
-0.000478609
0.270703
0.270573
0.27029
0.269844
0.269237
0.268469
0.267541
0.26645
0.265194
0.263771
0.262178
0.260414
0.258474
0.256356
0.254056
0.251572
0.248898
0.246031
0.242968
0.239702
0.236232
0.23255
0.228654
0.224539
0.220199
0.21563
0.210829
0.205789
0.200508
0.194981
0.189204
0.183173
0.176887
0.170342
0.163536
0.156467
0.149134
0.141538
0.133678
0.125555
0.117172
0.108532
0.0996378
0.0904944
0.0811074
0.0714832
0.0616293
0.0515539
0.0412663
0.0307766
0.0200954
0.00923441
-0.00179423
-0.0129777
-0.0243029
-0.0357559
-0.047323
-0.0589899
-0.0707423
-0.082566
-0.0944467
-0.10637
-0.118323
-0.130292
-0.142264
-0.154225
-0.166165
-0.178072
-0.189934
-0.201742
-0.213487
-0.225158
-0.236749
-0.248252
-0.259659
-0.270965
-0.282163
-0.293249
-0.304218
-0.315066
-0.325789
-0.336384
-0.346847
-0.357176
-0.367368
-0.377419
-0.387328
-0.397091
-0.406706
-0.416169
-0.425477
-0.434628
-0.443616
-0.452437
-0.461088
-0.469563
-0.477857
-0.485964
-0.493878
-0.501592
-0.5091
-0.516393
-0.523465
-0.530308
-0.536913
-0.543272
-0.549376
-0.555217
-0.560786
-0.566075
-0.571075
-0.575777
-0.580173
-0.584255
-0.588015
-0.591446
-0.594542
-0.597295
-0.5997
-0.601751
-0.603443
-0.604772
-0.605735
-0.606329
-0.606551
-0.6064
-0.605875
-0.604977
-0.603706
-0.602063
-0.60005
-0.597671
-0.594929
-0.591828
-0.588373
-0.58457
-0.580424
-0.575944
-0.571135
-0.566007
-0.560568
-0.554827
-0.548794
-0.542478
-0.535891
-0.529043
-0.521946
-0.514612
-0.507054
-0.499282
-0.491312
-0.483155
-0.474826
-0.466337
-0.457703
-0.448938
-0.440056
-0.43107
-0.421996
-0.412847
-0.403637
-0.394381
-0.385092
-0.375785
-0.366472
-0.357168
-0.347884
-0.338634
-0.32943
-0.320284
-0.311207
-0.30221
-0.293303
-0.284496
-0.275798
-0.267219
-0.258766
-0.250447
-0.242268
-0.234237
-0.226358
-0.218636
-0.211076
-0.203682
-0.196457
-0.189404
-0.182524
-0.175819
-0.169291
-0.16294
-0.156766
-0.150768
-0.144946
-0.139299
-0.133826
-0.128523
-0.12339
-0.118424
-0.113622
-0.108981
-0.104499
-0.100172
-0.0959961
-0.0919686
-0.0880857
-0.0843435
-0.0807384
-0.0772665
-0.0739239
-0.0707068
-0.0676111
-0.0646331
-0.0617689
-0.0590145
-0.0563662
-0.0538202
-0.0513728
-0.0490202
-0.0467589
-0.0445852
-0.0424958
-0.0404872
-0.0385561
-0.0366991
-0.0349131
-0.033195
-0.0315418
-0.0299504
-0.0284179
-0.0269417
-0.0255188
-0.0241467
-0.0228227
-0.0215443
-0.020309
-0.0191144
-0.0179581
-0.0168379
-0.0157514
-0.0146964
-0.0136708
-0.0126724
-0.0116992
-0.0107491
-0.00982004
-0.00891014
-0.00801744
-0.00714005
-0.00627611
-0.00542391
-0.00458143
-0.00374777
-0.00291902
-0.00209976
-0.00127071
-0.000472758
0.272148
0.272019
0.271739
0.271297
0.270694
0.269933
0.269012
0.267929
0.266683
0.265271
0.26369
0.261937
0.26001
0.257906
0.25562
0.253149
0.250489
0.247636
0.244585
0.241333
0.237873
0.234203
0.230315
0.226207
0.221872
0.217307
0.212505
0.207463
0.202175
0.196638
0.190847
0.184799
0.17849
0.171917
0.165077
0.15797
0.150593
0.142946
0.13503
0.126845
0.118394
0.109678
0.100703
0.0914734
0.081994
0.0722721
0.0623154
0.0521327
0.0417336
0.0311287
0.0203295
0.00934802
-0.0018028
-0.0131095
-0.0245582
-0.0361344
-0.0478236
-0.0596108
-0.0714811
-0.0834196
-0.0954115
-0.107442
-0.119498
-0.131564
-0.143627
-0.155675
-0.167695
-0.179676
-0.191607
-0.203477
-0.215278
-0.226999
-0.238635
-0.250176
-0.261616
-0.272951
-0.284173
-0.295279
-0.306265
-0.317126
-0.327859
-0.338462
-0.348932
-0.359266
-0.369462
-0.379518
-0.389431
-0.399199
-0.40882
-0.418291
-0.427609
-0.436771
-0.445774
-0.454612
-0.463282
-0.47178
-0.480099
-0.488234
-0.496179
-0.503927
-0.511471
-0.518804
-0.525918
-0.532804
-0.539455
-0.545861
-0.552013
-0.557904
-0.563523
-0.568861
-0.573911
-0.578662
-0.583107
-0.587236
-0.591043
-0.594518
-0.597656
-0.600449
-0.602891
-0.604977
-0.606701
-0.608059
-0.609046
-0.609661
-0.609901
-0.609764
-0.609251
-0.608359
-0.607091
-0.605448
-0.603431
-0.601044
-0.59829
-0.595173
-0.591699
-0.587873
-0.583701
-0.579191
-0.574349
-0.569184
-0.563705
-0.557921
-0.55184
-0.545475
-0.538835
-0.531931
-0.524775
-0.517379
-0.509755
-0.501916
-0.493875
-0.485645
-0.47724
-0.468673
-0.459959
-0.451111
-0.442143
-0.433071
-0.423908
-0.414669
-0.405369
-0.39602
-0.386639
-0.377237
-0.367831
-0.358432
-0.349054
-0.33971
-0.330413
-0.321175
-0.312006
-0.302919
-0.293924
-0.285031
-0.27625
-0.267589
-0.259056
-0.25066
-0.242407
-0.234305
-0.226357
-0.218571
-0.210949
-0.203497
-0.196217
-0.189112
-0.182184
-0.175434
-0.168865
-0.162475
-0.156266
-0.150237
-0.144386
-0.138714
-0.133217
-0.127895
-0.122745
-0.117764
-0.11295
-0.1083
-0.103811
-0.0994782
-0.0952995
-0.0912709
-0.0873886
-0.0836488
-0.0800476
-0.076581
-0.073245
-0.0700357
-0.0669491
-0.063981
-0.0611277
-0.0583851
-0.0557492
-0.0532163
-0.0507826
-0.0484442
-0.0461976
-0.044039
-0.0419649
-0.039972
-0.0380566
-0.0362157
-0.0344459
-0.032744
-0.031107
-0.0295319
-0.0280158
-0.0265558
-0.0251492
-0.0237933
-0.0224854
-0.0212229
-0.0200035
-0.0188246
-0.017684
-0.0165792
-0.015508
-0.0144681
-0.0134576
-0.012474
-0.0115155
-0.0105799
-0.00966531
-0.00876964
-0.007891
-0.00702752
-0.00617732
-0.00533872
-0.00450969
-0.00368933
-0.00287375
-0.00206752
-0.00125139
-0.000466164
0.273749
0.273622
0.273344
0.272906
0.272309
0.271555
0.270643
0.26957
0.268335
0.266935
0.265367
0.263628
0.261716
0.259627
0.257357
0.254902
0.252258
0.249421
0.246386
0.243148
0.239702
0.236044
0.232167
0.228068
0.22374
0.219178
0.214378
0.209333
0.20404
0.198492
0.192687
0.186619
0.180285
0.173681
0.166806
0.159655
0.152229
0.144527
0.136548
0.128293
0.119765
0.110966
0.1019
0.0925723
0.0829888
0.0731565
0.0630838
0.0527796
0.0422544
0.0315193
0.0205863
0.00946845
-0.00182072
-0.0132669
-0.0248554
-0.0365709
-0.0483981
-0.0603212
-0.0723246
-0.0843926
-0.0965098
-0.108661
-0.120831
-0.133007
-0.145173
-0.157317
-0.169427
-0.181491
-0.193497
-0.205436
-0.217298
-0.229074
-0.240758
-0.252341
-0.263817
-0.275182
-0.286429
-0.297556
-0.308558
-0.319432
-0.330175
-0.340785
-0.35126
-0.361598
-0.371798
-0.381857
-0.391774
-0.401546
-0.411173
-0.420652
-0.42998
-0.439154
-0.448172
-0.457029
-0.465721
-0.474243
-0.48259
-0.490757
-0.498737
-0.506524
-0.51411
-0.521487
-0.528648
-0.535584
-0.542286
-0.548746
-0.554953
-0.5609
-0.566576
-0.571971
-0.577078
-0.581885
-0.586385
-0.590569
-0.594428
-0.597954
-0.601139
-0.603978
-0.606462
-0.608587
-0.610347
-0.611739
-0.612752
-0.613392
-0.613652
-0.613532
-0.613031
-0.612147
-0.610883
-0.609239
-0.607217
-0.604821
-0.602054
-0.59892
-0.595425
-0.591573
-0.587372
-0.582829
-0.57795
-0.572744
-0.56722
-0.561387
-0.555255
-0.548834
-0.542134
-0.535168
-0.527946
-0.520481
-0.512785
-0.50487
-0.49675
-0.488438
-0.479948
-0.471294
-0.462489
-0.453549
-0.444486
-0.435317
-0.426055
-0.416715
-0.407312
-0.397861
-0.388374
-0.378868
-0.369356
-0.359851
-0.350367
-0.340918
-0.331516
-0.322174
-0.312903
-0.303715
-0.294621
-0.285631
-0.276755
-0.268002
-0.25938
-0.250898
-0.242562
-0.234379
-0.226355
-0.218496
-0.210805
-0.203288
-0.195946
-0.188783
-0.181801
-0.175001
-0.168385
-0.161953
-0.155704
-0.149639
-0.143757
-0.138056
-0.132534
-0.12719
-0.122021
-0.117024
-0.112197
-0.107537
-0.103039
-0.0987017
-0.0945198
-0.0904902
-0.0866089
-0.0828719
-0.0792752
-0.0758147
-0.0724864
-0.0692861
-0.0662096
-0.0632529
-0.0604119
-0.0576825
-0.0550608
-0.0525427
-0.0501244
-0.047802
-0.0455718
-0.0434301
-0.0413733
-0.0393979
-0.0375003
-0.0356773
-0.0339255
-0.0322418
-0.0306231
-0.0290662
-0.0275683
-0.0261265
-0.024738
-0.0234001
-0.0221101
-0.0208655
-0.0196637
-0.0185024
-0.0173791
-0.0162915
-0.0152373
-0.0142144
-0.0132205
-0.0122535
-0.0113114
-0.010392
-0.00949332
-0.00861346
-0.00775045
-0.00690243
-0.00606752
-0.00524404
-0.00442995
-0.00362438
-0.00282342
-0.00203167
-0.00122992
-0.000458827
0.275505
0.275379
0.275104
0.274671
0.274081
0.273335
0.272432
0.271371
0.270148
0.268761
0.267208
0.265486
0.263591
0.261519
0.259267
0.25683
0.254205
0.251386
0.248369
0.245148
0.241718
0.238075
0.234211
0.230123
0.225804
0.221248
0.21645
0.211404
0.206105
0.200547
0.194727
0.188638
0.182277
0.175641
0.168726
0.161529
0.154049
0.146285
0.138236
0.129905
0.121291
0.112399
0.103232
0.0937949
0.0840949
0.0741392
0.0639363
0.053496
0.0428292
0.0319478
0.0208647
0.00959365
-0.00185091
-0.0134538
-0.0251992
-0.037071
-0.049053
-0.0611284
-0.0732807
-0.0854935
-0.0977506
-0.110036
-0.122335
-0.134631
-0.146912
-0.159163
-0.171371
-0.183526
-0.195615
-0.207628
-0.219557
-0.231393
-0.243128
-0.254755
-0.26627
-0.277666
-0.288939
-0.300086
-0.311104
-0.32199
-0.332741
-0.343357
-0.353836
-0.364177
-0.374378
-0.384439