/*--------------------------------*- C++ -*----------------------------------*\
| =========                 |                                                 |
| \\      /  F ield         | OpenFOAM: The Open Source CFD Toolbox           |
|  \\    /   O peration     | Version:  2306                                  |
|   \\  /    A nd           | Website:  www.openfoam.com                      |
|    \\/     M anipulation  |                                                 |
\*---------------------------------------------------------------------------*/
FoamFile
{
    version     2.0;
    format      ascii;
    arch        "LSB;label=32;scalar=64";
    class       surfaceScalarField;
    location    "7";
    object      phi;
}
// * * * * * * * * * * * * * * * * * * * * * * * * * * * * * * * * * * * * * //

dimensions      [0 3 -1 0 0 0 0];

oriented        oriented;

internalField   nonuniform List<scalar> 
65152
(
0.00625051
-5.06971e-07
0.00625203
-1.52284e-06
0.00625457
-2.53935e-06
0.00625813
-3.55763e-06
0.00626271
-4.57937e-06
0.00626831
-5.60567e-06
0.00627495
-6.63724e-06
0.00628262
-7.67482e-06
0.00629134
-8.71922e-06
0.00630111
-9.77125e-06
0.00631195
-1.08316e-05
0.00632385
-1.19009e-05
0.00633683
-1.29797e-05
0.00635089
-1.40684e-05
0.00636606
-1.51674e-05
0.00638234
-1.6277e-05
0.00639974
-1.73972e-05
0.00641826
-1.85282e-05
0.00643793
-1.96697e-05
0.00645876
-2.08216e-05
0.00648074
-2.19834e-05
0.00650389
-2.31546e-05
0.00652823
-2.43344e-05
0.00655375
-2.55219e-05
0.00658047
-2.67161e-05
0.00660838
-2.79158e-05
0.0066375
-2.91194e-05
0.00666783
-3.03255e-05
0.00669936
-3.15321e-05
0.0067321
-3.27374e-05
0.00676604
-3.39391e-05
0.00680117
-3.5135e-05
0.00683749
-3.63225e-05
0.00687499
-3.74991e-05
0.00691365
-3.86619e-05
0.00695346
-3.98081e-05
0.0069944
-4.09347e-05
0.00703644
-4.20385e-05
0.00707955
-4.31164e-05
0.00712372
-4.41653e-05
0.0071689
-4.51819e-05
0.00721506
-4.61632e-05
0.00726217
-4.71059e-05
0.00731018
-4.8007e-05
0.00735904
-4.88637e-05
0.00740871
-4.96731e-05
0.00745914
-5.04327e-05
0.00751028
-5.114e-05
0.00756208
-5.17929e-05
0.00761447
-5.23895e-05
0.0076674
-5.29281e-05
0.0077208
-5.34073e-05
0.00777463
-5.38261e-05
0.00782881
-5.41838e-05
0.00788329
-5.448e-05
0.00793801
-5.47145e-05
0.00799289
-5.48877e-05
0.00804789
-5.5e-05
0.00810295
-5.50523e-05
0.00815799
-5.50458e-05
0.00821297
-5.49818e-05
0.00826784
-5.4862e-05
0.00832252
-5.46882e-05
0.00837699
-5.44626e-05
0.00843117
-5.41874e-05
0.00848504
-5.3865e-05
0.00853854
-5.34978e-05
0.00859163
-5.30885e-05
0.00864427
-5.26396e-05
0.00869642
-5.21538e-05
0.00874805
-5.16337e-05
0.00879914
-5.1082e-05
0.00884964
-5.0501e-05
0.00889953
-4.98932e-05
0.00894879
-4.9261e-05
0.0089974
-4.86065e-05
0.00904533
-4.79317e-05
0.00909257
-4.72385e-05
0.0091391
-4.65286e-05
0.0091849
-4.58033e-05
0.00922996
-4.5064e-05
0.00927427
-4.43117e-05
0.00931782
-4.35472e-05
0.00936059
-4.27713e-05
0.00940258
-4.19842e-05
0.00944376
-4.11862e-05
0.00948414
-4.03774e-05
0.0095237
-3.95575e-05
0.00956242
-3.87262e-05
0.00960031
-3.7883e-05
0.00963734
-3.70273e-05
0.00967349
-3.61582e-05
0.00970877
-3.52749e-05
0.00974314
-3.43764e-05
0.00977661
-3.34617e-05
0.00980914
-3.25295e-05
0.00984071
-3.15789e-05
0.00987132
-3.06085e-05
0.00990094
-2.96174e-05
0.00992954
-2.86043e-05
0.00995711
-2.75682e-05
0.00998362
-2.65082e-05
0.010009
-2.54232e-05
0.0100334
-2.43124e-05
0.0100565
-2.31752e-05
0.0100785
-2.2011e-05
0.0100994
-2.08192e-05
0.010119
-1.95996e-05
0.0101373
-1.8352e-05
0.0101544
-1.70763e-05
0.0101702
-1.57727e-05
0.0101846
-1.44415e-05
0.0101977
-1.30831e-05
0.0102094
-1.1698e-05
0.0102197
-1.02872e-05
0.0102285
-8.85137e-06
0.0102359
-7.39164e-06
0.0102418
-5.90917e-06
0.0102462
-4.40526e-06
0.0102491
-2.88132e-06
0.0102505
-1.3389e-06
0.0102502
2.20393e-07
0.0102484
1.79483e-06
0.0102451
3.38258e-06
0.0102401
4.98178e-06
0.0102335
6.59049e-06
0.0102253
8.2067e-06
0.0102154
9.82837e-06
0.010204
1.14534e-05
0.0101909
1.30797e-05
0.0101762
1.47051e-05
0.0101599
1.63275e-05
0.0101419
1.79446e-05
0.0101224
1.95543e-05
0.0101012
2.11545e-05
0.0100785
2.27429e-05
0.0100542
2.43174e-05
0.0100283
2.58757e-05
0.0100009
2.74159e-05
0.00997194
2.89356e-05
0.00994151
3.04327e-05
0.0099096
3.19053e-05
0.00987625
3.33511e-05
0.00984148
3.47681e-05
0.00980533
3.61542e-05
0.00976782
3.75075e-05
0.00972899
3.88259e-05
0.00968889
4.01075e-05
0.00964754
4.13504e-05
0.00960498
4.25526e-05
0.00956127
4.37124e-05
0.00951644
4.48279e-05
0.00947055
4.58975e-05
0.00942363
4.69195e-05
0.00937573
4.78923e-05
0.00932692
4.88144e-05
0.00927724
4.96843e-05
0.00922673
5.05009e-05
0.00917547
5.12627e-05
0.0091235
5.19687e-05
0.00907088
5.2618e-05
0.00901768
5.32096e-05
0.00896393
5.37429e-05
0.00890972
5.42171e-05
0.00885508
5.46319e-05
0.0088001
5.49869e-05
0.00874481
5.5282e-05
0.0086893
5.55173e-05
0.0086336
5.56928e-05
0.0085778
5.58089e-05
0.00852193
5.5866e-05
0.00846606
5.58649e-05
0.00841026
5.58064e-05
0.00835457
5.56913e-05
0.00829905
5.55209e-05
0.00824375
5.52964e-05
0.00818873
5.50191e-05
0.00813404
5.46906e-05
0.00807973
5.43125e-05
0.00802584
5.38867e-05
0.00797243
5.34149e-05
0.00791953
5.28992e-05
0.00786719
5.23416e-05
0.00781544
5.17442e-05
0.00776433
5.11091e-05
0.00771389
5.04387e-05
0.00766416
4.97351e-05
0.00761516
4.90007e-05
0.00756692
4.82377e-05
0.00751947
4.74485e-05
0.00747284
4.66354e-05
0.00742703
4.58006e-05
0.00738209
4.49465e-05
0.00733801
4.40752e-05
0.00729482
4.31889e-05
0.00725253
4.22898e-05
0.00721115
4.13799e-05
0.00717069
4.04614e-05
0.00713116
3.9536e-05
0.00709255
3.86059e-05
0.00705488
3.76726e-05
0.00701814
3.67381e-05
0.00698234
3.58039e-05
0.00694747
3.48716e-05
0.00691352
3.39428e-05
0.0068805
3.30189e-05
0.0068484
3.21013e-05
0.00681721
3.11911e-05
0.00678692
3.02896e-05
0.00675752
2.93979e-05
0.00672901
2.8517e-05
0.00670136
2.76478e-05
0.00667457
2.67914e-05
0.00664862
2.59483e-05
0.0066235
2.51194e-05
0.00659919
2.43054e-05
0.00657569
2.35067e-05
0.00655296
2.2724e-05
0.00653101
2.19576e-05
0.0065098
2.12079e-05
0.00648932
2.04752e-05
0.00646956
1.97598e-05
0.0064505
1.90619e-05
0.00643212
1.83815e-05
0.0064144
1.77187e-05
0.00639733
1.70735e-05
0.00638088
1.64457e-05
0.00636505
1.58352e-05
0.0063498
1.52417e-05
0.00633514
1.46647e-05
0.00632104
1.41036e-05
0.00630748
1.35577e-05
0.00629445
1.30261e-05
0.00628195
1.25075e-05
0.00626994
1.20006e-05
0.00625844
1.15037e-05
0.00624743
1.10149e-05
0.00623689
1.05323e-05
0.00622684
1.00537e-05
0.00621726
9.57686e-06
0.00620816
9.0997e-06
0.00619954
8.62034e-06
0.00619141
8.13721e-06
0.00618376
7.64925e-06
0.0061766
7.15599e-06
0.00616994
6.65764e-06
0.00616379
6.15521e-06
0.00615814
5.65047e-06
0.00615299
5.14602e-06
0.00614835
4.64502e-06
0.00614419
4.15181e-06
0.00614053
3.66897e-06
0.00613732
3.2074e-06
0.00613457
2.74995e-06
0.00613219
2.37505e-06
1.84278e-06
0.00625051
-1.01444e-06
0.00625203
-3.04383e-06
0.00625456
-5.07578e-06
0.00625812
-7.11228e-06
0.0062627
-9.1554e-06
0.0062683
-1.12072e-05
0.00627493
-1.32696e-05
0.0062826
-1.5344e-05
0.00629131
-1.74323e-05
0.00630108
-1.95358e-05
0.0063119
-2.1656e-05
0.00632379
-2.37942e-05
0.00633677
-2.59515e-05
0.00635083
-2.81288e-05
0.00636599
-3.03267e-05
0.00638225
-3.25459e-05
0.00639964
-3.47866e-05
0.00641816
-3.70488e-05
0.00643783
-3.93323e-05
0.00645864
-4.16367e-05
0.00648062
-4.3961e-05
0.00650377
-4.63042e-05
0.0065281
-4.86649e-05
0.00655362
-5.10412e-05
0.00658033
-5.34311e-05
0.00660825
-5.5832e-05
0.00663737
-5.82411e-05
0.0066677
-6.06552e-05
0.00669924
-6.30706e-05
0.00673199
-6.54835e-05
0.00676594
-6.78895e-05
0.00680109
-7.02839e-05
0.00683743
-7.26618e-05
0.00687494
-7.50179e-05
0.00691363
-7.73467e-05
0.00695346
-7.96422e-05
0.00699443
-8.18985e-05
0.0070365
-8.41094e-05
0.00707965
-8.62686e-05
0.00712385
-8.83697e-05
0.00716908
-9.04063e-05
0.00721529
-9.2372e-05
0.00726244
-9.42606e-05
0.0073105
-9.60659e-05
0.00735942
-9.77822e-05
0.00740915
-9.94038e-05
0.00745964
-0.000100925
0.00751085
-0.000102342
0.0075627
-0.00010365
0.00761516
-0.000104845
0.00766815
-0.000105924
0.00772163
-0.000106883
0.00777552
-0.000107722
0.00782978
-0.000108437
0.00788433
-0.00010903
0.00793911
-0.000109499
0.00799407
-0.000109845
0.00804914
-0.000110068
0.00810426
-0.000110172
0.00815937
-0.000110157
0.00821442
-0.000110028
0.00826934
-0.000109786
0.00832409
-0.000109437
0.00837861
-0.000108983
0.00843285
-0.00010843
0.00848677
-0.000107783
0.00854032
-0.000107046
0.00859345
-0.000106225
0.00864614
-0.000105324
0.00869834
-0.00010435
0.00875001
-0.000103307
0.00880113
-0.000102201
0.00885166
-0.000101037
0.00890159
-9.98186e-05
0.00895088
-9.85519e-05
0.00899951
-9.72408e-05
0.00904747
-9.58893e-05
0.00909473
-9.45011e-05
0.00914128
-9.30795e-05
0.00918711
-9.16276e-05
0.00923219
-9.01478e-05
0.00927652
-8.86422e-05
0.00932009
-8.71126e-05
0.00936288
-8.55601e-05
0.00940488
-8.39855e-05
0.00944608
-8.23894e-05
0.00948648
-8.07718e-05
0.00952605
-7.91322e-05
0.0095648
-7.747e-05
0.0096027
-7.57841e-05
0.00963974
-7.40733e-05
0.00967592
-7.23359e-05
0.00971122
-7.05701e-05
0.00974561
-6.8774e-05
0.0097791
-6.69454e-05
0.00981165
-6.5082e-05
0.00984325
-6.31817e-05
0.00987388
-6.12419e-05
0.00990353
-5.92606e-05
0.00993216
-5.72353e-05
0.00995975
-5.51639e-05
0.00998629
-5.30445e-05
0.0100117
-5.08752e-05
0.0100361
-4.86542e-05
0.0100593
-4.63802e-05
0.0100813
-4.4052e-05
0.0101022
-4.16685e-05
0.0101218
-3.92293e-05
0.0101402
-3.67338e-05
0.0101573
-3.41821e-05
0.0101731
-3.15743e-05
0.0101876
-2.89112e-05
0.0102007
-2.61935e-05
0.0102124
-2.34225e-05
0.0102227
-2.05996e-05
0.0102316
-1.77267e-05
0.010239
-1.48058e-05
0.0102449
-1.18393e-05
0.0102494
-8.82975e-06
0.0102523
-5.78007e-06
0.0102536
-2.69329e-06
0.0102534
4.27299e-07
0.0102516
3.57823e-06
0.0102482
6.75591e-06
0.0102433
9.95655e-06
0.0102367
1.31763e-05
0.0102285
1.6411e-05
0.0102187
1.96567e-05
0.0102072
2.29092e-05
0.0101941
2.61643e-05
0.0101794
2.94175e-05
0.0101631
3.26647e-05
0.0101451
3.59015e-05
0.0101255
3.91234e-05
0.0101044
4.23262e-05
0.0100816
4.55055e-05
0.0100573
4.86569e-05
0.0100314
5.17761e-05
0.0100039
5.48587e-05
0.00997496
5.79005e-05
0.00994449
6.08973e-05
0.00991255
6.38447e-05
0.00987917
6.67387e-05
0.00984436
6.9575e-05
0.00980816
7.23496e-05
0.00977061
7.50583e-05
0.00973174
7.76974e-05
0.00969159
8.02627e-05
0.00965019
8.27505e-05
0.00960758
8.5157e-05
0.00956382
8.74786e-05
0.00951893
8.97116e-05
0.00947298
9.18527e-05
0.009426
9.38984e-05
0.00937805
9.58457e-05
0.00932917
9.76914e-05
0.00927942
9.94329e-05
0.00922885
0.000101067
0.00917752
0.000102592
0.00912549
0.000104005
0.0090728
0.000105305
0.00901952
0.000106489
0.00896571
0.000107556
0.00891142
0.000108505
0.00885672
0.000109335
0.00880166
0.000110045
0.0087463
0.000110636
0.00869072
0.000111106
0.00863495
0.000111457
0.00857907
0.000111688
0.00852314
0.000111802
0.0084672
0.000111799
0.00841133
0.000111681
0.00835557
0.00011145
0.00829998
0.000111108
0.00824462
0.000110657
0.00818954
0.000110101
0.00813479
0.000109442
0.00808041
0.000108684
0.00802647
0.000107831
0.007973
0.000106885
0.00792005
0.000105852
0.00786766
0.000104734
0.00781586
0.000103537
0.00776471
0.000102265
0.00771422
0.000100921
0.00766445
9.95118e-05
0.00761541
9.80405e-05
0.00756713
9.65121e-05
0.00751965
9.49312e-05
0.00747298
9.33025e-05
0.00742715
9.16306e-05
0.00738218
8.99199e-05
0.00733808
8.81749e-05
0.00729487
8.64e-05
0.00725256
8.45996e-05
0.00721116
8.27777e-05
0.00717069
8.09384e-05
0.00713114
7.90857e-05
0.00709252
7.72234e-05
0.00705484
7.5355e-05
0.00701809
7.34841e-05
0.00698228
7.1614e-05
0.0069474
6.97478e-05
0.00691346
6.78887e-05
0.00688044
6.60394e-05
0.00684834
6.42027e-05
0.00681715
6.23811e-05
0.00678686
6.05769e-05
0.00675746
5.87923e-05
0.00672895
5.70295e-05
0.00670131
5.52903e-05
0.00667452
5.35765e-05
0.00664858
5.18896e-05
0.00662347
5.02311e-05
0.00659917
4.86024e-05
0.00657568
4.70045e-05
0.00655296
4.54384e-05
0.00653101
4.39052e-05
0.00650982
4.24054e-05
0.00648935
4.09398e-05
0.0064696
3.95087e-05
0.00645055
3.81126e-05
0.00643218
3.67516e-05
0.00641447
3.54259e-05
0.00639741
3.41353e-05
0.00638098
3.28797e-05
0.00636516
3.16587e-05
0.00634993
3.04716e-05
0.00633527
2.93176e-05
0.00632118
2.81954e-05
0.00630763
2.71037e-05
0.00629462
2.60405e-05
0.00628212
2.50035e-05
0.00627014
2.39898e-05
0.00625864
2.29962e-05
0.00624764
2.2019e-05
0.00623712
2.1054e-05
0.00622707
2.00971e-05
0.00621751
1.91437e-05
0.00620842
1.81898e-05
0.00619981
1.72315e-05
0.00619168
1.62657e-05
0.00618404
1.52903e-05
0.00617689
1.43044e-05
0.00617024
1.33083e-05
0.00616409
1.2304e-05
0.00615844
1.12952e-05
0.0061533
1.0287e-05
0.00614866
9.28563e-06
0.00614451
8.29996e-06
0.00614085
7.33475e-06
0.00613764
6.41298e-06
0.00613489
5.49752e-06
0.00613252
4.75324e-06
3.68062e-06
0.00625051
-1.52057e-06
0.00625202
-4.56247e-06
0.00625456
-7.60829e-06
0.00625811
-1.06612e-05
0.00626267
-1.37241e-05
0.00626827
-1.68001e-05
0.00627489
-1.98918e-05
0.00628255
-2.30019e-05
0.00629125
-2.61327e-05
0.006301
-2.92867e-05
0.00631181
-3.24659e-05
0.00632369
-3.56723e-05
0.00633664
-3.89075e-05
0.00635069
-4.21729e-05
0.00636583
-4.54697e-05
0.00638208
-4.87985e-05
0.00639946
-5.21599e-05
0.00641796
-5.5554e-05
0.00643761
-5.89804e-05
0.00645841
-6.24384e-05
0.00648038
-6.59268e-05
0.00650352
-6.94439e-05
0.00652784
-7.29876e-05
0.00655335
-7.65553e-05
0.00658007
-8.01437e-05
0.00660798
-8.37491e-05
0.00663711
-8.73672e-05
0.00666745
-9.09933e-05
0.006699
-9.46219e-05
0.00673176
-9.8247e-05
0.00676574
-0.000101862
0.00680091
-0.000105461
0.00683728
-0.000109035
0.00687484
-0.000112576
0.00691357
-0.000116077
0.00695346
-0.000119528
0.00699448
-0.000122921
0.00703662
-0.000126245
0.00707984
-0.000129493
0.00712412
-0.000132653
0.00716943
-0.000135716
0.00721573
-0.000138673
0.00726299
-0.000141513
0.00731115
-0.000144229
0.00736018
-0.000146811
0.00741002
-0.00014925
0.00746064
-0.000151539
0.00751196
-0.00015367
0.00756395
-0.000155636
0.00761654
-0.000157433
0.00766967
-0.000159054
0.00772328
-0.000160496
0.00777732
-0.000161756
0.00783171
-0.000162831
0.0078864
-0.00016372
0.00794133
-0.000164423
0.00799642
-0.00016494
0.00805163
-0.000165274
0.00810688
-0.000165426
0.00816212
-0.000165401
0.0082173
-0.000165202
0.00827235
-0.000164835
0.00832722
-0.000164306
0.00838185
-0.00016362
0.00843621
-0.000162785
0.00849023
-0.000161807
0.00854388
-0.000160695
0.00859711
-0.000159456
0.00864989
-0.000158099
0.00870217
-0.000156631
0.00875392
-0.00015506
0.00880511
-0.000153394
0.00885572
-0.000151641
0.00890571
-0.000149808
0.00895506
-0.000147902
0.00900375
-0.00014593
0.00905176
-0.000143898
0.00909907
-0.000141811
0.00914566
-0.000139675
0.00919153
-0.000137494
0.00923665
-0.000135271
0.00928102
-0.00013301
0.00932462
-0.000130714
0.00936744
-0.000128384
0.00940948
-0.000126021
0.00945072
-0.000123626
0.00949115
-0.0001212
0.00953075
-0.000118741
0.00956953
-0.000116249
0.00960747
-0.000113721
0.00964455
-0.000111156
0.00968077
-0.000108552
0.00971611
-0.000105906
0.00975055
-0.000103214
0.00978407
-0.000100473
0.00981667
-9.76805e-05
0.00984832
-9.48324e-05
0.00987901
-9.19252e-05
0.0099087
-8.89554e-05
0.00993738
-8.59197e-05
0.00996504
-8.28147e-05
0.00999163
-7.96374e-05
0.0100171
-7.63849e-05
0.0100415
-7.30548e-05
0.0100648
-6.96447e-05
0.0100869
-6.6153e-05
0.0101078
-6.25781e-05
0.0101275
-5.8919e-05
0.0101459
-5.51753e-05
0.0101631
-5.13468e-05
0.010179
-4.74339e-05
0.0101935
-4.34375e-05
0.0102067
-3.93588e-05
0.0102184
-3.51997e-05
0.0102288
-3.09625e-05
0.0102377
-2.66499e-05
0.0102452
-2.2265e-05
0.0102512
-1.78113e-05
0.0102556
-1.32927e-05
0.0102586
-8.7137e-06
0.0102599
-4.07872e-06
0.0102598
6.07194e-07
0.010258
5.33882e-06
0.0102546
1.01108e-05
0.0102497
1.49173e-05
0.0102431
1.97526e-05
0.0102349
2.46106e-05
0.0102251
2.94852e-05
0.0102136
3.437e-05
0.0102005
3.92586e-05
0.0101858
4.41446e-05
0.0101694
4.90216e-05
0.0101515
5.38829e-05
0.0101319
5.8722e-05
0.0101107
6.35324e-05
0.0100878
6.83075e-05
0.0100635
7.30407e-05
0.0100375
7.77256e-05
0.01001
8.23557e-05
0.009981
8.69244e-05
0.00995047
9.14255e-05
0.00991846
9.58526e-05
0.009885
0.000100199
0.00985011
0.00010446
0.00981384
0.000108627
0.0097762
0.000112696
0.00973724
0.00011666
0.00969699
0.000120513
0.00965549
0.00012425
0.00961278
0.000127865
0.0095689
0.000131353
0.00952391
0.000134707
0.00947784
0.000137923
0.00943074
0.000140996
0.00938266
0.000143921
0.00933366
0.000146694
0.00928378
0.00014931
0.00923309
0.000151765
0.00918162
0.000154055
0.00912945
0.000156178
0.00907663
0.00015813
0.00902321
0.000159908
0.00896925
0.000161511
0.00891482
0.000162935
0.00885998
0.000164181
0.00880477
0.000165247
0.00874928
0.000166133
0.00869355
0.000166838
0.00863764
0.000167363
0.00858162
0.00016771
0.00852554
0.000167879
0.00846947
0.000167872
0.00841346
0.000167693
0.00835756
0.000167343
0.00830185
0.000166826
0.00824636
0.000166147
0.00819115
0.000165309
0.00813627
0.000164316
0.00808178
0.000163175
0.00802772
0.00016189
0.00797414
0.000160466
0.00792109
0.00015891
0.00786859
0.000157229
0.0078167
0.000155427
0.00776545
0.000153513
0.00771488
0.000151492
0.00766502
0.000149371
0.0076159
0.000147158
0.00756756
0.00014486
0.00752001
0.000142482
0.00747328
0.000140033
0.00742739
0.000137519
0.00738236
0.000134947
0.00733821
0.000132324
0.00729496
0.000129655
0.00725261
0.000126949
0.00721117
0.000124211
0.00717067
0.000121447
0.00713109
0.000118662
0.00709245
0.000115864
0.00705475
0.000113057
0.00701798
0.000110246
0.00698216
0.000107436
0.00694728
0.000104633
0.00691333
0.00010184
0.0068803
9.90629e-05
0.0068482
9.63044e-05
0.00681701
9.35687e-05
0.00678673
9.08594e-05
0.00675734
8.81798e-05
0.00672884
8.55331e-05
0.00670121
8.29219e-05
0.00667443
8.0349e-05
0.00664851
7.78167e-05
0.00662341
7.53272e-05
0.00659913
7.28825e-05
0.00657565
7.04842e-05
0.00655296
6.81339e-05
0.00653103
6.58329e-05
0.00650985
6.35822e-05
0.00648941
6.13829e-05
0.00646968
5.92356e-05
0.00645065
5.71408e-05
0.00643231
5.50989e-05
0.00641462
5.31099e-05
0.00639758
5.11738e-05
0.00638117
4.92902e-05
0.00636537
4.74585e-05
0.00635017
4.56778e-05
0.00633554
4.39468e-05
0.00632147
4.22638e-05
0.00630795
4.06264e-05
0.00629496
3.90318e-05
0.00628248
3.74766e-05
0.00627052
3.59565e-05
0.00625905
3.44665e-05
0.00624806
3.30012e-05
0.00623756
3.15544e-05
0.00622754
3.01197e-05
0.00621799
2.86905e-05
0.00620892
2.72606e-05
0.00620033
2.58242e-05
0.00619222
2.43768e-05
0.00618459
2.2915e-05
0.00617746
2.14375e-05
0.00617082
1.99448e-05
0.00616469
1.84401e-05
0.00615905
1.69285e-05
0.00615392
1.54178e-05
0.00614929
1.39174e-05
0.00614515
1.24406e-05
0.00614149
1.09944e-05
0.00613829
9.61355e-06
0.00613555
8.24159e-06
0.00613317
7.12713e-06
5.51869e-06
0.0062505
-2.02544e-06
0.00625202
-6.07743e-06
0.00625455
-1.01346e-05
0.00625809
-1.42015e-05
0.00626264
-1.82819e-05
0.00626822
-2.23797e-05
0.00627483
-2.64988e-05
0.00628247
-3.06425e-05
0.00629115
-3.48142e-05
0.00630088
-3.9017e-05
0.00631167
-4.32538e-05
0.00632353
-4.75272e-05
0.00633646
-5.18395e-05
0.00635048
-5.61925e-05
0.0063656
-6.05877e-05
0.00638182
-6.50264e-05
0.00639917
-6.9509e-05
0.00641765
-7.40358e-05
0.00643728
-7.86064e-05
0.00645806
-8.32198e-05
0.00648001
-8.78744e-05
0.00650313
-9.25682e-05
0.00652744
-9.72981e-05
0.00655295
-0.000102061
0.00657966
-0.000106852
0.00660758
-0.000111667
0.00663671
-0.000116499
0.00666706
-0.000121343
0.00669863
-0.000126192
0.00673142
-0.000131036
0.00676542
-0.000135868
0.00680064
-0.000140679
0.00683706
-0.000145457
0.00687468
-0.000150193
0.00691348
-0.000154875
0.00695344
-0.000159492
0.00699455
-0.00016403
0.00703679
-0.000168479
0.00708012
-0.000172824
0.00712452
-0.000177053
0.00716995
-0.000181153
0.00721639
-0.000185111
0.00726379
-0.000188913
0.00731211
-0.000192548
0.00736131
-0.000196004
0.00741133
-0.000199269
0.00746212
-0.000202333
0.00751363
-0.000205185
0.00756581
-0.000207817
0.0076186
-0.00021022
0.00767194
-0.000212389
0.00772576
-0.000214317
0.00778
-0.000216
0.00783461
-0.000217436
0.00788951
-0.000218622
0.00794464
-0.000219558
0.00799995
-0.000220245
0.00805536
-0.000220686
0.00811082
-0.000220884
0.00816626
-0.000220843
0.00822163
-0.000220571
0.00827686
-0.000220072
0.00833191
-0.000219356
0.00838672
-0.000218431
0.00844125
-0.000217306
0.00849543
-0.00021599
0.00854923
-0.000214495
0.0086026
-0.000212831
0.00865551
-0.000211008
0.00870792
-0.000209038
0.00875979
-0.000206931
0.00881109
-0.000204698
0.0088618
-0.000202348
0.00891189
-0.000199893
0.00896133
-0.000197341
0.0090101
-0.000194702
0.00905818
-0.000191983
0.00910556
-0.000189193
0.00915223
-0.000186337
0.00919815
-0.000183422
0.00924334
-0.000180453
0.00928776
-0.000177434
0.00933141
-0.000174368
0.00937429
-0.000171259
0.00941638
-0.000168107
0.00945766
-0.000164914
0.00949814
-0.000161679
0.0095378
-0.000158401
0.00957663
-0.000155079
0.00961462
-0.000151712
0.00965176
-0.000148295
0.00968804
-0.000144826
0.00972343
-0.000141301
0.00975793
-0.000137716
0.00979153
-0.000134067
0.00982419
-0.000130348
0.00985592
-0.000126555
0.00988668
-0.000122683
0.00991645
-0.000118728
0.00994521
-0.000114684
0.00997295
-0.000110548
0.00999962
-0.000106315
0.0100252
-0.000101982
0.0100497
-9.75438e-05
0.0100731
-9.29989e-05
0.0100953
-8.83444e-05
0.0101163
-8.35783e-05
0.010136
-7.86994e-05
0.0101546
-7.37068e-05
0.0101718
-6.86004e-05
0.0101878
-6.33808e-05
0.0102024
-5.8049e-05
0.0102156
-5.26068e-05
0.0102275
-4.70567e-05
0.0102379
-4.14017e-05
0.0102469
-3.56454e-05
0.0102544
-2.9792e-05
0.0102605
-2.38464e-05
0.010265
-1.78138e-05
0.010268
-1.16999e-05
0.0102694
-5.51098e-06
0.0102693
7.46331e-07
0.0102676
7.06495e-06
0.0102642
1.34377e-05
0.0102593
1.98569e-05
0.0102527
2.63147e-05
0.0102445
3.2803e-05
0.0102347
3.93136e-05
0.0102232
4.58379e-05
0.0102101
5.23675e-05
0.0101954
5.88937e-05
0.010179
6.54079e-05
0.010161
7.19012e-05
0.0101413
7.83649e-05
0.0101201
8.47903e-05
0.0100972
9.11686e-05
0.0100728
9.74911e-05
0.0100467
0.000103749
0.0100192
0.000109934
0.00999005
0.000116037
0.00995943
0.000122049
0.00992731
0.000127963
0.00989374
0.00013377
0.00985874
0.000139461
0.00982234
0.000145028
0.00978457
0.000150464
0.00974548
0.000155759
0.00970508
0.000160907
0.00966343
0.0001659
0.00962057
0.000170729
0.00957653
0.000175388
0.00953137
0.00017987
0.00948513
0.000184167
0.00943785
0.000188273
0.00938959
0.000192181
0.0093404
0.000195885
0.00929033
0.00019938
0.00923944
0.000202659
0.00918777
0.000205719
0.00913539
0.000208555
0.00908236
0.000211162
0.00902873
0.000213537
0.00897457
0.000215677
0.00891992
0.000217579
0.00886486
0.000219242
0.00880945
0.000220664
0.00875373
0.000221845
0.00869779
0.000222785
0.00864167
0.000223484
0.00858543
0.000223944
0.00852915
0.000224166
0.00847286
0.000224153
0.00841665
0.000223909
0.00836055
0.000223438
0.00830464
0.000222743
0.00824895
0.00022183
0.00819356
0.000220705
0.0081385
0.000219374
0.00808383
0.000217844
0.0080296
0.000216121
0.00797585
0.000214213
0.00792263
0.000212129
0.00786998
0.000209876
0.00781795
0.000207463
0.00776656
0.0002049
0.00771586
0.000202194
0.00766588
0.000199355
0.00761664
0.000196393
0.00756818
0.000193317
0.00752053
0.000190135
0.00747371
0.000186858
0.00742773
0.000183495
0.00738262
0.000180054
0.0073384
0.000176545
0.00729508
0.000172977
0.00725267
0.000169358
0.00721118
0.000165697
0.00717063
0.000162001
0.00713101
0.00015828
0.00709234
0.000154539
0.00705461
0.000150787
0.00701782
0.000147031
0.00698198
0.000143277
0.00694708
0.000139531
0.00691312
0.000135801
0.00688009
0.000132091
0.00684799
0.000128406
0.00681681
0.000124753
0.00678653
0.000121135
0.00675716
0.000117557
0.00672867
0.000114023
0.00670105
0.000110537
0.0066743
0.000107102
0.00664839
0.000103722
0.00662332
0.0001004
0.00659906
9.7137e-05
0.00657561
9.39366e-05
0.00655295
9.08005e-05
0.00653105
8.77304e-05
0.0065099
8.47278e-05
0.00648949
8.17938e-05
0.0064698
7.89294e-05
0.0064508
7.61353e-05
0.00643249
7.34118e-05
0.00641484
7.07591e-05
0.00639784
6.81771e-05
0.00638146
6.56653e-05
0.0063657
6.32229e-05
0.00635053
6.08486e-05
0.00633593
5.85406e-05
0.0063219
5.62968e-05
0.00630841
5.41139e-05
0.00629546
5.19883e-05
0.00628302
4.99152e-05
0.00627109
4.78891e-05
0.00625965
4.59034e-05
0.0062487
4.39507e-05
0.00623823
4.20228e-05
0.00622824
4.01113e-05
0.00621872
3.82073e-05
0.00620968
3.63025e-05
0.00620112
3.43894e-05
0.00619303
3.24617e-05
0.00618543
3.05151e-05
0.00617832
2.85477e-05
0.0061717
2.65603e-05
0.00616559
2.45569e-05
0.00615997
2.25445e-05
0.00615486
2.05334e-05
0.00615024
1.8536e-05
0.00614611
1.65701e-05
0.00614246
1.46448e-05
0.00613926
1.28066e-05
0.00613653
1.098e-05
0.00613416
9.49667e-06
7.35495e-06
0.0062505
-2.52866e-06
0.00625201
-7.58738e-06
0.00625453
-1.26527e-05
0.00625806
-1.77302e-05
0.0062626
-2.28249e-05
0.00626816
-2.79416e-05
0.00627475
-3.30851e-05
0.00628237
-3.82598e-05
0.00629102
-4.34699e-05
0.00630073
-4.87194e-05
0.00631148
-5.40119e-05
0.00632331
-5.93508e-05
0.00633621
-6.47388e-05
0.00635019
-7.01786e-05
0.00636528
-7.5672e-05
0.00638147
-8.12205e-05
0.00639879
-8.6825e-05
0.00641724
-9.24857e-05
0.00643683
-9.82021e-05
0.00645759
-0.000103973
0.00647951
-0.000109797
0.00650261
-0.000115671
0.00652691
-0.000121591
0.0065524
-0.000127554
0.0065791
-0.000133554
0.00660702
-0.000139585
0.00663616
-0.000145639
0.00666652
-0.000151709
0.00669812
-0.000157785
0.00673094
-0.000163859
0.00676499
-0.000169918
0.00680026
-0.000175951
0.00683675
-0.000181945
0.00687444
-0.000187887
0.00691333
-0.000193763
0.0069534
-0.000199558
0.00699462
-0.000205256
0.00703699
-0.000210842
0.00708046
-0.000216299
0.00712502
-0.000221611
0.00717063
-0.000226761
0.00721725
-0.000231732
0.00726485
-0.00023651
0.00731338
-0.000241077
0.00736279
-0.000245419
0.00741304
-0.000249521
0.00746408
-0.000253369
0.00751585
-0.000256952
0.00756829
-0.000260257
0.00762134
-0.000263275
0.00767495
-0.000265996
0.00772905
-0.000268415
0.00778357
-0.000270525
0.00783846
-0.000272323
0.00789364
-0.000273806
0.00794906
-0.000274974
0.00800464
-0.00027583
0.00806033
-0.000276374
0.00811606
-0.000276613
0.00817177
-0.000276551
0.00822739
-0.000276198
0.00828288
-0.00027556
0.00833818
-0.000274649
0.00839322
-0.000273475
0.00844796
-0.00027205
0.00850236
-0.000270386
0.00855636
-0.000268497
0.00860993
-0.000266396
0.00866302
-0.000264097
0.00871559
-0.000261614
0.00876762
-0.00025896
0.00881907
-0.000256148
0.00886991
-0.000253192
0.00892013
-0.000250105
0.00896968
-0.000246898
0.00901856
-0.000243583
0.00906675
-0.000240169
0.00911422
-0.000236667
0.00916097
-0.000233086
0.00920698
-0.000229432
0.00925224
-0.000225711
0.00929674
-0.00022193
0.00934046
-0.000218093
0.0093834
-0.000214202
0.00942556
-0.000210259
0.00946691
-0.000206267
0.00950745
-0.000202223
0.00954718
-0.000198128
0.00958608
-0.000193979
0.00962414
-0.000189773
0.00966135
-0.000185507
0.0096977
-0.000181177
0.00973318
-0.000176777
0.00976777
-0.000172302
0.00980145
-0.000167748
0.00983421
-0.000163107
0.00986602
-0.000158373
0.00989688
-0.000153541
0.00992676
-0.000148604
0.00995563
-0.000143556
0.00998347
-0.000138392
0.0100103
-0.000133107
0.010036
-0.000127694
0.0100606
-0.000122151
0.0100841
-0.000116473
0.0101064
-0.000110657
0.0101275
-0.0001047
0.0101474
-9.86011e-05
0.010166
-9.23589e-05
0.0101834
-8.59732e-05
0.0101995
-7.94447e-05
0.0102142
-7.27748e-05
0.0102276
-6.59657e-05
0.0102395
-5.90205e-05
0.0102501
-5.1943e-05
0.0102592
-4.47378e-05
0.0102668
-3.74102e-05
0.0102729
-2.99663e-05
0.0102775
-2.24128e-05
0.0102806
-1.47567e-05
0.0102821
-7.0061e-06
0.010282
8.30702e-07
0.0102803
8.74477e-06
0.010277
1.67271e-05
0.0102721
2.4768e-05
0.0102655
3.28575e-05
0.0102574
4.09856e-05
0.0102475
4.91417e-05
0.0102361
5.73153e-05
0.0102229
6.54956e-05
0.0102082
7.36719e-05
0.0101917
8.18331e-05
0.0101737
8.99684e-05
0.010154
9.80667e-05
0.0101326
0.000106117
0.0101097
0.000114108
0.0100852
0.00012203
0.010059
0.000129871
0.0100313
0.00013762
0.0100021
0.000145267
0.00997136
0.0001528
0.00993912
0.00016021
0.0099054
0.000167486
0.00987024
0.000174617
0.00983368
0.000181594
0.00979574
0.000188405
0.00975646
0.000195041
0.00971587
0.000201492
0.00967402
0.000207749
0.00963095
0.000213801
0.0095867
0.00021964
0.00954131
0.000225256
0.00949484
0.000230641
0.00944732
0.000235787
0.00939882
0.000240685
0.00934938
0.000245327
0.00929905
0.000249707
0.00924789
0.000253817
0.00919596
0.000257651
0.00914331
0.000261204
0.00909
0.00026447
0.00903609
0.000267445
0.00898165
0.000270126
0.00892672
0.000272508
0.00887137
0.000274589
0.00881567
0.000276369
0.00875967
0.000277845
0.00870343
0.000279019
0.00864702
0.000279891
0.00859051
0.000280462
0.00853394
0.000280735
0.00847738
0.000280713
0.00842089
0.000280401
0.00836452
0.000279803
0.00830834
0.000278924
0.0082524
0.000277773
0.00819675
0.000276355
0.00814145
0.000274678
0.00808654
0.00027275
0.00803208
0.000270582
0.00797811
0.000268182
0.00792468
0.00026556
0.00787183
0.000262728
0.00781959
0.000259694
0.00776802
0.000256472
0.00771714
0.000253072
0.007667
0.000249505
0.0076176
0.000245784
0.007569
0.00024192
0.00752121
0.000237924
0.00747426
0.00023381
0.00742817
0.000229587
0.00738295
0.000225268
0.00733864
0.000220865
0.00729523
0.000216387
0.00725274
0.000211846
0.00721118
0.000207253
0.00717056
0.000202618
0.00713089
0.00019795
0.00709217
0.00019326
0.00705441
0.000188555
0.00701759
0.000183847
0.00698173
0.000179141
0.00694681
0.000174447
0.00691284
0.000169772
0.00687981
0.000165123
0.0068477
0.000160508
0.00681653
0.000155931
0.00678626
0.0001514
0.0067569
0.000146919
0.00672843
0.000142494
0.00670083
0.000138129
0.00667411
0.00013383
0.00664823
0.000129599
0.00662319
0.00012544
0.00659897
0.000121357
0.00657555
0.000117352
0.00655293
0.000113428
0.00653107
0.000109588
0.00650997
0.000105831
0.0064896
0.000102161
0.00646995
9.85788e-05
0.006451
9.50843e-05
0.00643273
9.16786e-05
0.00641513
8.83617e-05
0.00639817
8.51334e-05
0.00638185
8.19931e-05
0.00636613
7.89397e-05
0.00635101
7.59718e-05
0.00633646
7.3087e-05
0.00632247
7.02825e-05
0.00630903
6.75545e-05
0.00629612
6.48982e-05
0.00628373
6.23078e-05
0.00627184
5.97764e-05
0.00626045