/*--------------------------------*- C++ -*----------------------------------*\
| =========                 |                                                 |
| \\      /  F ield         | OpenFOAM: The Open Source CFD Toolbox           |
|  \\    /   O peration     | Version:  2306                                  |
|   \\  /    A nd           | Website:  www.openfoam.com                      |
|    \\/     M anipulation  |                                                 |
\*---------------------------------------------------------------------------*/
FoamFile
{
    version     2.0;
    format      ascii;
    arch        "LSB;label=32;scalar=64";
    class       volScalarField;
    location    "7";
    object      T;
}
// * * * * * * * * * * * * * * * * * * * * * * * * * * * * * * * * * * * * * //

dimensions      [0 0 0 1 0 0 0];

internalField   nonuniform List<scalar> 
32768
(
300
300
300
300
300
300
300
300
300
300
300
300
300
300
300
300
300
300
300
300
300
300
300
300
300
300
300
300
300
300
300
300
300
300
300
300
300
300
300
300
300
300
300
300
300
300
300
300
300
300
300
300
300
300
300
300
300
300
300
300
300
300
300
300
300
300
300
300
300
300
300
300
300
300
300
300
299.999
299.999
299.999
299.999
299.999
299.999
299.999
299.998
299.998
299.998
299.997
299.997
299.997
299.996
299.996
299.995
299.994
299.994
299.993
299.992
299.991
299.99
299.989
299.987
299.986
299.984
299.983
299.981
299.979
299.976
299.974
299.971
299.969
299.966
299.962
299.959
299.955
299.951
299.946
299.942
299.936
299.931
299.925
299.919
299.913
299.906
299.898
299.89
299.882
299.873
299.864
299.854
299.844
299.833
299.821
299.809
299.797
299.783
299.77
299.755
299.74
299.724
299.708
299.691
299.673
299.654
299.635
299.615
299.595
299.573
299.551
299.528
299.505
299.481
299.456
299.43
299.403
299.376
299.348
299.319
299.29
299.26
299.229
299.197
299.165
299.131
299.098
299.063
299.028
298.991
298.955
298.917
298.879
298.84
298.8
298.759
298.718
298.676
298.632
298.588
298.543
298.497
298.45
298.401
298.352
298.3
298.247
298.192
298.135
298.076
298.013
297.948
297.879
297.805
297.727
297.643
297.552
297.453
297.346
297.228
297.099
296.956
296.797
296.62
296.423
296.203
295.957
295.681
295.372
295.025
294.638
294.204
293.719
293.178
292.575
291.905
291.162
290.339
289.43
288.429
287.329
286.124
284.807
283.372
281.812
280.122
278.296
276.329
274.216
271.952
269.534
266.958
264.221
261.322
258.257
255.025
251.623
248.043
244.276
240.297
236.062
231.482
226.391
220.47
213.123
203.231
188.704
165.645
126.807
58.7265
-63.576
-286.392
-695.421
-1449.16
-2840.5
-5410.11
-10155.4
-18914.4
-35072.4
-64858.3
300
300
300
300
300
300
300
300
300
300
300
300
300
300
300
300
300
300
300
300
300
300
300
300
300
300
300
300
300
300
300
300
300
300
300
300
300
300
300
300
300
300
300
300
300
300
300
300
300
300
300
300
300
300
300
300
300
300
300
300
300
300
300
300
300
300
300
300
300
300
300
300
300
300
300
299.999
299.999
299.999
299.999
299.999
299.999
299.999
299.998
299.998
299.998
299.997
299.997
299.997
299.996
299.996
299.995
299.994
299.994
299.993
299.992
299.991
299.99
299.989
299.988
299.986
299.985
299.983
299.981
299.979
299.977
299.974
299.972
299.969
299.966
299.963
299.959
299.955
299.951
299.947
299.942
299.937
299.931
299.926
299.92
299.913
299.906
299.899
299.891
299.883
299.874
299.864
299.855
299.844
299.834
299.822
299.81
299.798
299.784
299.771
299.756
299.741
299.726
299.709
299.692
299.675
299.656
299.637
299.617
299.597
299.576
299.554
299.531
299.508
299.484
299.459
299.434
299.407
299.38
299.353
299.324
299.295
299.265
299.235
299.203
299.171
299.139
299.105
299.071
299.036
299.001
298.964
298.927
298.89
298.851
298.812
298.772
298.731
298.69
298.647
298.604
298.56
298.515
298.469
298.421
298.373
298.323
298.272
298.219
298.164
298.107
298.047
297.985
297.92
297.851
297.777
297.699
297.615
297.524
297.425
297.318
297.2
297.071
296.928
296.769
296.592
296.395
296.175
295.929
295.653
295.344
294.997
294.609
294.175
293.69
293.149
292.546
291.876
291.132
290.309
289.4
288.398
287.298
286.093
284.775
283.339
281.779
280.089
278.263
276.295
274.181
271.917
269.498
266.921
264.184
261.284
258.219
254.986
251.583
248.004
244.236
240.257
236.021
231.441
226.349
220.429
213.083
203.193
188.669
165.615
126.787
58.7236
-63.5511
-286.322
-695.283
-1448.92
-2840.12
-5409.58
-10154.7
-18914
-35073
-64862.1
300
300
300
300
300
300
300
300
300
300
300
300
300
300
300
300
300
300
300
300
300
300
300
300
300
300
300
300
300
300
300
300
300
300
300
300
300
300
300
300
300
300
300
300
300
300
300
300
300
300
300
300
300
300
300
300
300
300
300
300
300
300
300
300
300
300
300
300
300
300
300
300
300
300
299.999
299.999
299.999
299.999
299.999
299.999
299.999
299.998
299.998
299.998
299.997
299.997
299.997
299.996
299.995
299.995
299.994
299.993
299.993
299.992
299.991
299.989
299.988
299.987
299.985
299.984
299.982
299.98
299.978
299.975
299.973
299.97
299.967
299.964
299.96
299.956
299.952
299.948
299.943
299.938
299.933
299.927
299.921
299.915
299.908
299.9
299.893
299.884
299.876
299.867
299.857
299.847
299.836
299.825
299.813
299.8
299.787
299.774
299.759
299.745
299.729
299.713
299.696
299.679
299.661
299.642
299.622
299.602
299.581
299.56
299.537
299.514
299.491
299.466
299.441
299.415
299.389
299.362
299.334
299.305
299.276
299.246
299.216
299.184
299.152
299.12
299.086
299.052
299.017
298.982
298.946
298.909
298.872
298.834
298.795
298.756
298.715
298.674
298.633
298.59
298.547
298.503
298.457
298.411
298.364
298.315
298.266
298.214
298.161
298.107
298.05
297.99
297.928
297.863
297.794
297.721
297.642
297.558
297.468
297.369
297.262
297.145
297.015
296.872
296.713
296.537
296.34
296.12
295.873
295.598
295.288
294.942
294.554
294.12
293.635
293.093
292.49
291.82
291.076
290.252
289.343
288.341
287.24
286.034
284.716
283.28
281.719
280.028
278.202
276.233
274.119
271.854
269.434
266.857
264.119
261.219
258.153
254.92
251.516
247.936
244.168
240.189
235.953
231.373
226.282
220.362
213.018
203.132
188.614
165.572
126.763
58.7316
-63.4903
-286.177
-695.008
-1448.46
-2839.41
-5408.61
-10153.6
-18913.3
-35074.6
-64870.3
300
300
300
300
300
300
300
300
300
300
300
300
300
300
300
300
300
300
300
300
300
300
300
300
300
300
300
300
300
300
300
300
300
300
300
300
300
300
300
300
300
300
300
300
300
300
300
300
300
300
300
300
300
300
300
300
300
300
300
300
300
300
300
300
300
300
300
300
300
300
300
300
299.999
299.999
299.999
299.999
299.999
299.999
299.999
299.998
299.998
299.998
299.997
299.997
299.997
299.996
299.996
299.995
299.994
299.993
299.993
299.992
299.991
299.989
299.988
299.987
299.985
299.983
299.981
299.979
299.977
299.975
299.972
299.969
299.966
299.963
299.959
299.955
299.951
299.947
299.942
299.937
299.931
299.925
299.919
299.912
299.905
299.897
299.889
299.881
299.872
299.862
299.852
299.842
299.83
299.819
299.807
299.794
299.78
299.766
299.752
299.736
299.72
299.704
299.687
299.669
299.65
299.631
299.611
299.591
299.57
299.548
299.525
299.502
299.478
299.453
299.428
299.402
299.376
299.348
299.32
299.292
299.263
299.233
299.202
299.171
299.139
299.107
299.074
299.04
299.006
298.971
298.936
298.9
298.863
298.826
298.788
298.749
298.71
298.67
298.629
298.588
298.546
298.503
298.46
298.416
298.37
298.324
298.277
298.228
298.179
298.127
298.075
298.02
297.963
297.904
297.842
297.777
297.708
297.635
297.557
297.473
297.383
297.285
297.178
297.061
296.931
296.789
296.63
296.454
296.257
296.037
295.79
295.515
295.205
294.859
294.471
294.037
293.552
293.01
292.407
291.736
290.992
290.168
289.258
288.255
287.154
285.948
284.629
283.192
281.631
279.94
278.112
276.143
274.028
271.763
269.343
266.765
264.026
261.125
258.059
254.825
251.421
247.841
244.072
240.093
235.857
231.277
226.187
220.269
212.928
203.047
188.539
165.514
126.733
58.7492
-63.3949
-285.958
-694.599
-1447.78
-2838.37
-5407.18
-10152.1
-18912.5
-35077.2
-64882.7
300
300
300
300
300
300
300
300
300
300
300
300
300
300
300
300
300
300
300
300
300
300
300
300
300
300
300
300
300
300
300
300
300
300
300
300
300
300
300
300
300
300
300
300
300
300
300
300
300
300
300
300
300
300
300
300
300
300
300
300
300
300
300
300
300
300
300
300
300
300
299.999
299.999
299.999
299.999
299.999
299.999
299.999
299.998
299.998
299.998
299.997
299.997
299.997
299.996
299.995
299.995
299.994
299.993
299.992
299.991
299.99
299.989
299.988
299.986
299.984
299.983
299.981
299.978
299.976
299.973
299.971
299.968
299.964
299.961
299.957
299.953
299.948
299.943
299.938
299.932
299.926
299.92
299.913
299.906
299.898
299.89
299.882
299.872
299.863
299.852
299.842
299.83
299.819
299.806
299.793
299.779
299.765
299.75
299.734
299.718
299.701
299.684
299.666
299.647
299.627
299.607
299.586
299.565
299.542
299.519
299.496
299.472
299.447
299.421
299.395
299.369
299.341
299.313
299.285
299.255
299.226
299.195
299.164
299.133
299.101
299.068
299.035
299.001
298.967
298.932
298.896
298.86
298.824
298.787
298.749
298.711
298.673
298.634
298.594
298.553
298.513
298.471
298.429
298.386
298.342
298.298
298.253
298.206
298.159
298.111
298.061
298.01
297.958
297.903
297.847
297.788
297.726
297.661
297.593
297.52
297.443
297.359
297.269
297.171
297.065
296.948
296.819
296.676
296.518
296.342
296.145
295.925
295.679
295.403
295.094
294.748
294.36
293.926
293.44
292.899
292.295
291.624
290.879
290.055
289.145
288.142
287.04
285.833
284.514
283.077
281.515
279.823
277.994
276.025
273.909
271.643
269.222
266.643
263.904
261.002
257.936
254.702
251.297
247.716
243.948
239.968
235.732
231.153
226.064
220.149
212.812
202.938
188.443
165.44
126.697
58.7759
-63.2656
-285.666
-694.056
-1446.87
-2836.99
-5405.31
-10150
-18911.5
-35080.6
-64899.5
300
300
300
300
300
300
300
300
300
300
300
300
300
300
300
300
300
300
300
300
300
300
300
300
300
300
300
300
300
300
300
300
300
300
300
300
300
300
300
300
300
300
300
300
300
300
300
300
300
300
300
300
300
300
300
300
300
300
300
300
300
300
300
300
300
300
300
300
300
299.999
299.999
299.999
299.999
299.999
299.999
299.998
299.998
299.998
299.997
299.997
299.996
299.996
299.995
299.995
299.994
299.993
299.992
299.991
299.99
299.988
299.987
299.985
299.983
299.981
299.979
299.977
299.974
299.971
299.968
299.965
299.961
299.957
299.953
299.949
299.944
299.938
299.933
299.926
299.92
299.913
299.905
299.897
299.889
299.88
299.87
299.86
299.85
299.838
299.827
299.814
299.801
299.787
299.773
299.758
299.742
299.726
299.709
299.691
299.673
299.654
299.634
299.613
299.592
299.57
299.548
299.525
299.501
299.476
299.451
299.425
299.399
299.372
299.344
299.316
299.287
299.257
299.227
299.197
299.166
299.134
299.102
299.069
299.036
299.003
298.968
298.934
298.899
298.864
298.828
298.791
298.755
298.717
298.68
298.642
298.603
298.565
298.525
298.485
298.445
298.404
298.363
298.321
298.279
298.236
298.192
298.148
298.102
298.056
298.009
297.961
297.912
297.861
297.809
297.755
297.699
297.64
297.579
297.515
297.447
297.375
297.298
297.215
297.125
297.028
296.922
296.805
296.677
296.535
296.377
296.201
296.005
295.785
295.539
295.264
294.955
294.608
294.22
293.786
293.301
292.759
292.155
291.484
290.739
289.914
289.003
288
286.898
285.69
284.37
282.932
281.37
279.677
277.847
275.877
273.761
271.493
269.072
266.493
263.753
260.85
257.783
254.548
251.143
247.562
243.793
239.814
235.578
231
225.913
220
212.669
202.805
188.325
165.35
126.654
58.811
-63.103
-285.3
-693.38
-1445.75
-2835.28
-5402.99
-10147.4
-18910.2
-35085.1
-64920.6
300
300
300
300
300
300
300
300
300
300
300
300
300
300
300
300
300
300
300
300
300
300
300
300
300
300
300
300
300
300
300
300
300
300
300
300
300
300
300
300
300
300
300
300
300
300
300
300
300
300
300
300
300
300
300
300
300
300
300
300
300
300
300
300
300
300
300
299.999
299.999
299.999
299.999
299.999
299.999
299.998
299.998
299.998
299.997
299.997
299.996
299.996
299.995
299.994
299.994
299.993
299.992
299.99
299.989
299.988
299.986
299.984
299.982
299.98
299.978
299.975
299.972
299.969
299.966
299.962
299.958
299.954
299.949
299.944
299.938
299.932
299.926
299.919
299.912
299.904
299.896
299.887
299.877
299.867
299.856
299.845
299.833
299.821
299.807
299.793
299.779
299.763
299.747
299.73
299.713
299.695
299.676
299.656
299.635
299.614
299.592
299.569
299.546
299.522
299.497
299.471
299.445
299.418
299.391
299.362
299.333
299.304
299.274
299.243
299.212
299.181
299.148
299.116
299.083
299.049
299.015
298.98
298.946
298.91
298.875
298.839
298.802
298.766
298.729
298.691
298.654
298.616
298.578
298.539
298.5
298.461
298.422
298.382
298.342
298.302
298.261
298.22
298.178
298.136
298.094
298.051
298.007
297.963
297.918
297.872
297.826
297.778
297.729
297.679
297.627
297.574
297.518
297.46
297.4
297.336
297.269
297.198
297.121
297.039
296.95
296.853
296.748
296.632
296.504
296.363
296.205
296.03
295.834
295.615
295.37
295.094
294.786
294.439
294.052
293.617
293.132
292.59
291.986
291.314
290.569
289.744
288.833
287.829
286.726
285.517
284.197
282.758
281.195
279.501
277.671
275.7
273.582
271.314
268.892
266.312
263.571
260.668
257.6
254.365
250.959
247.378
243.609
239.629
235.395
230.817
225.732
219.823
212.498
202.645
188.185
165.243
126.603
58.8534
-62.908
-284.862
-692.571
-1444.4
-2833.24
-5400.21
-10144.4
-18908.7
-35090.4
-64946
300
300
300
300
300
300
300
300
300
300
300
300
300
300
300
300
300
300
300
300
300
300
300
300
300
300
300
300
300
300
300
300
300
300
300
300
300
300
300
300
300
300
300
300
300
300
300
300
300
300
300
300
300
300
300
300
300
300
300
300
300
300
300
300
300
299.999
299.999
299.999
299.999
299.999
299.999
299.998
299.998
299.998
299.997
299.997
299.996
299.996
299.995
299.994
299.993
299.992
299.991
299.99
299.989
299.987
299.985
299.983
299.981
299.979
299.976
299.973
299.97
299.967
299.963
299.959
299.954
299.949
299.944
299.938
299.932
299.925
299.918
299.911
299.902
299.894
299.884
299.874
299.863
299.852
299.84
299.827
299.814
299.799
299.784
299.768
299.752
299.734
299.716
299.697
299.677
299.657
299.635
299.613
299.589
299.565
299.541
299.515
299.489
299.461
299.433
299.405
299.375
299.345
299.314
299.283
299.251
299.218
299.185
299.151
299.117
299.082
299.047
299.011
298.975
298.939
298.902
298.865
298.828
298.79
298.752
298.714
298.675
298.637
298.598
298.559
298.52
298.481
298.441
298.402
298.362
298.322
298.282
298.242
298.202
298.161
298.121
298.08
298.039
297.997
297.956
297.914
297.871
297.828
297.785
297.741
297.697
297.652
297.606
297.559
297.511
297.461
297.41
297.358
297.303
297.246
297.187
297.124
297.058
296.987
296.912
296.83
296.743
296.647
296.542
296.427
296.3
296.159
296.003
295.828
295.633
295.414
295.169
294.895
294.586
294.24
293.853
293.419
292.933
292.391
291.787
291.115
290.369
289.544
288.632
287.627
286.524
285.315
283.993
282.553
280.989
279.294
277.463
275.491
273.373
271.104
268.68
266.099
263.358
260.454
257.385
254.15
250.744
247.162
243.393
239.414
235.18
230.604
225.521
219.616
212.299
202.459
188.022
165.118
126.543
58.902
-62.6818
-284.354
-691.63
-1442.84
-2830.86
-5396.99
-10140.9
-18907
-35096.7
-64975.8
300
300
300
300
300
300
300
300
300
300
300
300
300
300
300
300
300
300
300
300
300
300
300
300
300
300
300
300
300
300
300
300
300
300
300
300
300
300
300
300
300
300
300
300
300
300
300
300
300
300
300
300
300
300
300
300
300
300
300
300
300
300
300
299.999
299.999
299.999
299.999
299.999
299.999
299.998
299.998
299.998
299.997
299.997
299.996
299.996
299.995
299.994
299.993
299.992
299.991
299.989
299.988
299.986
299.984
299.982
299.98
299.977
299.974
299.971
299.968
299.964
299.96
299.955
299.95
299.945
299.939
299.932
299.925
299.918
299.91
299.901
299.892
299.882
299.871
299.86
299.848
299.835
299.821
299.806
299.791
299.775
299.758
299.74
299.721
299.701
299.68
299.658
299.635
299.612
299.587
299.562
299.535
299.508
299.479
299.45
299.42
299.389
299.357
299.324
299.291
299.257
299.222
299.187
299.15
299.114
299.076
299.038
299
298.961
298.922
298.883
298.843
298.802
298.762
298.721
298.68
298.639
298.598
298.557
298.516
298.474
298.433
298.391
298.35
298.309
298.267
298.226
298.185
298.144
298.103
298.062
298.02
297.979
297.938
297.897
297.856
297.815
297.774
297.733
297.691
297.65
297.608
297.566
297.523
297.48
297.436
297.392
297.347
297.301
297.254
297.206
297.156
297.105
297.052
296.996
296.938
296.876
296.811
296.742
296.668
296.588
296.501
296.407
296.303
296.189
296.063
295.924
295.768
295.594
295.4
295.182
294.938
294.663
294.356
294.01
293.623
293.189
292.703
292.161
291.557
290.885
290.139
289.313
288.4
287.395
286.291
285.081
283.758
282.318
280.752
279.057
277.225
275.251
273.132
270.862
268.437
265.855
263.113
260.208
257.139
253.902
250.496
246.914
243.145
239.166
234.932
230.358
225.278
219.378
212.07
202.244
187.833
164.973
126.473
58.9555
-62.4259
-283.776
-690.559
-1441.05
-2828.14
-5393.3
-10136.8
-18905.1
-35103.9
-65009.9
300
300
300
300
300
300
300
300
300
300
300
300
300
300
300
300
300
300
300
300
300
300
300
300
300
300
300
300
300
300
300
300
300
300
300
300
300
300
300
300
300
300
300
300
300
300
300
300
300
300
300
300
300
300
300
300
300
300
300
300
300
300
299.999
299.999
299.999
299.999
299.999
299.998
299.998
299.998
299.997
299.997
299.996
299.996
299.995
299.994
299.993
299.992
299.99
299.989
299.987
299.986
299.983
299.981
299.979
299.976
299.973
299.969
299.965
299.961
299.956
299.951
299.946
299.94
299.933
299.926
299.918
299.91
299.901
299.891
299.88
299.869
299.857
299.844
299.83
299.816
299.8
299.783
299.766
299.747
299.728
299.707
299.685
299.662
299.638
299.613
299.587
299.56
299.532
299.502
299.472
299.44
299.408
299.374
299.339
299.304
299.267
299.23
299.192
299.152
299.113
299.072
299.031
298.989
298.946
298.903
298.86
298.816
298.772
298.727
298.682
298.637
298.592
298.547
298.501
298.456
298.41
298.365
298.32
298.275
298.23
298.185
298.141
298.097
298.053
298.009
297.965
297.922
297.879
297.837
297.794
297.752
297.71
297.669
297.627
297.586
297.545
297.504
297.464
297.423
297.382
297.341
297.3
297.259
297.217
297.175
297.133
297.09
297.047
297.002
296.957
296.91
296.862
296.813
296.761
296.707
296.651
296.591
296.528
296.46
296.388
296.309
296.224
296.131
296.029
295.917
295.792
295.654
295.499
295.327
295.134
294.917
294.673
294.4
294.092
293.747
293.361
292.927
292.442
291.9
291.295
290.623
289.876
289.05
288.137
287.131
286.026
284.815
283.491
282.05
280.483
278.786
276.953
274.978
272.858
270.586
268.161
265.578
262.834
259.928
256.858
253.621
250.214
246.632
242.863
238.884
234.651
230.079
225.002
219.108
211.809
202
187.618
164.808
126.391
59.0122
-62.1419
-283.13
-689.358
-1439.05
-2825.1
-5389.16
-10132.3
-18902.9
-35112
-65048.2
300
300
300
300
300
300
300
300
300
300
300
300
300
300
300
300
300
300
300
300
300
300
300
300
300
300
300
300
300
300
300
300
300
300
300
300
300
300
300
300
300
300
300
300
300
300
300
300
300
300
300
300
300
300
300
300
300
300
300
300
299.999
299.999
299.999
299.999
299.999
299.998
299.998
299.998
299.997
299.997
299.996
299.996
299.995
299.994
299.993
299.992
299.99
299.989
299.987
299.985
299.983
299.98
299.977
299.974
299.971
299.967
299.963
299.958
299.953
299.947
299.941
299.935
299.927
299.919
299.91
299.901
299.891
299.88
299.868
299.855
299.842
299.827
299.811
299.795
299.777
299.758
299.738
299.717
299.694
299.67
299.645
299.619
299.592
299.563
299.533
299.501
299.469
299.435
299.4
299.363
299.325
299.286
299.246
299.205
299.163
299.12
299.075
299.03
298.984
298.937
298.89
298.842
298.793
298.743
298.694
298.643
298.593
298.542
298.491
298.44
298.389
298.338
298.287
298.236
298.185
298.134
298.084
298.034
297.985
297.936
297.887
297.839
297.792
297.745
297.698
297.652
297.607
297.562
297.518
297.474
297.431
297.388
297.346
297.305
297.263
297.222
297.182
297.142
297.102
297.062
297.023
296.983
296.944
296.904
296.864
296.824
296.784
296.743
296.702
296.659
296.616
296.572
296.526
296.478
296.429
296.378
296.323
296.266
296.205
296.139
296.069
295.993
295.91
295.819
295.719
295.608
295.485
295.348
295.196
295.024
294.832
294.617
294.374
294.102
293.796
293.451
293.065
292.632
292.147
291.605
291
290.328
289.581
288.754
287.84
286.834
285.728
284.515
283.191
281.748
280.18
278.482
276.647
274.671
272.549
270.276
267.85
265.265
262.521
259.614
256.543
253.305
249.898
246.315
242.545
238.567
234.335
229.765
224.691
218.803
211.515
201.725
187.375
164.619
126.295
59.0704
-61.8316
-282.418
-688.031
-1436.84
-2821.72
-5384.57
-10127.2
-18900.5
-35121.1
-65090.9
300
300
300
300
300
300
300
300
300
300
300
300
300
300
300
300
300
300
300
300
300
300
300
300
300
300
300
300
300
300
300
300
300
300
300
300
300
300
300
300
300
300
300
300
300
300
300
300
300
300
300
300
300
300
300
300
300
300
300
299.999
299.999
299.999
299.999
299.999
299.998
299.998
299.997
299.997
299.996
299.996
299.995
299.994
299.993
299.992
299.99
299.988
299.987
299.984
299.982
299.979
299.976
299.973
299.969
299.965
299.961
299.955
299.95
299.944
299.937
299.929
299.921
299.912
299.903
299.892
299.881
299.868
299.855
299.841
299.825
299.809
299.791
299.772
299.752
299.73
299.707
299.683
299.657
299.63
299.602
299.571
299.54
299.507
299.472
299.436
299.398
299.358
299.318
299.275
299.232
299.187
299.14
299.092
299.043
298.993
298.941
298.889
298.835
298.781
298.726
298.67
298.613
298.556
298.499
298.441
298.383
298.324
298.266
298.207
298.148
298.09
298.032
297.974
297.917
297.86
297.804
297.748
297.693
297.638
297.584
297.531
297.479
297.428
297.377
297.328
297.279
297.231
297.185
297.139
297.093
297.049
297.006
296.963
296.921
296.88
296.84
296.8
296.761
296.722
296.684
296.646
296.608
296.571
296.534
296.497
296.46
296.422
296.384
296.346
296.308
296.268
296.228
296.187
296.144
296.099
296.053
296.004
295.953
295.898
295.84
295.778
295.71
295.636
295.556
295.467
295.369
295.261
295.14
295.006
294.855
294.686
294.495
294.281
294.04
293.769
293.464
293.12
292.735
292.302
291.817
291.275
290.671
289.998
289.251
288.424
287.509
286.502
285.395
284.182
282.856
281.412
279.842
278.143
276.306
274.329
272.205
269.931
267.502
264.917
262.171
259.263
256.19
252.952
249.544
245.96
242.191
238.213
233.982
229.414
224.344
218.463
211.186
201.417
187.102
164.406
126.183
59.1279
-61.4972
-281.643
-686.579
-1434.41
-2818.01
-5379.52
-10121.7
-18897.9
-35131
-65137.8
300
300
300
300
300
300
300
300
300
300
300
300
300
300
300
300
300
300
300
300
300
300
300
300
300
300
300
300
300
300
300
300
300
300
300
300
300
300
300
300
300
300
300
300
300
300
300
300
300
300
300
300
300
300
300
300
300
299.999
299.999
299.999
299.999
299.999
299.998
299.998
299.998
299.997
299.996
299.996
299.995
299.994
299.993
299.992
299.99
299.988
299.986
299.984
299.982
299.979
299.976
299.972
299.968
299.963
299.958
299.953
299.947
299.94
299.932
299.924
299.915
299.905
299.895
299.883
299.87
299.856
299.841
299.825
299.808
299.789
299.769
299.748
299.725
299.7
299.674
299.647
299.617
299.586
299.553
299.519
299.482
299.444
299.404
299.362
299.318
299.273
299.226
299.177
299.126
299.073
299.019
298.964
298.906
298.848
298.788
298.727
298.664
298.601
298.537
298.471
298.406
298.339
298.272
298.205
298.137
298.069
298.001
297.934
297.866
297.799
297.732
297.666
297.6
297.535
297.471
297.408
297.346
297.284
297.224
297.165
297.107
297.05
296.995
296.941
296.888
296.836
296.786
296.737
296.689
296.643
296.598
296.554
296.511
296.469
296.428
296.389
296.35
296.312
296.275
296.239
296.203
296.168
296.134
296.1
296.066
296.032
295.998
295.965
295.931
295.896
295.861
295.826
295.789
295.752
295.713
295.672
295.63
295.585
295.537
295.486
295.431
295.372
295.308
295.237
295.16
295.074
294.98
294.874
294.756
294.624
294.475
294.308
294.12
293.908
293.669
293.399
293.095
292.753
292.368
291.936
291.452
290.91
290.306
289.633
288.886
288.058
287.143
286.134
285.026
283.812
282.485
281.039
279.468
277.766
275.929
273.949
271.824
269.548
267.118
264.53
261.783
258.873
255.8
252.56
249.151
245.567
241.798
237.82
233.59
229.024
223.958
218.085
210.821
201.074
186.797
164.166
126.053
59.1827
-61.141
-280.806
-685.006
-1431.76
-2813.97
-5374.01
-10115.6
-18894.9
-35141.7
-65189
300
300
300
300
300
300
300
300
300
300
300
300
300
300
300
300
300
300
300
300
300
300
300
300
300
300
300
300
300
300
300
300
300
300
300
300
300
300
300
300
300
300
300
300
300
300
300
300
300
300
300
300
300
300
300
300
299.999
299.999
299.999
299.999
299.999
299.998
299.998
299.997
299.997
299.996
299.995
299.994
299.993
299.992
299.99
299.988
299.986
299.984
299.981
299.978
299.975
299.971
299.967
299.962
299.957
299.951
299.944
299.936
299.928
299.919
299.909
299.898
299.887
299.874
299.859
299.844
299.827
299.809
299.79
299.769
299.746
299.722
299.696
299.668
299.639
299.607
299.574
299.538
299.501
299.461
299.419
299.375
299.329
299.281
299.23
299.178
299.123
299.066
299.007
298.946
298.883
298.818
298.751
298.683
298.613
298.541
298.469
298.394
298.319
298.243
298.166
298.088
298.01
297.931
297.852
297.773
297.694
297.615
297.536
297.458
297.381
297.304
297.229
297.154
297.08
297.008
296.937
296.867
296.799
296.732
296.667
296.603
296.542
296.482
296.423
296.367
296.312
296.259
296.208
296.159
296.111
296.065
296.021
295.978
295.937
295.897
295.859
295.822
295.786
295.752
295.718
295.686
295.654
295.623
295.593
295.563
295.534
295.505
295.476
295.447
295.418
295.388
295.358
295.328
295.296
295.263
295.229
295.193
295.155
295.115
295.072
295.025
294.975
294.92
294.86
294.794
294.72
294.638
294.547
294.445
294.33
294.201
294.056
293.891
293.705
293.496
293.258
292.99
292.688
292.347
291.964
291.532
291.049
290.508
289.904
289.231
288.483
287.655
286.739
285.729
284.62
283.404
282.076
280.628
279.056
277.352
275.512
273.531
271.403
269.125
266.693
264.104
261.355
258.444
255.369
252.128
248.718
245.133
241.363
237.386
233.158
228.594
223.532
217.667
210.417
200.693
186.457
163.897
125.904
59.232
-60.7658
-279.911
-683.313
-1428.92
-2809.6
-5368.05
-10109.1
-18891.7
-35153.3
-65244.3
300
300
300
300
300
300
300
300
300
300
300
300
300
300
300
300
300
300
300
300
300
300
300
300
300
300
300
300
300
300
300
300
300
300
300
300
300
300
300
300
300
300
300
300
300
300
300
300
300
300
300
300
300
300
299.999
299.999
299.999
299.999
299.999
299.998
299.998
299.997
299.997
299.996
299.995
299.994
299.993
299.992
299.99
299.989
299.986
299.984
299.981
299.978
299.975
299.97
299.966
299.961
299.955
299.948
299.941
299.933
299.924
299.914
299.904
299.892
299.879
299.864
299.849
299.832
299.813
299.793
299.771
299.748
299.722
299.695
299.666
299.635
299.601
299.565
299.527
299.487
299.444
299.399
299.351
299.301
299.248
299.192
299.134
299.073
299.009
298.943
298.875
298.804
298.73
298.655
298.577
298.497
298.415
298.331
298.246
298.159
298.071
297.981
297.891
297.799
297.707
297.615
297.522
297.43
297.337
297.245
297.153
297.062
296.971
296.882
296.794
296.707
296.622
296.538
296.456
296.376
296.298
296.222
296.148
296.076
296.006
295.939
295.874
295.812
295.751
295.694
295.638
295.585
295.534
295.486
295.439
295.395
295.353
295.313
295.275
295.239
295.204
295.172
295.14
295.111
295.082
295.055
295.029
295.004
294.979
294.955
294.932
294.909
294.886
294.863
294.841
294.817
294.794
294.769
294.744
294.717
294.689
294.659
294.627
294.592
294.555
294.514
294.469
294.419
294.364
294.302
294.234
294.156
294.07
293.972
293.861
293.735
293.593
293.432
293.249
293.042
292.807
292.542
292.241
291.902
291.52
291.09
290.607
290.067
289.463
288.79
288.042
287.213
286.296
285.285
284.175
282.957
281.627
280.178
278.603
276.898
275.056
273.072
270.942
268.662
266.228
263.636
260.885
257.972
254.895
251.653
248.242
244.656
240.886
236.909
232.682
228.12
223.064
217.206
209.971
200.273
186.082
163.597
125.732
59.2734
-60.3744
-278.961
-681.504
-1425.86
-2804.91
-5361.64
-10102
-18888.2
-35165.8
-65303.9
300
300
300
300
300
300
300
300
300
300
300
300
300
300
300
300
300
300
300
300
300
300
300
300
300
300
300
300
300
300
300
300
300
300
300
300
300
300
300
300
300
300
300
300
300
300
300
300
300
300
300
300
300
299.999
299.999
299.999
299.999
299.999
299.998
299.998
299.997
299.996
299.996
299.995
299.994
299.992
299.991
299.989
299.987
299.984
299.981
299.978
299.974
299.97
299.965
299.96
299.954
299.947
299.939
299.93
299.921
299.91
299.898
299.885
299.871
299.855
299.838
299.819
299.799
299.777
299.752
299.726
299.698
299.667
299.635
299.599
299.562
299.521
299.478
299.432
299.384
299.332
299.277
299.22
299.159
299.095
299.028
298.958
298.884
298.808
298.728
298.646
298.561
298.473
298.382
298.288
298.192
298.094
297.994
297.892
297.788
297.683
297.577
297.469
297.361
297.252
297.143
297.034
296.925
296.816
296.708
296.601
296.495
296.391
296.288
296.186
296.087
295.989
295.894
295.801
295.711
295.623
295.538
295.456
295.376
295.3
295.227
295.157
295.089
295.025
294.964
294.907
294.852
294.8
294.751
294.705
294.661
294.621
294.583
294.547
294.514
294.483
294.455
294.428
294.403
294.38
294.359
294.339
294.32
294.302
294.285
294.269
294.254
294.238
294.224
294.209
294.194
294.178
294.163
294.146
294.128
294.109
294.088
294.066
294.041
294.013
293.982
293.948
293.909
293.866
293.817
293.761
293.698
293.626
293.544
293.451
293.345
293.224
293.086
292.929
292.749
292.546
292.314
292.051
291.753
291.415
291.035
290.606
290.125
289.585
288.981
288.308
287.56
286.73
285.813
284.801
283.689
282.47
281.138
279.686
278.109
276.401
274.557
272.57
270.438
268.155
265.718
263.124
260.371
257.456
254.377
251.133
247.72
244.134
240.363
236.386
232.16
227.601
222.55
216.701
209.482
199.811
185.667
163.263
125.534
59.3037
-59.97
-277.959
-679.583
-1422.61
-2799.9
-5354.78
-10094.4
-18884.5
-35179
-65367.6
300
300
300
300
300
300
300
300
300
300
300
300
300
300
300
300
300
300
300
300
300
300
300
300
300
300
300
300
300
300
300
300
300
300
300
300
300
300
300
300
300
300
300
300
300
300
300
300
300
300
300
300
299.999
299.999
299.999
299.999
299.998
299.998
299.997
299.997
299.996
299.995
299.994
299.993
299.991
299.989
299.987
299.985
299.982
299.978
299.975
299.97
299.965
299.959
299.953
299.946
299.937
299.928
299.918
299.906
299.894
299.879
299.864
299.847
299.828
299.807
299.785
299.76
299.733
299.704
299.673
299.639
299.602
299.563
299.52
299.475
299.426
299.375
299.319
299.261
299.199
299.133
299.063
298.99
298.913
298.832