/*--------------------------------*- C++ -*----------------------------------*\
| =========                 |                                                 |
| \\      /  F ield         | OpenFOAM: The Open Source CFD Toolbox           |
|  \\    /   O peration     | Version:  2306                                  |
|   \\  /    A nd           | Website:  www.openfoam.com                      |
|    \\/     M anipulation  |                                                 |
\*---------------------------------------------------------------------------*/
FoamFile
{
    version     2.0;
    format      ascii;
    arch        "LSB;label=32;scalar=64";
    class       volVectorField;
    location    "7";
    object      U;
}
// * * * * * * * * * * * * * * * * * * * * * * * * * * * * * * * * * * * * * //

dimensions      [0 1 -1 0 0 0 0];

internalField   nonuniform List<vector> 
32768
(
(1.00001 -4.04782e-05 0)
(1.00017 -0.000121643 0)
(1.00049 -0.000202964 0)
(1.00097 -0.000284444 0)
(1.00163 -0.000366188 0)
(1.00244 -0.000448294 0)
(1.00342 -0.000530828 0)
(1.00456 -0.000613846 0)
(1.00588 -0.000697409 0)
(1.00735 -0.000781581 0)
(1.009 -0.000866417 0)
(1.01082 -0.000951967 0)
(1.01281 -0.00103827 0)
(1.01497 -0.00112538 0)
(1.01731 -0.0012133 0)
(1.01983 -0.00130206 0)
(1.02252 -0.00139168 0)
(1.0254 -0.00148216 0)
(1.02845 -0.00157347 0)
(1.03169 -0.00166561 0)
(1.03511 -0.00175855 0)
(1.03872 -0.00185222 0)
(1.04252 -0.00194659 0)
(1.04651 -0.00204158 0)
(1.05069 -0.00213709 0)
(1.05506 -0.00223304 0)
(1.05962 -0.0023293 0)
(1.06438 -0.00242575 0)
(1.06933 -0.00252225 0)
(1.07447 -0.00261863 0)
(1.0798 -0.00271473 0)
(1.08533 -0.00281036 0)
(1.09105 -0.00290532 0)
(1.09695 -0.0029994 0)
(1.10305 -0.00309238 0)
(1.10932 -0.00318402 0)
(1.11578 -0.00327409 0)
(1.12242 -0.00336234 0)
(1.12924 -0.00344853 0)
(1.13622 -0.00353238 0)
(1.14337 -0.00361366 0)
(1.15068 -0.00369211 0)
(1.15814 -0.00376748 0)
(1.16575 -0.00383952 0)
(1.1735 -0.00390801 0)
(1.18139 -0.00397272 0)
(1.1894 -0.00403345 0)
(1.19752 -0.00409001 0)
(1.20576 -0.00414221 0)
(1.2141 -0.00418991 0)
(1.22253 -0.00423298 0)
(1.23104 -0.0042713 0)
(1.23962 -0.00430481 0)
(1.24826 -0.00433342 0)
(1.25695 -0.00435712 0)
(1.26569 -0.0043759 0)
(1.27446 -0.00438977 0)
(1.28326 -0.00439878 0)
(1.29206 -0.00440299 0)
(1.30087 -0.0044025 0)
(1.30968 -0.00439742 0)
(1.31847 -0.00438788 0)
(1.32723 -0.00437403 0)
(1.33597 -0.00435603 0)
(1.34466 -0.00433407 0)
(1.35331 -0.00430833 0)
(1.3619 -0.00427902 0)
(1.37043 -0.00424633 0)
(1.37889 -0.00421048 0)
(1.38727 -0.00417167 0)
(1.39558 -0.00413012 0)
(1.4038 -0.00408604 0)
(1.41192 -0.00403961 0)
(1.41996 -0.00399105 0)
(1.42789 -0.00394052 0)
(1.43572 -0.00388821 0)
(1.44344 -0.00383427 0)
(1.45106 -0.00377885 0)
(1.45856 -0.00372209 0)
(1.46595 -0.0036641 0)
(1.47322 -0.00360499 0)
(1.48037 -0.00354483 0)
(1.4874 -0.00348369 0)
(1.4943 -0.00342163 0)
(1.50108 -0.00335868 0)
(1.50774 -0.00329485 0)
(1.51426 -0.00323015 0)
(1.52066 -0.00316456 0)
(1.52692 -0.00309806 0)
(1.53305 -0.0030306 0)
(1.53904 -0.00296213 0)
(1.5449 -0.0028926 0)
(1.55062 -0.00282192 0)
(1.55619 -0.00275003 0)
(1.56162 -0.00267684 0)
(1.5669 -0.00260225 0)
(1.57202 -0.00252618 0)
(1.577 -0.00244854 0)
(1.58182 -0.00236923 0)
(1.58648 -0.00228817 0)
(1.59097 -0.00220527 0)
(1.5953 -0.00212046 0)
(1.59946 -0.00203365 0)
(1.60344 -0.00194478 0)
(1.60724 -0.0018538 0)
(1.61085 -0.00176066 0)
(1.61428 -0.00166531 0)
(1.61751 -0.00156775 0)
(1.62055 -0.00146794 0)
(1.62339 -0.0013659 0)
(1.62602 -0.00126162 0)
(1.62843 -0.00115513 0)
(1.63064 -0.00104648 0)
(1.63262 -0.000935693 0)
(1.63438 -0.000822846 0)
(1.63591 -0.000708005 0)
(1.63721 -0.000591253 0)
(1.63828 -0.000472684 0)
(1.6391 -0.000352402 0)
(1.63969 -0.00023052 0)
(1.64003 -0.000107161 0)
(1.64012 1.75474e-05 0)
(1.63996 0.000143462 0)
(1.63954 0.000270442 0)
(1.63887 0.000398336 0)
(1.63795 0.000526991 0)
(1.63677 0.000656245 0)
(1.63532 0.000785935 0)
(1.63362 0.000915894 0)
(1.63166 0.00104595 0)
(1.62944 0.00117594 0)
(1.62695 0.00130569 0)
(1.62421 0.00143502 0)
(1.62121 0.00156375 0)
(1.61795 0.00169172 0)
(1.61444 0.00181875 0)
(1.61068 0.00194467 0)
(1.60666 0.0020693 0)
(1.6024 0.00219246 0)
(1.59789 0.002314 0)
(1.59314 0.00243374 0)
(1.58815 0.0025515 0)
(1.58293 0.00266713 0)
(1.57748 0.00278045 0)
(1.5718 0.00289131 0)
(1.56591 0.00299954 0)
(1.5598 0.00310498 0)
(1.55348 0.00320747 0)
(1.54697 0.00330687 0)
(1.54025 0.00340302 0)
(1.53335 0.00349577 0)
(1.52626 0.00358499 0)
(1.519 0.00367053 0)
(1.51158 0.00375227 0)
(1.50399 0.00383007 0)
(1.49625 0.00390382 0)
(1.48837 0.0039734 0)
(1.48035 0.0040387 0)
(1.47221 0.00409964 0)
(1.46395 0.00415611 0)
(1.45558 0.00420804 0)
(1.44711 0.00425537 0)
(1.43855 0.00429802 0)
(1.42991 0.00433596 0)
(1.4212 0.00436914 0)
(1.41243 0.00439755 0)
(1.40361 0.00442117 0)
(1.39474 0.00444 0)
(1.38584 0.00445405 0)
(1.37692 0.00446336 0)
(1.36798 0.00446795 0)
(1.35904 0.00446789 0)
(1.3501 0.00446323 0)
(1.34118 0.00445406 0)
(1.33228 0.00444045 0)
(1.32342 0.00442252 0)
(1.31459 0.00440037 0)
(1.30581 0.00437413 0)
(1.29709 0.00434393 0)
(1.28843 0.0043099 0)
(1.27984 0.00427221 0)
(1.27134 0.004231 0)
(1.26291 0.00418643 0)
(1.25459 0.00413869 0)
(1.24636 0.00408793 0)
(1.23823 0.00403434 0)
(1.23022 0.00397811 0)
(1.22232 0.0039194 0)
(1.21454 0.00385841 0)
(1.20688 0.00379533 0)
(1.19935 0.00373032 0)
(1.19196 0.00366359 0)
(1.1847 0.0035953 0)
(1.17757 0.00352564 0)
(1.17059 0.00345478 0)
(1.16375 0.0033829 0)
(1.15706 0.00331015 0)
(1.15051 0.00323671 0)
(1.14411 0.00316272 0)
(1.13786 0.00308834 0)
(1.13176 0.00301372 0)
(1.1258 0.00293899 0)
(1.12 0.00286428 0)
(1.11435 0.00278974 0)
(1.10884 0.00271546 0)
(1.10348 0.00264157 0)
(1.09827 0.00256819 0)
(1.09321 0.00249539 0)
(1.08829 0.00242329 0)
(1.08352 0.00235198 0)
(1.07889 0.00228152 0)
(1.07439 0.00221201 0)
(1.07004 0.00214351 0)
(1.06582 0.00207607 0)
(1.06174 0.00200978 0)
(1.05778 0.00194466 0)
(1.05396 0.00188078 0)
(1.05026 0.00181817 0)
(1.04669 0.00175686 0)
(1.04323 0.00169689 0)
(1.0399 0.00163828 0)
(1.03668 0.00158105 0)
(1.03358 0.00152522 0)
(1.03058 0.00147079 0)
(1.02769 0.00141777 0)
(1.02491 0.00136615 0)
(1.02223 0.00131593 0)
(1.01965 0.00126709 0)
(1.01716 0.0012196 0)
(1.01477 0.00117344 0)
(1.01247 0.00112855 0)
(1.01026 0.00108488 0)
(1.00813 0.00104234 0)
(1.00609 0.00100085 0)
(1.00413 0.000960293 0)
(1.00225 0.000920536 0)
(1.00045 0.000881431 0)
(0.998726 0.000842816 0)
(0.997079 0.000804518 0)
(0.995509 0.000766362 0)
(0.994014 0.00072818 0)
(0.992597 0.000689821 0)
(0.991256 0.000651161 0)
(0.989993 0.000612112 0)
(0.988808 0.000572639 0)
(0.987703 0.000532759 0)
(0.986678 0.000492551 0)
(0.985733 0.000452158 0)
(0.98487 0.000411789 0)
(0.984086 0.000371694 0)
(0.983384 0.000332223 0)
(0.982757 0.000293585 0)
(0.982213 0.000256644 0)
(0.98172 0.000220044 0)
(0.98136 0.00019004 0)
(0.980866 0.000147384 0)
(1.00001 -0.00012161 0)
(1.00017 -0.000365151 0)
(1.00049 -0.000609072 0)
(1.00097 -0.000853507 0)
(1.00162 -0.00109874 0)
(1.00244 -0.00134502 0)
(1.00342 -0.00159257 0)
(1.00456 -0.00184158 0)
(1.00587 -0.00209223 0)
(1.00735 -0.00234471 0)
(1.009 -0.00259919 0)
(1.01081 -0.00285582 0)
(1.0128 -0.00311472 0)
(1.01496 -0.00337602 0)
(1.0173 -0.00363978 0)
(1.01982 -0.00390609 0)
(1.02251 -0.00417496 0)
(1.02538 -0.0044464 0)
(1.02843 -0.00472039 0)
(1.03167 -0.00499686 0)
(1.0351 -0.00527572 0)
(1.03871 -0.00555682 0)
(1.0425 -0.00584001 0)
(1.04649 -0.00612505 0)
(1.05067 -0.0064117 0)
(1.05504 -0.00669966 0)
(1.0596 -0.00698858 0)
(1.06436 -0.00727808 0)
(1.06931 -0.00756773 0)
(1.07445 -0.00785705 0)
(1.07979 -0.00814552 0)
(1.08531 -0.0084326 0)
(1.09103 -0.00871767 0)
(1.09694 -0.00900012 0)
(1.10304 -0.00927927 0)
(1.10932 -0.00955442 0)
(1.11579 -0.00982486 0)
(1.12243 -0.0100898 0)
(1.12925 -0.0103486 0)
(1.13624 -0.0106004 0)
(1.14339 -0.0108445 0)
(1.15071 -0.01108 0)
(1.15818 -0.0113063 0)
(1.1658 -0.0115227 0)
(1.17356 -0.0117283 0)
(1.18145 -0.0119226 0)
(1.18947 -0.012105 0)
(1.19761 -0.0122748 0)
(1.20586 -0.0124315 0)
(1.2142 -0.0125747 0)
(1.22264 -0.0127039 0)
(1.23116 -0.012819 0)
(1.23975 -0.0129195 0)
(1.24841 -0.0130053 0)
(1.25711 -0.0130764 0)
(1.26586 -0.0131327 0)
(1.27465 -0.0131742 0)
(1.28345 -0.0132012 0)
(1.29227 -0.0132137 0)
(1.30109 -0.0132121 0)
(1.3099 -0.0131967 0)
(1.3187 -0.0131679 0)
(1.32748 -0.0131262 0)
(1.33622 -0.013072 0)
(1.34493 -0.0130059 0)
(1.35358 -0.0129285 0)
(1.36218 -0.0128403 0)
(1.37072 -0.012742 0)
(1.37918 -0.0126342 0)
(1.38758 -0.0125176 0)
(1.39589 -0.0123928 0)
(1.40411 -0.0122603 0)
(1.41225 -0.0121208 0)
(1.42028 -0.0119749 0)
(1.42822 -0.0118232 0)
(1.43606 -0.0116661 0)
(1.44378 -0.0115041 0)
(1.4514 -0.0113377 0)
(1.45891 -0.0111673 0)
(1.4663 -0.0109933 0)
(1.47357 -0.0108158 0)
(1.48073 -0.0106353 0)
(1.48776 -0.0104518 0)
(1.49467 -0.0102656 0)
(1.50145 -0.0100767 0)
(1.50811 -0.0098852 0)
(1.51464 -0.0096911 0)
(1.52103 -0.00949434 0)
(1.5273 -0.00929485 0)
(1.53343 -0.00909251 0)
(1.53943 -0.00888716 0)
(1.54529 -0.00867861 0)
(1.55101 -0.00846664 0)
(1.55658 -0.00825102 0)
(1.56201 -0.0080315 0)
(1.5673 -0.0078078 0)
(1.57243 -0.00757966 0)
(1.57741 -0.0073468 0)
(1.58223 -0.00710894 0)
(1.58689 -0.00686581 0)
(1.59139 -0.00661717 0)
(1.59572 -0.00636276 0)
(1.59988 -0.00610237 0)
(1.60387 -0.0058358 0)
(1.60767 -0.00556287 0)
(1.61129 -0.00528345 0)
(1.61473 -0.00499741 0)
(1.61797 -0.0047047 0)
(1.62101 -0.00440525 0)
(1.62385 -0.00409907 0)
(1.62648 -0.00378619 0)
(1.62891 -0.00346667 0)
(1.63111 -0.00314062 0)
(1.6331 -0.00280819 0)
(1.63487 -0.00246955 0)
(1.6364 -0.00212493 0)
(1.63771 -0.00177456 0)
(1.63877 -0.00141873 0)
(1.6396 -0.00105775 0)
(1.64019 -0.000691961 0)
(1.64053 -0.000321736 0)
(1.64062 5.25384e-05 0)
(1.64047 0.000430444 0)
(1.64005 0.000811549 0)
(1.63939 0.0011954 0)
(1.63846 0.00158154 0)
(1.63728 0.00196947 0)
(1.63584 0.00235872 0)
(1.63413 0.00274878 0)
(1.63217 0.00313914 0)
(1.62995 0.00352928 0)
(1.62746 0.00391869 0)
(1.62472 0.00430686 0)
(1.62172 0.00469324 0)
(1.61846 0.00507733 0)
(1.61494 0.00545859 0)
(1.61117 0.00583651 0)
(1.60715 0.00621057 0)
(1.60289 0.00658025 0)
(1.59837 0.00694502 0)
(1.59362 0.0073044 0)
(1.58862 0.00765785 0)
(1.5834 0.00800489 0)
(1.57794 0.00834502 0)
(1.57226 0.00867774 0)
(1.56636 0.00900257 0)
(1.56024 0.00931904 0)
(1.55392 0.00962667 0)
(1.54739 0.00992499 0)
(1.54067 0.0102136 0)
(1.53376 0.010492 0)
(1.52667 0.0107597 0)
(1.5194 0.0110165 0)
(1.51196 0.0112618 0)
(1.50436 0.0114953 0)
(1.49662 0.0117166 0)
(1.48872 0.0119255 0)
(1.4807 0.0121214 0)
(1.47254 0.0123043 0)
(1.46427 0.0124738 0)
(1.45589 0.0126296 0)
(1.44741 0.0127716 0)
(1.43884 0.0128996 0)
(1.43019 0.0130135 0)
(1.42147 0.013113 0)
(1.41269 0.0131982 0)
(1.40385 0.013269 0)
(1.39497 0.0133255 0)
(1.38606 0.0133676 0)
(1.37713 0.0133955 0)
(1.36818 0.0134092 0)
(1.35923 0.0134089 0)
(1.35028 0.0133948 0)
(1.34135 0.0133672 0)
(1.33244 0.0133263 0)
(1.32356 0.0132723 0)
(1.31472 0.0132058 0)
(1.30593 0.0131269 0)
(1.2972 0.0130361 0)
(1.28853 0.0129339 0)
(1.27994 0.0128206 0)
(1.27142 0.0126968 0)
(1.26299 0.0125629 0)
(1.25466 0.0124195 0)
(1.24642 0.0122671 0)
(1.23829 0.0121061 0)
(1.23027 0.0119372 0)
(1.22236 0.0117609 0)
(1.21457 0.0115777 0)
(1.20691 0.0113883 0)
(1.19938 0.0111931 0)
(1.19198 0.0109927 0)
(1.18471 0.0107877 0)
(1.17759 0.0105785 0)
(1.1706 0.0103658 0)
(1.16376 0.0101499 0)
(1.15706 0.00993154 0)
(1.15051 0.00971105 0)
(1.14411 0.00948893 0)
(1.13785 0.00926565 0)
(1.13175 0.00904164 0)
(1.1258 0.00881732 0)
(1.11999 0.00859308 0)
(1.11434 0.00836931 0)
(1.10883 0.00814638 0)
(1.10347 0.00792461 0)
(1.09826 0.00770435 0)
(1.0932 0.00748588 0)
(1.08828 0.0072695 0)
(1.08351 0.00705547 0)
(1.07888 0.00684404 0)
(1.07439 0.00663543 0)
(1.07003 0.00642986 0)
(1.06581 0.00622751 0)
(1.06173 0.00602857 0)
(1.05778 0.00583319 0)
(1.05396 0.0056415 0)
(1.05026 0.00545363 0)
(1.04669 0.00526968 0)
(1.04324 0.00508975 0)
(1.0399 0.0049139 0)
(1.03669 0.00474221 0)
(1.03358 0.00457469 0)
(1.03059 0.0044114 0)
(1.02771 0.00425232 0)
(1.02492 0.00409747 0)
(1.02225 0.0039468 0)
(1.01967 0.00380028 0)
(1.01718 0.00365783 0)
(1.01479 0.00351934 0)
(1.01249 0.00338469 0)
(1.01028 0.00325367 0)
(1.00816 0.00312608 0)
(1.00612 0.00300162 0)
(1.00416 0.00287996 0)
(1.00228 0.00276071 0)
(1.00048 0.00264342 0)
(0.998761 0.00252759 0)
(0.997116 0.00241273 0)
(0.995547 0.00229829 0)
(0.994054 0.00218377 0)
(0.992638 0.00206873 0)
(0.991299 0.00195279 0)
(0.990037 0.00183569 0)
(0.988854 0.00171731 0)
(0.987749 0.00159772 0)
(0.986725 0.00147715 0)
(0.985782 0.00135602 0)
(0.984919 0.00123496 0)
(0.984137 0.00111473 0)
(0.983435 0.000996379 0)
(0.982808 0.000880496 0)
(0.982265 0.000769785 0)
(0.981772 0.000659923 0)
(0.981413 0.000570338 0)
(0.980919 0.000441882 0)
(1.00001 -0.000202771 0)
(1.00017 -0.000608539 0)
(1.00049 -0.00101486 0)
(1.00097 -0.00142209 0)
(1.00162 -0.00183066 0)
(1.00243 -0.00224097 0)
(1.00341 -0.00265337 0)
(1.00455 -0.0030682 0)
(1.00586 -0.0034858 0)
(1.00734 -0.00390646 0)
(1.00898 -0.00433047 0)
(1.0108 -0.00475808 0)
(1.01278 -0.00518952 0)
(1.01494 -0.00562496 0)
(1.01728 -0.00606456 0)
(1.01979 -0.00650841 0)
(1.02248 -0.00695658 0)
(1.02535 -0.00740907 0)
(1.0284 -0.00786584 0)
(1.03164 -0.00832678 0)
(1.03506 -0.00879174 0)
(1.03867 -0.0092605 0)
(1.04246 -0.00973276 0)
(1.04645 -0.0102082 0)
(1.05063 -0.0106863 0)
(1.055 -0.0111667 0)
(1.05956 -0.0116487 0)
(1.06432 -0.0121317 0)
(1.06927 -0.012615 0)
(1.07441 -0.0130979 0)
(1.07975 -0.0135793 0)
(1.08528 -0.0140585 0)
(1.09101 -0.0145344 0)
(1.09692 -0.0150059 0)
(1.10303 -0.0154719 0)
(1.10932 -0.0159314 0)
(1.11579 -0.016383 0)
(1.12244 -0.0168255 0)
(1.12927 -0.0172576 0)
(1.13627 -0.0176782 0)
(1.14344 -0.0180858 0)
(1.15077 -0.0184793 0)
(1.15826 -0.0188573 0)
(1.16589 -0.0192186 0)
(1.17367 -0.0195621 0)
(1.18158 -0.0198867 0)
(1.18962 -0.0201912 0)
(1.19778 -0.0204748 0)
(1.20605 -0.0207365 0)
(1.21441 -0.0209756 0)
(1.22287 -0.0211914 0)
(1.23142 -0.0213834 0)
(1.24003 -0.0215511 0)
(1.24871 -0.0216943 0)
(1.25744 -0.0218127 0)
(1.26621 -0.0219065 0)
(1.27501 -0.0219755 0)
(1.28384 -0.0220202 0)
(1.29268 -0.0220407 0)
(1.30152 -0.0220376 0)
(1.31035 -0.0220115 0)
(1.31917 -0.021963 0)
(1.32797 -0.0218928 0)
(1.33673 -0.0218019 0)
(1.34545 -0.0216911 0)
(1.35413 -0.0215613 0)
(1.36274 -0.0214137 0)
(1.37129 -0.0212491 0)
(1.37978 -0.0210688 0)
(1.38818 -0.0208736 0)
(1.39651 -0.0206648 0)
(1.40474 -0.0204433 0)
(1.41289 -0.0202102 0)
(1.42094 -0.0199664 0)
(1.42889 -0.0197129 0)
(1.43673 -0.0194504 0)
(1.44447 -0.01918 0)
(1.45209 -0.0189022 0)
(1.45961 -0.0186178 0)
(1.467 -0.0183273 0)
(1.47428 -0.0180312 0)
(1.48144 -0.01773 0)
(1.48848 -0.017424 0)
(1.4954 -0.0171135 0)
(1.50218 -0.0167986 0)
(1.50885 -0.0164794 0)
(1.51538 -0.0161559 0)
(1.52178 -0.015828 0)
(1.52806 -0.0154956 0)
(1.53419 -0.0151585 0)
(1.5402 -0.0148164 0)
(1.54606 -0.014469 0)
(1.55178 -0.014116 0)
(1.55737 -0.0137568 0)
(1.5628 -0.0133912 0)
(1.5681 -0.0130186 0)
(1.57324 -0.0126387 0)
(1.57822 -0.0122508 0)
(1.58305 -0.0118546 0)
(1.58773 -0.0114496 0)
(1.59223 -0.0110354 0)
(1.59657 -0.0106116 0)
(1.60074 -0.0101778 0)
(1.60474 -0.00973361 0)
(1.60855 -0.00927882 0)
(1.61218 -0.00881317 0)
(1.61562 -0.00833647 0)
(1.61887 -0.00784859 0)
(1.62192 -0.00734945 0)
(1.62477 -0.00683904 0)
(1.62742 -0.00631742 0)
(1.62985 -0.00578469 0)
(1.63207 -0.00524105 0)
(1.63406 -0.00468672 0)
(1.63583 -0.004122 0)
(1.63738 -0.00354726 0)
(1.63869 -0.00296292 0)
(1.63977 -0.00236944 0)
(1.6406 -0.00176735 0)
(1.64119 -0.00115722 0)
(1.64154 -0.000539658 0)
(1.64164 8.46727e-05 0)
(1.64148 0.000715082 0)
(1.64107 0.00135084 0)
(1.64041 0.00199121 0)
(1.63949 0.00263538 0)
(1.63831 0.00328258 0)
(1.63686 0.00393196 0)
(1.63516 0.00458271 0)
(1.6332 0.00523396 0)
(1.63097 0.00588486 0)
(1.62848 0.00653454 0)
(1.62574 0.00718214 0)
(1.62273 0.00782678 0)
(1.61947 0.00846758 0)
(1.61595 0.00910368 0)
(1.61217 0.00973421 0)
(1.60814 0.0103583 0)
(1.60387 0.0109751 0)
(1.59934 0.0115837 0)
(1.59458 0.0121832 0)
(1.58958 0.012773 0)
(1.58434 0.013352 0)
(1.57887 0.0139195 0)
(1.57317 0.0144746 0)
(1.56726 0.0150166 0)
(1.56113 0.0155446 0)
(1.55479 0.0160579 0)
(1.54825 0.0165556 0)
(1.54151 0.0170371 0)
(1.53458 0.0175016 0)
(1.52747 0.0179484 0)
(1.52018 0.0183768 0)
(1.51273 0.0187861 0)
(1.50511 0.0191757 0)
(1.49735 0.019545 0)
(1.48943 0.0198934 0)
(1.48138 0.0202204 0)
(1.47321 0.0205255 0)
(1.46492 0.0208083 0)
(1.45651 0.0210683 0)
(1.44801 0.0213052 0)
(1.43942 0.0215186 0)
(1.43075 0.0217085 0)
(1.422 0.0218745 0)
(1.4132 0.0220165 0)
(1.40434 0.0221346 0)
(1.39544 0.0222286 0)
(1.3865 0.0222987 0)
(1.37755 0.022345 0)
(1.36858 0.0223676 0)
(1.3596 0.0223669 0)
(1.35063 0.0223432 0)
(1.34168 0.0222968 0)
(1.33275 0.0222282 0)
(1.32385 0.0221379 0)
(1.31499 0.0220265 0)
(1.30618 0.0218946 0)
(1.29743 0.0217428 0)
(1.28874 0.0215719 0)
(1.28013 0.0213825 0)
(1.2716 0.0211756 0)
(1.26315 0.0209519 0)
(1.2548 0.0207122 0)
(1.24655 0.0204575 0)
(1.2384 0.0201886 0)
(1.23036 0.0199064 0)
(1.22244 0.0196119 0)
(1.21465 0.0193059 0)
(1.20697 0.0189895 0)
(1.19943 0.0186635 0)
(1.19202 0.0183289 0)
(1.18474 0.0179865 0)
(1.17761 0.0176373 0)
(1.17062 0.0172821 0)
(1.16377 0.0169218 0)
(1.15707 0.0165572 0)
(1.15051 0.0161891 0)
(1.1441 0.0158184 0)
(1.13784 0.0154457 0)
(1.13174 0.0150718 0)
(1.12578 0.0146975 0)
(1.11997 0.0143233 0)
(1.11432 0.0139499 0)
(1.10881 0.0135779 0)
(1.10345 0.0132079 0)
(1.09824 0.0128404 0)
(1.09318 0.012476 0)
(1.08826 0.012115 0)
(1.08349 0.011758 0)
(1.07886 0.0114054 0)
(1.07437 0.0110574 0)
(1.07002 0.0107146 0)
(1.0658 0.0103771 0)
(1.06172 0.0100454 0)
(1.05777 0.00971957 0)
(1.05395 0.00939993 0)
(1.05026 0.00908668 0)
(1.04669 0.00877999 0)
(1.04324 0.00848 0)
(1.03991 0.00818684 0)
(1.0367 0.0079006 0)
(1.0336 0.00762136 0)
(1.03061 0.00734915 0)
(1.02773 0.00708399 0)
(1.02495 0.00682587 0)
(1.02227 0.00657474 0)
(1.0197 0.00633053 0)
(1.01722 0.00609311 0)
(1.01483 0.00586231 0)
(1.01254 0.00563789 0)
(1.01033 0.00541956 0)
(1.00821 0.00520693 0)
(1.00617 0.00499954 0)
(1.00422 0.00479682 0)
(1.00234 0.00459812 0)
(1.00055 0.0044027 0)
(0.99883 0.00420973 0)
(0.997189 0.00401837 0)
(0.995623 0.00382773 0)
(0.994134 0.00363699 0)
(0.99272 0.00344537 0)
(0.991384 0.00325226 0)
(0.990125 0.00305724 0)
(0.988944 0.0028601 0)
(0.987842 0.00266095 0)
(0.98682 0.00246016 0)
(0.985879 0.00225847 0)
(0.985018 0.00205689 0)
(0.984237 0.00185668 0)
(0.983536 0.00165962 0)
(0.982911 0.00146664 0)
(0.982369 0.00128237 0)
(0.981876 0.00109931 0)
(0.981517 0.000950556 0)
(0.981024 0.000736035 0)
(1.00001 -0.000283659 0)
(1.00017 -0.000851247 0)
(1.00048 -0.00141961 0)
(1.00097 -0.0019893 0)
(1.00162 -0.00256088 0)
(1.00243 -0.0031349 0)
(1.0034 -0.00371187 0)
(1.00454 -0.00429227 0)
(1.00585 -0.00487657 0)
(1.00732 -0.0054652 0)
(1.00896 -0.00605856 0)
(1.01077 -0.00665701 0)
(1.01276 -0.00726086 0)
(1.01491 -0.00787038 0)
(1.01724 -0.00848577 0)
(1.01975 -0.00910718 0)
(1.02244 -0.00973471 0)
(1.0253 -0.0103684 0)
(1.02835 -0.0110081 0)
(1.03158 -0.0116537 0)
(1.035 -0.0123051 0)
(1.03861 -0.0129619 0)
(1.0424 -0.0136236 0)
(1.04638 -0.0142899 0)
(1.05056 -0.0149601 0)
(1.05493 -0.0156335 0)
(1.05949 -0.0163094 0)
(1.06425 -0.0169867 0)
(1.06921 -0.0176646 0)
(1.07436 -0.0183418 0)
(1.0797 -0.0190173 0)
(1.08524 -0.0196896 0)
(1.09097 -0.0203574 0)
(1.09689 -0.0210192 0)
(1.10301 -0.0216734 0)
(1.10931 -0.0223184 0)
(1.11579 -0.0229525 0)
(1.12246 -0.0235738 0)
(1.12931 -0.0241808 0)
(1.13633 -0.0247714 0)
(1.14352 -0.0253439 0)
(1.15087 -0.0258966 0)
(1.15838 -0.0264276 0)
(1.16604 -0.0269352 0)
(1.17384 -0.0274177 0)
(1.18178 -0.0278736 0)
(1.18984 -0.0283014 0)
(1.19803 -0.0286997 0)
(1.20633 -0.0290672 0)
(1.21473 -0.0294029 0)
(1.22322 -0.0297058 0)
(1.23179 -0.0299752 0)
(1.24044 -0.0302105 0)
(1.24915 -0.0304112 0)
(1.25792 -0.0305771 0)
(1.26672 -0.0307082 0)
(1.27556 -0.0308046 0)
(1.28442 -0.0308666 0)
(1.29329 -0.0308947 0)
(1.30216 -0.0308896 0)
(1.31103 -0.0308521 0)
(1.31988 -0.0307831 0)
(1.32871 -0.0306837 0)
(1.3375 -0.0305552 0)
(1.34625 -0.0303986 0)
(1.35495 -0.0302156 0)
(1.36359 -0.0300074 0)
(1.37216 -0.0297755 0)
(1.38067 -0.0295215 0)
(1.38909 -0.0292468 0)
(1.39744 -0.0289529 0)
(1.40569 -0.0286414 0)
(1.41385 -0.0283136 0)
(1.42192 -0.0279709 0)
(1.42988 -0.0276147 0)
(1.43774 -0.0272461 0)
(1.44549 -0.0268664 0)
(1.45313 -0.0264765 0)
(1.46065 -0.0260774 0)
(1.46806 -0.0256699 0)
(1.47535 -0.0252548 0)
(1.48252 -0.0248326 0)
(1.48956 -0.0244038 0)
(1.49649 -0.0239687 0)
(1.50328 -0.0235276 0)
(1.50995 -0.0230807 0)
(1.5165 -0.0226278 0)
(1.52291 -0.0221689 0)
(1.52919 -0.0217037 0)
(1.53533 -0.021232 0)
(1.54134 -0.0207535 0)
(1.54722 -0.0202675 0)
(1.55295 -0.0197737 0)
(1.55854 -0.0192714 0)
(1.56399 -0.0187601 0)
(1.56929 -0.018239 0)
(1.57445 -0.0177076 0)
(1.57944 -0.0171651 0)
(1.58429 -0.016611 0)
(1.58897 -0.0160445 0)
(1.59349 -0.0154651 0)
(1.59785 -0.0148721 0)
(1.60203 -0.0142651 0)
(1.60604 -0.0136436 0)
(1.60987 -0.0130071 0)
(1.61351 -0.0123553 0)
(1.61697 -0.011688 0)
(1.62023 -0.0110049 0)
(1.6233 -0.010306 0)
(1.62616 -0.00959125 0)
(1.62882 -0.00886068 0)
(1.63126 -0.00811448 0)
(1.63349 -0.0073529 0)
(1.6355 -0.00657627 0)
(1.63729 -0.00578503 0)
(1.63884 -0.00497967 0)
(1.64017 -0.00416078 0)
(1.64125 -0.00332903 0)
(1.6421 -0.00248515 0)
(1.6427 -0.00162995 0)
(1.64305 -0.000764294 0)
(1.64316 0.000110897 0)
(1.64301 0.000994645 0)
(1.64261 0.00188593 0)
(1.64195 0.00278369 0)
(1.64103 0.00368682 0)
(1.63985 0.00459421 0)
(1.6384 0.00550468 0)
(1.6367 0.00641708 0)
(1.63474 0.0073302 0)
(1.63251 0.00824284 0)
(1.63002 0.00915378 0)
(1.62726 0.0100618 0)
(1.62425 0.0109657 0)
(1.62098 0.0118642 0)
(1.61745 0.0127561 0)
(1.61366 0.0136402 0)
(1.60962 0.0145153 0)
(1.60534 0.0153801 0)
(1.6008 0.0162335 0)
(1.59602 0.0170743 0)
(1.591 0.0179012 0)
(1.58575 0.0187132 0)
(1.58026 0.0195089 0)
(1.57454 0.0202874 0)
(1.56861 0.0210474 0)
(1.56246 0.0217879 0)
(1.5561 0.0225077 0)
(1.54953 0.0232057 0)
(1.54277 0.023881 0)
(1.53582 0.0245324 0)
(1.52868 0.025159 0)
(1.52137 0.0257598 0)
(1.51388 0.0263338 0)
(1.50624 0.0268802 0)
(1.49844 0.0273981 0)
(1.4905 0.0278867 0)
(1.48242 0.0283453 0)
(1.47421 0.0287732 0)
(1.46588 0.0291696 0)
(1.45745 0.0295342 0)
(1.44891 0.0298663 0)
(1.44029 0.0301655 0)
(1.43158 0.0304316 0)
(1.4228 0.0306642 0)
(1.41396 0.0308632 0)
(1.40507 0.0310285 0)
(1.39613 0.0311601 0)
(1.38716 0.0312581 0)
(1.37817 0.0313226 0)
(1.36917 0.0313539 0)
(1.36016 0.0313525 0)
(1.35116 0.0313187 0)
(1.34217 0.0312532 0)
(1.33321 0.0311564 0)
(1.32428 0.0310292 0)
(1.31539 0.0308724 0)
(1.30655 0.0306867 0)
(1.29777 0.0304732 0)
(1.28906 0.0302328 0)
(1.28042 0.0299665 0)
(1.27186 0.0296756 0)
(1.26339 0.0293611 0)
(1.25501 0.0290243 0)
(1.24673 0.0286664 0)
(1.23857 0.0282886 0)
(1.23051 0.0278922 0)
(1.22257 0.0274785 0)
(1.21475 0.0270488 0)
(1.20706 0.0266044 0)
(1.19951 0.0261467 0)
(1.19208 0.0256768 0)
(1.18479 0.0251962 0)
(1.17765 0.0247059 0)
(1.17064 0.0242073 0)
(1.16378 0.0237016 0)
(1.15707 0.02319 0)
(1.15051 0.0226735 0)
(1.14409 0.0221533 0)
(1.13783 0.0216305 0)
(1.13172 0.021106 0)
(1.12576 0.0205809 0)
(1.11995 0.020056 0)
(1.11429 0.0195324 0)
(1.10878 0.0190108 0)
(1.10342 0.0184919 0)
(1.09821 0.0179767 0)
(1.09315 0.0174658 0)
(1.08823 0.0169597 0)
(1.08346 0.0164593 0)
(1.07883 0.015965 0)
(1.07434 0.0154774 0)
(1.06999 0.0149969 0)
(1.06578 0.014524 0)
(1.0617 0.0140592 0)
(1.05776 0.0136027 0)
(1.05394 0.0131549 0)
(1.05025 0.012716 0)
(1.04669 0.0122864 0)
(1.04325 0.0118662 0)
(1.03992 0.0114556 0)
(1.03671 0.0110547 0)
(1.03362 0.0106636 0)
(1.03064 0.0102824 0)
(1.02776 0.00991111 0)
(1.02499 0.00954968 0)
(1.02232 0.00919807 0)
(1.01975 0.00885615 0)
(1.01727 0.00852375 0)
(1.01489 0.00820063 0)
(1.0126 0.00788647 0)
(1.0104 0.00758085 0)
(1.00829 0.00728322 0)
(1.00626 0.00699294 0)
(1.00431 0.00670922 0)
(1.00244 0.00643115 0)
(1.00065 0.00615767 0)
(0.998935 0.00588767 0)
(0.997298 0.00561992 0)
(0.995737 0.00535323 0)
(0.994253 0.0050864 0)
(0.992844 0.00481838 0)
(0.991512 0.0045483 0)
(0.990257 0.00427555 0)
(0.98908 0.00399988 0)
(0.987982 0.0037214 0)
(0.986963 0.00344066 0)
(0.986024 0.00315864 0)
(0.985166 0.00287681 0)
(0.984387 0.0025969 0)
(0.983688 0.00232138 0)
(0.983064 0.00205157 0)
(0.982524 0.00179396 0)
(0.982032 0.00153799 0)
(0.981674 0.0013301 0)
(0.981181 0.00102999 0)
(1.00001 -0.000364299 0)
(1.00017 -0.00109324 0)
(1.00048 -0.0018232 0)
(1.00097 -0.00255489 0)
(1.00161 -0.00328905 0)
(1.00242 -0.00402636 0)
(1.00339 -0.0047675 0)
(1.00453 -0.0055131 0)
(1.00583 -0.00626377 0)
(1.0073 -0.00702007 0)
(1.00894 -0.00778252 0)
(1.01074 -0.00855159 0)
(1.01272 -0.00932769 0)
(1.01487 -0.0101112 0)
(1.01719 -0.0109023 0)
(1.0197 -0.0117013 0)
(1.02238 -0.0125083 0)
(1.02524 -0.0133232 0)
(1.02828 -0.0141462 0)
(1.03151 -0.0149768 0)
(1.03492 -0.015815 0)
(1.03852 -0.0166603 0)
(1.04231 -0.0175122 0)
(1.0463 -0.01837 0)
(1.05047 -0.0192331 0)
(1.05484 -0.0201005 0)
(1.05941 -0.0209711 0)
(1.06417 -0.0218439 0)
(1.06912 -0.0227175 0)
(1.07428 -0.0235906 0)
(1.07963 -0.0244614 0)
(1.08517 -0.0253284 0)
(1.09091 -0.0261898 0)
(1.09685 -0.0270435 0)
(1.10297 -0.0278876 0)
(1.10929 -0.0287199 0)
(1.1158 -0.0295383 0)
(1.12248 -0.0303404 0)
(1.12935 -0.031124 0)
(1.1364 -0.0318866 0)
(1.14361 -0.0326259 0)
(1.15099 -0.0333396 0)
(1.15853 -0.0340254 0)
(1.16622 -0.034681 0)
(1.17406 -0.0353042 0)
(1.18203 -0.035893 0)
(1.19014 -0.0364454 0)
(1.19836 -0.0369597 0)
(1.2067 -0.0374342 0)
(1.21514 -0.0378675 0)
(1.22368 -0.0382584 0)
(1.2323 -0.0386058 0)
(1.24099 -0.038909 0)
(1.24975 -0.0391675 0)
(1.25855 -0.039381 0)
(1.2674 -0.0395493 0)
(1.27629 -0.0396727 0)
(1.28519 -0.0397516 0)
(1.29411 -0.0397867 0)
(1.30302 -0.0397788 0)
(1.31193 -0.0397289 0)
(1.32083 -0.0396384 0)
(1.32969 -0.0395085 0)
(1.33852 -0.039341 0)
(1.3473 -0.0391374 0)
(1.35604 -0.0388995 0)
(1.36471 -0.0386293 0)
(1.37332 -0.0383286 0)
(1.38185 -0.0379993 0)
(1.39031 -0.0376435 0)
(1.39868 -0.0372631 0)
(1.40696 -0.0368601 0)
(1.41514 -0.0364362 0)
(1.42323 -0.0359933 0)
(1.43121 -0.035533 0)
(1.43909 -0.0350571 0)
(1.44685 -0.0345669 0)
(1.45451 -0.0340639 0)
(1.46204 -0.0335493 0)
(1.46946 -0.033024 0)
(1.47677 -0.0324892 0)
(1.48395 -0.0319454 0)
(1.49101 -0.0313934 0)
(1.49794 -0.0308335 0)
(1.50475 -0.030266 0)
(1.51143 -0.0296912 0)
(1.51798 -0.029109 0)
(1.5244 -0.0285191 0)
(1.53069 -0.0279214 0)
(1.53685 -0.0273155 0)
(1.54287 -0.0267008 0)
(1.54876 -0.0260767 0)
(1.5545 -0.0254426 0)
(1.56011 -0.0247977 0)
(1.56557 -0.0241412 0)
(1.57089 -0.0234722 0)
(1.57605 -0.0227899 0)
(1.58107 -0.0220934 0)
(1.58593 -0.0213818 0)
(1.59063 -0.0206543 0)
(1.59517 -0.0199101 0)
(1.59954 -0.0191485 0)
(1.60374 -0.0183687 0)
(1.60777 -0.01757 0)
(1.61162 -0.0167521 0)
(1.61528 -0.0159143 0)
(1.61876 -0.0150565 0)
(1.62204 -0.0141782 0)
(1.62512 -0.0132794 0)
(1.62801 -0.01236 0)
(1.63068 -0.0114202 0)
(1.63315 -0.0104602 0)
(1.6354 -0.00948018 0)
(1.63742 -0.0084807 0)
(1.63922 -0.00746227 0)
(1.6408 -0.00642555 0)
(1.64213 -0.0053713 0)
(1.64323 -0.00430039 0)
(1.64409 -0.00321377 0)
(1.64471 -0.00211249 0)
(1.64507 -0.000997651 0)
(1.64518 0.000129533 0)
(1.64504 0.0012678 0)
(1.64465 0.00241583 0)
(1.64399 0.00357225 0)
(1.64308 0.00473563 0)
(1.6419 0.00590452 0)
(1.64046 0.00707743 0)
(1.63875 0.00825283 0)
(1.63679 0.00942919 0)
(1.63455 0.0106049 0)
(1.63206 0.0117785 0)
(1.6293 0.0129484 0)
(1.62628 0.0141129 0)
(1.62299 0.0152705 0)
(1.61945 0.0164196 0)
(1.61565 0.0175587 0)
(1.6116 0.0186861 0)
(1.60729 0.0198004 0)
(1.60274 0.0208999 0)
(1.59794 0.0219832 0)
(1.5929 0.0230487 0)
(1.58762 0.0240948 0)
(1.58211 0.0251202 0)
(1.57637 0.0261233 0)
(1.57041 0.0271026 0)
(1.56423 0.0280567 0)
(1.55784 0.0289843 0)
(1.55124 0.0298838 0)
(1.54445 0.030754 0)
(1.53746 0.0315934 0)
(1.53029 0.0324009 0)
(1.52294 0.0331751 0)
(1.51542 0.0339149 0)
(1.50773 0.034619 0)
(1.4999 0.0352864 0)
(1.49191 0.0359161 0)
(1.48379 0.036507 0)
(1.47554 0.0370583 0)
(1.46717 0.0375691 0)
(1.45869 0.0380388 0)
(1.45011 0.0384666 0)
(1.44144 0.038852 0)
(1.43269 0.0391946 0)
(1.42387 0.0394941 0)
(1.41498 0.0397502 0)
(1.40604 0.0399627 0)
(1.39706 0.0401318 0)
(1.38804 0.0402574 0)
(1.37901 0.0403399 0)
(1.36996 0.0403796 0)
(1.36091 0.040377 0)
(1.35186 0.0403326 0)
(1.34283 0.0402472 0)
(1.33382 0.0401216 0)
(1.32485 0.0399567 0)
(1.31592 0.0397535 0)
(1.30704 0.0395131 0)
(1.29822 0.0392368 0)
(1.28947 0.0389258 0)
(1.2808 0.0385816 0)
(1.2722 0.0382054 0)
(1.2637 0.037799 0)
(1.25529 0.0373637 0)
(1.24698 0.0369012 0)
(1.23879 0.0364132 0)
(1.2307 0.0359012 0)
(1.22274 0.0353669 0)
(1.2149 0.0348121 0)
(1.20718 0.0342384 0)
(1.1996 0.0336475 0)
(1.19216 0.0330411 0)
(1.18485 0.0324208 0)
(1.17769 0.0317882 0)
(1.17067 0.0311449 0)
(1.1638 0.0304926 0)
(1.15708 0.0298326 0)
(1.1505 0.0291665 0)
(1.14408 0.0284957 0)
(1.13781 0.0278216 0)
(1.13169 0.0271455 0)
(1.12572 0.0264686 0)
(1.11991 0.0257922 0)
(1.11424 0.0251173 0)
(1.10873 0.0244452 0)
(1.10337 0.0237767 0)
(1.09816 0.023113 0)
(1.0931 0.0224548 0)
(1.08819 0.0218031 0)
(1.08342 0.0211586 0)
(1.07879 0.0205221 0)
(1.07431 0.0198942 0)
(1.06996 0.0192756 0)
(1.06575 0.0186669 0)
(1.06168 0.0180685 0)
(1.05774 0.017481 0)
(1.05393 0.0169047 0)
(1.05025 0.01634 0)
(1.04669 0.0157872 0)
(1.04325 0.0152466 0)
(1.03994 0.0147183 0)
(1.03673 0.0142026 0)
(1.03365 0.0136996 0)
(1.03067 0.0132093 0)
(1.0278 0.0127317 0)
(1.02504 0.0122669 0)
(1.02238 0.0118148 0)
(1.01981 0.0113751 0)
(1.01735 0.0109477 0)
(1.01497 0.0105323 0)
(1.01269 0.0101284 0)
(1.0105 0.00973557 0)
(1.00839 0.009353 0)
(1.00637 0.00897991 0)
(1.00443 0.00861527 0)
(1.00256 0.00825792 0)
(1.00078 0.00790653 0)
(0.999074 0.00755963 0)
(0.997444 0.00721567 0)
(0.99589 0.0068731 0)
(0.994411 0.0065304 0)
(0.993009 0.00618622 0)
(0.991682 0.00583944 0)
(0.990433 0.00548927 0)
(0.989261 0.00513538 0)
(0.988167 0.0047779 0)
(0.987153 0.00441756 0)
(0.986218 0.0040556 0)