/*--------------------------------*- C++ -*----------------------------------*\
| =========                 |                                                 |
| \\      /  F ield         | OpenFOAM: The Open Source CFD Toolbox           |
|  \\    /   O peration     | Version:  2406                                  |
|   \\  /    A nd           | Website:  www.openfoam.com                      |
|    \\/     M anipulation  |                                                 |
\*---------------------------------------------------------------------------*/
FoamFile
{
    version     2.0;
    format      ascii;
    arch        "LSB;label=32;scalar=64";
    class       volScalarField;
    location    "5000";
    object      CondNu;
}
// * * * * * * * * * * * * * * * * * * * * * * * * * * * * * * * * * * * * * //

dimensions      [1 0 -3 0 0 0 0];

internalField   uniform 0;

boundaryField
{
    bottomwall
    {
        type            calculated;
        value           nonuniform List<scalar> 
60
(
15.0998
11.7364
9.8508
8.7019
7.95633
7.44696
7.0829
6.81055
6.59661
6.42051
6.26933
6.13389
6.00689
5.88289
5.75878
5.63357
5.50746
5.38102
5.25459
5.12822
5.0016
4.87394
4.74394
4.61011
4.47172
4.33026
4.19034
4.05857
3.93934
3.82843
3.70781
3.54634
3.30987
2.97979
2.57335
2.15542
1.83267
1.72766
1.94074
2.51594
3.42848
4.60256
5.9502
7.40556
8.93002
10.4801
11.9774
13.3064
14.3361
14.9519
15.0826
14.7203
13.9308
12.8546
11.6943
10.6916
10.1041
10.2217
11.4113
14.3052
)
;
    }
    topwall
    {
        type            calculated;
        value           nonuniform List<scalar> 
60
(
0.464462
0.295937
0.163359
0.0414425
-0.0565672
-0.130841
-0.179593
-0.1987
-0.182362
-0.129816
-0.0499711
0.0409186
0.126585
0.196743
0.247878
0.280186
0.294413
0.2908
0.269708
0.232429
0.181295
0.119189
0.049038
-0.0261724
-0.10275
-0.175303
-0.236106
-0.275595
-0.284365
-0.256215
-0.190998
-0.0958501
0.0160499
0.128836
0.228035
0.303689
0.351418
0.371457
0.366578
0.340145
0.295183
0.234658
0.162487
0.0843854
0.00768401
-0.0600012
-0.112296
-0.144348
-0.151604
-0.128934
-0.0723648
0.0171038
0.131506
0.258793
0.388802
0.516714
0.643628
0.768076
0.905146
1.00389
)
;
    }
    coldwall
    {
        type            calculated;
        value           nonuniform List<scalar> 
48
(
-20.1884
-10.4983
-6.45004
-4.34384
-3.10362
-2.34321
-1.88593
-1.63119
-1.5128
-1.48444
-1.51347
-1.57753
-1.66189
-1.75732
-1.85825
-1.96151
-2.06531
-2.16867
-2.27107
-2.3722
-2.47187
-2.56998
-2.66644
-2.7612
-2.85424
-2.94551
-3.03499
-3.12262
-3.20835
-3.29209
-3.37372
-3.45308
-3.52998
-3.60418
-3.67538
-3.74326
-3.80743
-3.86749
-3.923
-3.97351
-4.01859
-4.05779
-3.94074
-3.887
-3.83312
-3.79223
-3.8052
-4.01061
)
;
    }
    radinlet
    {
        type            calculated;
        value           nonuniform List<scalar> 
12
(
-4.09071
-4.117
-4.13635
-4.14855
-4.15347
-4.15108
-4.14143
-4.12465
-4.10092
-4.07044
-4.03339
-3.99
)
;
    }
    hotwall
    {
        type            calculated;
        value           nonuniform List<scalar> 
60
(
-20.4657
-10.9852
-6.85777
-4.67978
-3.44569
-2.7639
-2.42879
-2.31016
-2.32068
-2.40255
-2.5188
-2.64659
-2.77203
-2.8866
-2.98498
-3.06374
-3.12076
-3.15493
-3.16599
-3.15451
-3.12182
-3.06997
-3.00161
-2.9199
-2.82839
-2.73089
-2.63136
-2.5338
-2.44212
-2.35999
-2.29074
-2.23719
-2.20159
-2.18553
-2.18989
-2.21487
-2.26003
-2.32439
-2.40651
-2.50462
-2.61668
-2.74046
-2.8736
-3.01356
-3.15772
-3.3033
-3.4474
-3.58696
-3.71885
-3.83996
-3.94732
-4.03838
-4.11128
-4.16553
-4.20293
-4.22945
-4.25946
-4.32669
-4.51945
-5.11156
)
;
    }
    frontAndback
    {
        type            empty;
    }
}


// ************************************************************************* //
