/*--------------------------------*- C++ -*----------------------------------*\
| =========                 |                                                 |
| \\      /  F ield         | OpenFOAM: The Open Source CFD Toolbox           |
|  \\    /   O peration     | Version:  2406                                  |
|   \\  /    A nd           | Website:  www.openfoam.com                      |
|    \\/     M anipulation  |                                                 |
\*---------------------------------------------------------------------------*/
FoamFile
{
    version     2.0;
    format      ascii;
    arch        "LSB;label=32;scalar=64";
    class       volScalarField;
    location    "5000";
    object      G;
}
// * * * * * * * * * * * * * * * * * * * * * * * * * * * * * * * * * * * * * //

dimensions      [1 0 -3 0 0 0 0];

internalField   nonuniform List<scalar> 
3600
(
1780
1794.38
1802.38
1807.86
1811.63
1814.31
1816.3
1817.84
1819.1
1820.23
1821.33
1822.44
1823.52
1824.49
1825.33
1826.07
1826.76
1827.47
1828.21
1829.01
1829.84
1830.63
1831.29
1831.71
1831.86
1831.84
1831.97
1832.67
1834.15
1836.02
1836.92
1834.8
1827.8
1815.73
1801.68
1792.78
1799.57
1833.71
1904.64
2016.29
2165.13
2340.33
2525.97
2704.52
2860.25
2981.57
3061.56
3097.24
3088.2
3035.67
2942.46
2813.58
2657.05
2484.04
2308.02
2142.8
1999.93
1887.05
1805.58
1743.12
1781.1
1791.67
1798.29
1803.51
1807.34
1810.23
1812.5
1814.35
1815.94
1817.41
1818.84
1820.24
1821.56
1822.76
1823.81
1824.78
1825.72
1826.69
1827.72
1828.83
1829.98
1831.11
1832.11
1832.96
1833.73
1834.74
1836.35
1838.7
1841.21
1842.3
1839.75
1831.73
1818.56
1804.34
1797.55
1809.93
1853.6
1937.24
2062.72
2223.58
2406.1
2592.4
2764.49
2907.75
3012.58
3074.27
3091.54
3065
2996.35
2888.78
2748.01
2583.15
2406.66
2232.92
2075.97
1946.78
1851.12
1789.46
1754.54
1744.96
1782.96
1790.79
1796.05
1800.69
1804.34
1807.24
1809.6
1811.57
1813.29
1814.88
1816.43
1817.96
1819.43
1820.83
1822.19
1823.56
1825.02
1826.59
1828.3
1830.1
1831.95
1833.74
1835.39
1836.96
1838.66
1840.78
1843.42
1846.02
1847.1
1844.53
1836.56
1823.44
1809.02
1801.39
1811.82
1851.97
1930.22
2048.46
2200.66
2373.9
2551.41
2716.45
2855.47
2959.6
3024.3
3047.93
3030.3
2972.14
2875.66
2745.76
2590.96
2423.26
2256.7
2104.95
1978.75
1884.07
1821.34
1786.52
1771.09
1772.73
1784.69
1790.96
1795.23
1799.31
1802.77
1805.76
1808.38
1810.73
1812.9
1814.98
1816.99
1818.92
1820.74
1822.43
1824.07
1825.71
1827.44
1829.26
1831.17
1833.1
1834.95
1836.6
1838.08
1839.57
1841.34
1843.51
1845.58
1846.15
1843.1
1834.61
1820.84
1805.52
1796.69
1805.7
1844.37
1921.29
2038.4
2189.61
2361.8
2538.03
2701.5
2838.86
2941.62
3005.67
3029.72
3013.66
2958.03
2864.64
2737.91
2585.99
2420.72
2256.21
2106.29
1981.82
1888.8
1827.7
1794.25
1781.28
1780.02
1787.71
1787.22
1792.83
1796.56
1800.3
1803.67
1806.78
1809.66
1812.38
1815
1817.55
1820.06
1822.43
1824.58
1826.47
1828.11
1829.57
1830.89
1832.11
1833.2
1834.1
1834.74
1835.15
1835.53
1836.23
1837.45
1838.8
1838.96
1835.83
1827.46
1813.82
1798.45
1789.33
1797.88
1836.13
1912.8
2029.88
2181.04
2352.83
2527.98
2689.6
2824.55
2924.85
2987
3010.22
2994.66
2940.8
2850.14
2726.7
2578.29
2416.51
2255.43
2108.89
1987.8
1897.98
1839.66
1808.27
1796.44
1795.92
1800.03
1803.96
1791.59
1796.86
1800.23
1803.68
1806.85
1809.83
1812.6
1815.19
1817.64
1819.98
1822.23
1824.33
1826.19
1827.74
1828.93
1829.78
1830.31
1830.52
1830.4
1829.95
1829.25
1828.58
1828.36
1828.91
1829.96
1830.3
1827.77
1820.3
1807.53
1792.74
1783.76
1792.07
1829.95
1906.42
2023.6
2175.03
2346.94
2521.65
2682.07
2815.14
2913.23
2973.4
2995.31
2979.37
2926.03
2836.6
2714.84
2568.34
2408.63
2249.78
2105.74
1987.46
1900.79
1845.77
1817.51
1808.24
1809.67
1814.5
1818.97
1817.35
1796.78
1801.31
1804.1
1806.91
1809.42
1811.77
1813.86
1815.71
1817.36
1818.85
1820.19
1821.36
1822.36
1823.16
1823.73
1824.05
1824.07
1823.76
1823.12
1822.24
1821.43
1821.16
1821.83
1823.32
1824.46
1823.1
1816.95
1805.37
1791.29
1782.37
1790.16
1827.25
1903
2019.79
2171.14
2342.96
2517.19
2676.44
2807.65
2903.49
2961.51
2981.83
2965.11
2911.81
2823.03
2702.3
2557.02
2398.69
2241.39
2099.16
1982.98
1898.71
1846.34
1820.89
1814.35
1818.09
1825.03
1830.08
1832.31
1826.41
1799.69
1802.89
1804.85
1806.68
1808.21
1809.63
1810.8
1811.75
1812.55
1813.26
1813.86
1814.33
1814.68
1814.98
1815.25
1815.48
1815.63
1815.63
1815.5
1815.48
1816.03
1817.59
1820.07
1822.4
1822.39
1817.61
1807.12
1793.57
1784.44
1791.38
1827.27
1901.93
2017.97
2168.95
2340.52
2514.22
2672.36
2801.81
2895.53
2951.47
2970.17
2952.55
2899.02
2810.52
2690.33
2545.72
2388.2
2231.97
2091.11
1976.62
1894.23
1843.84
1820.36
1815.7
1821.15
1829.43
1835.92
1838.19
1837.33
1829.34
1797.93
1799.79
1801.1
1802.14
1802.92
1803.71
1804.37
1804.85
1805.31
1805.84
1806.43
1806.96
1807.39
1807.78
1808.22
1808.76
1809.39
1810.12
1811.11
1812.75
1815.42
1819.07
1822.63
1823.91
1820.31
1810.65
1797.31
1787.65
1793.47
1828.01
1901.5
2016.85
2167.61
2339.12
2512.51
2669.76
2797.72
2889.56
2943.66
2960.94
2942.49
2888.68
2800.21
2680.14
2535.63
2378.26
2222.42
2082.42
1969.29
1888.66
1840.17
1818.48
1815.35
1822
1831.09
1837.98
1840.84
1839.4
1835.8
1827.36
1792.31
1793.59
1794.82
1795.7
1796.38
1797.17
1797.97
1798.64
1799.3
1800.13
1801.16
1802.25
1803.27
1804.19
1805.08
1806.03
1807.14
1808.63
1810.88
1814.27
1818.75
1823.27
1825.6
1822.97
1813.92
1800.57
1790.18
1794.71
1827.83
1900.22
2015.12
2166.03
2337.92
2511.43
2668.18
2794.97
2885.24
2937.8
2953.95
2934.93
2881.01
2792.61
2672.51
2527.78
2370.06
2214
2074.19
1961.86
1882.62
1835.89
1816.02
1814.52
1822.41
1832.32
1839.56
1842.38
1841.04
1836.5
1831.16
1823.06
1786.12
1787.74
1789.36
1790.69
1791.75
1792.94
1794.23
1795.41
1796.49
1797.66
1799.05
1800.62
1802.24
1803.78
1805.22
1806.63
1808.27
1810.56
1813.99
1818.62
1823.51
1826.4
1824.4
1815.76
1802.29
1791.11
1794.32
1826.03
1897.46
2012.16
2163.59
2336.33
2510.43
2667.09
2793.01
2881.94
2933.17
2948.42
2929.07
2875.27
2787.1
2667.03
2521.98
2363.71
2207.13
2067.12
1955.14
1876.86
1831.54
1813.3
1813.34
1822.54
1833.43
1841.3
1844.39
1843.12
1838.78
1832.56
1826.63
1819.05
1782.32
1784.62
1786.7
1788.63
1790.13
1791.64
1793.29
1794.88
1796.31
1797.67
1799.18
1800.94
1802.93
1805.01
1807.05
1809.11
1811.54
1814.84
1819.2
1823.87
1826.73
1824.84
1816.21
1802.35
1790.22
1792.05
1822.38
1892.96
2007.71
2160.03
2334.07
2509.23
2666.21
2791.58
2879.37
2929.39
2943.83
2924.27
2870.7
2782.85
2662.85
2517.46
2358.54
2201.29
2060.93
1949.14
1871.61
1827.5
1810.65
1812.03
1822.37
1834.13
1842.65
1846.22
1845.35
1841.5
1835.97
1829.53
1823.98
1816.9
1781.57
1784.27
1786.5
1788.79
1790.51
1792.05
1793.72
1795.51
1797.21
1798.79
1800.41
1802.29
1804.5
1806.98
1809.64
1812.57
1816.1
1820.41
1824.86
1827.47
1825.35
1816.33
1801.7
1788.25
1788.39
1817.11
1886.75
2001.61
2155.07
2330.77
2507.44
2665.18
2790.38
2877.33
2926.33
2940.08
2920.36
2867.05
2779.52
2659.55
2513.72
2354.01
2195.93
2055.06
1943.34
1866.5
1823.53
1808.01
1810.65
1822.01
1834.49
1843.48
1847.36
1846.77
1843.41
1838.75
1833.52
1827.87
1823.33
1816.8
1782.67
1785.22
1787.3
1789.65
1791.39
1792.79
1794.34
1796.22
1798.29
1800.35
1802.38
1804.52
1806.93
1809.67
1812.85
1816.67
1821.2
1825.78
1828.46
1826.29
1816.95
1801.44
1786.43
1784.51
1811.22
1879.57
1994.31
2148.84
2326.3
2504.68
2663.48
2788.86
2875.3
2923.62
2936.94
2917.26
2864.3
2777.09
2657.07
2510.68
2350.02
2190.94
2049.39
1937.57
1861.28
1819.34
1805.09
1808.97
1821.34
1834.56
1844
1848.06
1847.48
1844.17
1839.96
1835.75
1831.54
1827.08
1823.71
1817.95
1784.04
1786.17
1787.96
1790.25
1792.05
1793.44
1794.96
1797.06
1799.67
1802.48
1805.21
1807.77
1810.33
1813.17
1816.67
1821.03
1825.67
1828.63
1826.83
1817.63
1801.63
1785.3
1781.35
1805.89
1872.65
1986.97
2142.3
2321.32
2501.29
2661.08
2786.64
2872.7
2920.56
2933.78
2914.48
2862.14
2775.42
2655.37
2508.34
2346.61
2186.39
2044.04
1931.99
1856.09
1815.03
1801.87
1806.85
1820.16
1834.13
1844.12
1848.53
1848.02
1844.56
1840.22
1836.32
1832.99
1829.8
1826.39
1824.03
1819.22
1784.91
1786.67
1788.28
1790.64
1792.71
1794.37
1796.14
1798.6
1801.82
1805.4
1808.81
1811.75
1814.36
1817.16
1820.68
1824.71
1827.56
1826.09
1817.33
1801.36
1784.24
1778.71
1801.34
1866.64
1980.54
2136.59
2317.03
2498.37
2658.84
2784.24
2869.62
2916.88
2930.05
2911.34
2859.95
2773.99
2654.1
2506.49
2343.64
2182.21
2038.99
1926.69
1851.14
1810.86
1798.64
1804.49
1818.52
1833.07
1843.6
1848.51
1848.39
1845.04
1840.54
1836.44
1833.29
1830.69
1828.1
1825.34
1823.65
1819.8
1785.39
1787.1
1788.76
1791.4
1793.98
1796.18
1798.4
1801.25
1804.89
1808.89
1812.61
1815.66
1818.24
1820.94
1823.96
1826.07
1824.4
1815.83
1799.96
1782.37
1775.67
1796.83
1861.08
1974.92
2132.01
2314.07
2496.82
2657.83
2782.73
2867
2913.21
2926
2907.74
2857.34
2772.31
2652.77
2504.7
2340.79
2178.14
2034.03
1921.48
1846.35
1806.89
1795.6
1802.21
1816.75
1831.63
1842.46
1847.78
1848.17
1845.28
1840.99
1836.83
1833.57
1831.11
1828.84
1826.39
1823.88
1822.47
1819.4
1786.02
1788.1
1790.02
1793.1
1796.3
1799.12
1801.77
1804.81
1808.41
1812.23
1815.71
1818.61
1821.18
1823.61
1825.02
1822.86
1814.05
1797.93
1779.66
1771.78
1791.62
1855.09
1969.28
2127.88
2312.06
2496.6
2658.33
2782.7
2865.62
2910.45
2922.48
2904.36
2854.7
2770.48
2651.25
2502.75
2337.79
2173.91
2028.9
1916.1
1841.41
1802.86
1792.59
1800.03
1815.05
1830.11
1841.02
1846.51
1847.26
1844.88
1841.08
1837.22
1834.05
1831.67
1829.62
1827.34
1824.73
1822.2
1820.81
1818.2
1787.41
1790.16
1792.43
1795.95
1799.64
1802.89
1805.72
1808.53
1811.51
1814.52
1817.36
1820.04
1822.55
1823.96
1821.8
1812.93
1796.4
1777.13
1767.64
1785.8
1848.33
1962.95
2123.39
2310.12
2496.91
2659.73
2783.78
2865.41
2908.81
2919.99
2901.85
2852.77
2769.16
2650.04
2500.93
2334.79
2169.6
2023.6
1910.47
1836.16
1798.5
1789.29
1797.64
1813.23
1828.53
1839.48
1845
1845.94
1843.92
1840.58
1837.15
1834.3
1832.15
1830.4
1828.5
1826.04
1823.21
1820.57
1819.04
1816.55
1789.91
1793.41
1795.91
1799.64
1803.45
1806.74
1809.31
1811.41
1813.29
1815.16
1817.3
1819.79
1821.66
1820.28
1812.16
1795.81
1775.7
1764.38
1780.37
1841.42
1956.1
2118.27
2307.71
2497.03
2661.21
2785.15
2865.64
2907.73
2918.19
2900.18
2851.78
2768.79
2649.69
2499.8
2332.3
2165.63
2018.52
1904.94
1830.86
1793.93
1785.62
1794.78
1810.93
1826.52
1837.59
1843.22
1844.35
1842.64
1839.67
1836.61
1834.07
1832.21
1830.79
1829.36
1827.46
1824.85
1821.89
1819.17
1817.47
1814.81
1793.49
1797.49
1799.91
1803.43
1806.89
1809.71
1811.57
1812.6
1813.23
1814.12
1815.79
1817.7
1817.27
1810.57
1795.31
1775.16
1762.43
1776.21
1835.41
1949.65
2113.13
2305.03
2496.78
2662.32
2786.18
2865.59
2906.47
2916.38
2898.73
2851.27
2769.13
2650.2
2499.56
2330.65
2162.42
2014.14
1900.05
1826.12
1789.74
1782.1
1791.77
1808.21
1823.91
1835.03
1840.79
1842.21
1840.92
1838.42
1835.75
1833.49
1831.83
1830.65
1829.61
1828.29
1826.35
1823.73
1820.81
1818.1
1816.26
1813.25
1797.67
1801.63
1803.55
1806.39
1809.05
1810.99
1811.83
1811.75
1811.47
1811.89
1813.07
1812.96
1807.57
1793.84
1774.41
1761.01
1773.09
1830.62
1944.36
2108.92
2302.97
2496.8
2663.34
2786.8
2864.92
2904.52
2913.97
2896.9
2850.65
2769.63
2651.07
2499.84
2329.61
2159.89
2010.5
1896
1822.31
1786.53
1779.46
1789.42
1805.8
1821.2
1832.01
1837.65
1839.24
1838.41
1836.52
1834.42
1832.56
1831.12
1830.08
1829.24
1828.33
1827.03
1825.13
1822.63
1819.9
1817.32
1815.43
1812.01
1801.62
1804.86
1805.92
1807.73
1809.28
1810.13
1809.95
1809.14
1808.67
1808.99
1808.63
1803.91
1791.36
1772.73
1759.06
1769.94
1826.28
1939.94
2105.9
2302.21
2497.98
2665.12
2787.63
2863.91
2901.87
2910.73
2894.32
2849.5
2769.83
2651.84
2500.15
2328.71
2157.61
2007.24
1892.5
1819.24
1784.26
1777.94
1788.26
1804.49
1819.34
1829.44
1834.48
1835.82
1835.15
1833.76
1832.3
1831.02
1829.96
1829.12
1828.41
1827.71
1826.81
1825.53
1823.73
1821.47
1819.07
1816.73
1814.92
1811.16
1804.39
1806.31
1806.35
1806.97
1807.37
1807.21
1806.4
1805.65
1805.59
1805.14
1800.83
1788.96
1770.61
1756.34
1765.94
1821.3
1935.31
2103.27
2302.45
2500.55
2668.31
2789.53
2863.4
2899.14
2907
2891.08
2847.69
2769.48
2652.18
2500.14
2327.57
2155.16
2003.93
1889.07
1816.43
1782.46
1777.12
1788.07
1804.38
1818.79
1828.12
1832.3
1832.94
1831.92
1830.58
1829.5
1828.75
1828.17
1827.66
1827.15
1826.6
1825.92
1825
1823.75
1822.11
1820.15
1818.16
1816.16
1814.55
1810.63
1805.26
1805.56
1804.65
1804.16
1803.58
1802.83
1802.18
1802.23
1802.2
1798.72
1787.63
1769.26
1753.73
1761.33
1815.23
1929.58
2099.96
2302.69
2503.8
2672.64
2792.69
2863.99
2897.15
2903.61
2887.82
2845.62
2768.71
2652.02
2499.59
2325.91
2152.28
2000.3
1885.46
1813.54
1780.67
1776.42
1788.15
1804.81
1819.13
1828.01
1831.51
1831.41
1829.73
1827.97
1826.78
1826.18
1825.91
1825.72
1825.46
1825.09
1824.56
1823.84
1822.88
1821.66
1820.17
1818.53
1816.99
1815.43
1814.14
1810.31
1803.95
1802.69
1801.09
1799.76
1798.62
1798.02
1798.38
1799.11
1796.99
1787.32
1769.3
1752.3
1757.14
1808.66
1922.72
2095.44
2302.1
2506.77
2677.19
2796.43
2865.34
2896.04
2901.11
2885.36
2844.13
2768.2
2651.76
2498.62
2323.63
2148.75
1996.13
1881.49
1810.45
1778.76
1775.61
1788.09
1805.13
1819.54
1828.31
1831.58
1831.1
1828.94
1826.65
1825.01
1824.13
1823.79
1823.69
1823.61
1823.42
1823.04
1822.43
1821.58
1820.53
1819.28
1817.89
1816.53
1815.44
1814.38
1813.51
1810.07
1800.73
1798.31
1796.35
1794.55
1793.51
1793.93
1795.45
1794.97
1787.29
1770.33
1752.29
1754.18
1802.58
1915.49
2090.03
2300.54
2508.99
2681.26
2799.87
2866.61
2895.11
2899.17
2883.84
2843.78
2768.76
2652.21
2497.87
2321.08
2144.61
1991.26
1876.93
1806.99
1776.68
1774.69
1787.87
1805.15
1819.56
1828.3
1831.62
1831.21
1829.03
1826.54
1824.51
1823.18
1822.44
1822.1
1821.96
1821.87
1821.64
1821.17
1820.38
1819.32
1818.08
1816.71
1815.32
1814.17
1813.47
1812.92
1812.53
1809.75
1796.29
1793.28
1791.26
1789.52
1789.38
1791.2
1792.31
1786.97
1771.65
1753.12
1752.28
1797.37
1908.68
2084.55
2298.59
2510.66
2684.69
2802.59
2867.11
2893.55
2896.97
2882.61
2844.29
2770.56
2653.95
2498.1
2319.02
2140.44
1985.97
1871.79
1803.01
1774.24
1773.57
1787.51
1804.97
1819.22
1827.79
1831.13
1830.97
1829.15
1826.9
1824.88
1823.28
1822.1
1821.3
1820.85
1820.65
1820.53
1820.25
1819.62
1818.6
1817.27
1815.74
1814.14
1812.64
1811.57
1811.18
1811.09
1811.16
1809.23
1791.49
1788.45
1786.68
1785.67
1787
1789.06
1786.09
1772.86
1754.25
1750.82
1792.57
1902.27
2079.51
2297.06
2512.53
2687.91
2804.65
2866.62
2890.92
2893.9
2880.94
2844.92
2773
2656.71
2499.48
2317.97
2136.95
1980.95
1866.59
1798.75
1771.45
1772.13
1786.89
1804.55
1818.61
1826.88
1830.11
1830.15
1828.76
1827.03
1825.4
1823.91
1822.53
1821.31
1820.38
1819.84
1819.63
1819.53
1819.22
1818.45
1817.19
1815.57
1813.73
1811.81
1810.1
1809
1808.79
1809.04
1809.49
1808.46
1787.12
1784.51
1783.39
1783.8
1785.94
1784.79
1773.83
1755.5
1749.5
1787.63
1895.65
2074.65
2296.24
2515.34
2691.72
2806.6
2865.34
2887.14
2889.72
2878.46
2845.15
2775.45
2659.81
2501.46
2317.67
2134.26
1976.68
1861.97
1794.83
1768.77
1770.61
1786.05
1803.85
1817.66
1825.59
1828.63
1828.77
1827.77
1826.61
1825.56
1824.49
1823.26
1821.87
1820.52
1819.49
1818.93
1818.79
1818.75
1818.43
1817.57
1816.16
1814.32
1812.19
1809.96
1807.98
1806.75
1806.56
1807.01
1807.7
1807.44
1783.68
1781.89
1782
1783.75
1783.75
1774.81
1756.91
1748.28
1782.36
1888.36
2069.36
2295.77
2519.2
2696.71
2809.17
2863.84
2882.49
2884.45
2875.07
2844.81
2777.64
2662.83
2503.46
2317.49
2131.85
1972.9
1858.02
1791.68
1766.79
1769.6
1785.47
1803.15
1816.5
1823.94
1826.69
1826.86
1826.18
1825.56
1825.13
1824.66
1823.86
1822.63
1821.11
1819.65
1818.58
1818.07
1818
1818.02
1817.73
1816.88
1815.43
1813.5
1811.19
1808.71
1806.48
1805.07
1804.78
1805.24
1805.99
1806.27
1781.38
1780.9
1782.58
1783.53
1776.46
1758.88
1747.29
1776.74
1880.25
2063.37
2295.27
2523.83
2702.88
2812.74
2862.75
2877.57
2878.45
2870.86
2843.83
2779.44
2665.63
2505.25
2317.05
2129.19
1969.02
1854.25
1789.03
1765.58
1769.47
1785.7
1803.04
1815.65
1822.31
1824.5
1824.48
1823.97
1823.79
1823.98
1824.18
1824
1823.2
1821.86
1820.24
1818.74
1817.69
1817.22
1817.18
1817.23
1817
1816.25
1814.92
1813.04
1810.69
1808.08
1805.67
1804.07
1803.6
1803.92
1804.56
1805.09
1780.26
1781.65
1783.78
1779.1
1762.12
1747.01
1770.73
1871.08
2056.52
2294.71
2529.14
2710.03
2817.21
2862.26
2872.9
2872.4
2866.34
2842.42
2780.81
2668.08
2506.73
2316.27
2126.11
1964.69
1850.14
1786.31
1764.62
1769.91
1786.75
1803.86
1815.68
1821.36
1822.69
1822.11
1821.41
1821.39
1822.01
1822.83
1823.35
1823.23
1822.37
1820.96
1819.32
1817.85
1816.85
1816.39
1816.33
1816.37
1816.22
1815.64
1814.53
1812.84
1810.59
1807.96
1805.46
1803.72
1803.02
1803.09
1803.51
1803.99
1780.33
1783.57
1782.1
1767
1748.24
1764.68
1860.52
2048.37
2293.96
2535.25
2718.2
2822.37
2862.13
2868.54
2866.74
2862.23
2841.23
2782.13
2670.21
2507.75
2314.98
2122.54
1959.89
1845.6
1783.19
1763.4
1770.32
1788.04
1805.26
1816.58
1821.44
1821.89
1820.53
1819.25
1818.9
1819.51
1820.62
1821.71
1822.32
1822.2
1821.35
1819.99
1818.44
1817.07
1816.12
1815.64
1815.51
1815.52
1815.43
1815.06
1814.23
1812.81
1810.73
1808.19
1805.7
1803.85
1802.92
1802.69
1802.82
1803.05
1781.61
1784.33
1773.07
1751.65
1759.26
1848.49
2038.33
2292.58
2542.09
2727.48
2828.16
2862.1
2864.2
2861.47
2858.93
2841
2784.16
2672.57
2508.49
2313.08
2118.27
1954.49
1840.6
1779.72
1761.83
1770.34
1789.02
1806.55
1817.72
1822.18
1822.12
1820.16
1818.22
1817.21
1817.29
1818.13
1819.31
1820.38
1820.98
1820.91
1820.18
1818.99
1817.65
1816.44
1815.56
1815.05
1814.83
1814.77
1814.74
1814.55
1814
1812.85
1810.99
1808.6
1806.17
1804.25
1803.1
1802.55
1802.37
1802.25
1783.54
1779.53
1757.47
1755.2
1835.25
2026.15
2290.18
2549.36
2737.62
2834.33
2861.87
2859.56
2856.26
2856.28
2841.92
2787.52
2676
2509.72
2311.03
2113.38
1948.35
1834.99
1775.84
1759.96
1770.04
1789.55
1807.32
1818.46
1822.86
1822.74
1820.65
1818.38
1816.81
1816.15
1816.29
1816.98
1817.94
1818.84
1819.41
1819.44
1818.93
1818.01
1816.95
1815.98
1815.21
1814.67
1814.36
1814.22
1814.2
1814.15
1813.82
1812.91
1811.26
1809.03
1806.69
1804.73
1803.37
1802.51
1802.03
1801.52
1783.78
1766.24
1753.06
1820.8
2011.77
2287.04
2557.27
2748.37
2840.3
2860.87
2854.2
2850.78
2853.91
2843.65
2792.11
2680.86
2512.2
2309.7
2108.57
1941.79
1828.78
1771.44
1757.73
1769.42
1789.71
1807.58
1818.6
1822.99
1823.07
1821.25
1819.13
1817.42
1816.27
1815.67
1815.57
1815.92
1816.56
1817.27
1817.79
1817.92
1817.65
1817.08
1816.38
1815.68
1815.05
1814.52
1814.12
1813.9
1813.85
1813.87
1813.67
1812.93
1811.46
1809.39
1807.15
1805.15
1803.61
1802.44
1801.66
1800.77
1777.88
1754.66
1804.44
1994.38
2283.75
2567
2760.16
2845.54
2858.3
2847.57
2844.72
2851.48
2845.66
2797.34
2686.72
2515.93
2309.58
2104.65
1935.67
1822.59
1766.79
1755.14
1768.45
1789.48
1807.41
1818.22
1822.54
1822.84
1821.46
1819.79
1818.31
1817.07
1816.05
1815.31
1814.94
1814.98
1815.36
1815.87
1816.31
1816.53
1816.49
1816.26
1815.91
1815.5
1815.03
1814.54
1814.08
1813.77
1813.66
1813.67
1813.52
1812.88
1811.55
1809.63
1807.5
1805.48
1803.74
1802.28
1801.2
1799.93
1764.72
1786.03
1971.27
2280.43
2580.54
2774.36
2850.05
2853.52
2839.16
2837.85
2848.8
2847.6
2802.61
2692.85
2520.22
2310.27
2101.71
1930.53
1817.23
1762.66
1752.7
1767.3
1788.89
1806.79
1817.39
1821.63
1822.14
1821.2
1820.03
1818.96
1817.9
1816.79
1815.72
1814.85
1814.35
1814.25
1814.47
1814.83
1815.18
1815.43
1815.56
1815.61
1815.56
1815.38
1815.05
1814.6
1814.12
1813.74
1813.56
1813.51
1813.35
1812.75
1811.53
1809.76
1807.74
1805.7
1803.78
1802.02
1800.65
1798.97
1766.16
1937.13
2276.07
2600.45
2792.71
2854.05
2846.26
2828.83
2830.14
2845.84
2849.34
2807.68
2698.83
2524.4
2310.96
2099
1926.02
1812.86
1759.66
1751.18
1766.62
1788.27
1805.83
1816.11
1820.33
1821.13
1820.67
1819.99
1819.3
1818.47
1817.41
1816.21
1815.09
1814.26
1813.84
1813.77
1813.96
1814.24
1814.52
1814.78
1815
1815.19
1815.3
1815.24
1814.99
1814.57
1814.09
1813.7
1813.46
1813.35
1813.13
1812.54
1811.4
1809.78
1807.88
1805.84
1803.75
1801.71
1800.04
1797.93
1863.38
2268.08
2631.5
2816.84
2856.7
2836.2
2817.16
2822.15
2842.64
2850.71
2812.46
2704.67
2528.39
2311.21
2095.75
1921.24
1808.81
1757.57
1750.83
1766.92
1788.18
1804.9
1814.55
1818.66
1819.85
1819.99
1819.88
1819.58
1818.93
1817.88
1816.57
1815.27
1814.23
1813.61
1813.41
1813.53
1813.81
1814.12
1814.4
1814.65
1814.87
1815.04
1815.11
1815.01
1814.73
1814.32
1813.87
1813.51
1813.29
1813.14
1812.87
1812.26
1811.19
1809.71
1807.94
1805.93
1803.7
1801.39
1799.43
1796.87
2211.69
2686.17
2846.96
2853.55
2821.99
2805.49
2815.21
2839.5
2851.35
2816.74
2710.52
2532.48
2311.18
2091.79
1915.67
1804.34
1755.65
1751.17
1768.13
1788.86
1804.37
1812.99
1816.75
1818.26
1819.11
1819.75
1819.99
1819.59
1818.54
1817.06
1815.49
1814.17
1813.3
1812.97
1813.08
1813.47
1813.95
1814.4
1814.75
1815
1815.13
1815.14
1815
1814.69
1814.26
1813.79
1813.39
1813.11
1812.96
1812.84
1812.54
1811.91
1810.89
1809.55
1807.93
1805.97
1803.65
1801.12
1798.91
1795.9
2856.33
2864.75
2828
2801.28
2796.44
2811.35
2836.8
2850.85
2820.08
2716.3
2536.89
2311.19
2087.35
1909.37
1799.29
1753.5
1751.64
1769.71
1790
1804.24
1811.64
1814.77
1816.38
1817.86
1819.34
1820.34
1820.47
1819.62
1818.06
1816.2
1814.46
1813.17
1812.49
1812.42
1812.83
1813.51
1814.26
1814.93
1815.42
1815.69
1815.7
1815.46
1814.97
1814.31
1813.62
1813.02
1812.62
1812.44
1812.42
1812.39
1812.12
1811.5
1810.53
1809.32
1807.86
1805.99
1803.63
1800.93
1798.52
1795.1
2791.86
2789.1
2790.8
2797.78
2811.73
2833.94
2848.82
2822.41
2721.98
2541.55
2311.19
2082.53
1902.59
1793.93
1751.29
1752.15
1771.33
1791.16
1804.2
1810.42
1812.88
1814.38
1816.24
1818.39
1820.21
1821.1
1820.84
1819.56
1817.66
1815.58
1813.76
1812.5
1811.94
1812.05
1812.68
1813.61
1814.63
1815.54
1816.21
1816.53
1816.43
1815.91
1815.02
1813.95
1812.9
1812.07
1811.6
1811.5
1811.63
1811.74
1811.57
1811
1810.11
1809.04
1807.74
1806
1803.66
1800.86
1798.31
1794.51
2799.87
2804.17
2804.14
2810.14
2828.09
2845.14
2824.57
2728.11
2546.4
2310.73
2076.89
1895.19
1788.47
1749.39
1753.02
1773.09
1792.23
1803.97
1809.12
1811.04
1812.45
1814.48
1817.01
1819.37
1820.99
1821.52
1820.95
1819.48
1817.47
1815.36
1813.54
1812.29
1811.76
1811.94
1812.67
1813.76
1814.98
1816.12
1816.96
1817.35
1817.17
1816.4
1815.15
1813.66
1812.21
1811.08
1810.44
1810.33
1810.57
1810.85
1810.84
1810.41
1809.65
1808.73
1807.61
1806.02
1803.75
1800.9
1798.25
1794.1
2800.39
2801.02
2803.53
2820.34
2841.2
2827.69
2735.58
2551.77
2309.5
2069.78
1886.6
1782.68
1747.89
1754.53
1775.26
1793.35
1803.57
1807.65
1809.16
1810.63
1812.85
1815.55
1818.13
1820.12
1821.28
1821.5
1820.82
1819.4
1817.49
1815.48
1813.72
1812.49
1811.96
1812.13
1812.88
1814.03
1815.36
1816.63
1817.6
1818.04
1817.79
1816.83
1815.3
1813.45
1811.62
1810.14
1809.25
1809.02
1809.29
1809.71
1809.9
1809.68
1809.12
1808.39
1807.46
1806.04
1803.88
1801.02
1798.31
1793.82
2800.18
2801.23
2813.67
2836.79
2831.07
2744.56
2558.32
2307.81
2060.87
1876.21
1776.04
1746.51
1756.58
1777.88
1794.63
1803.11
1806.05
1807.23
1808.87
1811.39
1814.29
1816.95
1819.03
1820.44
1821.17
1821.2
1820.53
1819.24
1817.53
1815.7
1814.08
1812.94
1812.43
1812.59
1813.33
1814.49
1815.86
1817.18
1818.17
1818.58
1818.25
1817.15
1815.41
1813.29
1811.14
1809.32
1808.12
1807.68
1807.86
1808.34
1808.73
1808.77
1808.49
1808.01
1807.28
1806.03
1804
1801.16
1798.42
1793.62
2799.11
2806.39
2829.45
2833.28
2755.12
2567.05
2306.54
2050.46
1863.84
1768.19
1744.87
1758.81
1780.63
1795.86
1802.53
1804.36
1805.25
1807.11
1809.99
1813.18
1816.01
1818.17
1819.64
1820.53
1820.9
1820.75
1820.06
1818.89
1817.38
1815.77
1814.35
1813.38
1812.99
1813.22
1814.01
1815.2
1816.58
1817.86
1818.77
1819.06
1818.58
1817.32
1815.4
1813.08
1810.69
1808.59
1807.09
1806.38
1806.38
1806.83
1807.35
1807.67
1807.73
1807.56
1807.06
1805.99
1804.11
1801.34
1798.59
1793.53
2799.62
2819.94
2834.07
2767.85
2578.85
2306.33
2038.99
1849.9
1759.44
1743.04
1761.01
1783.15
1796.68
1801.58
1802.47
1803.23
1805.33
1808.53
1812.02
1815.11
1817.49
1819.14
1820.13
1820.59
1820.6
1820.2
1819.39
1818.25
1816.88
1815.5
1814.34
1813.6
1813.43
1813.85
1814.8
1816.1
1817.51
1818.73
1819.49
1819.57
1818.87
1817.39
1815.29
1812.79
1810.2
1807.88
1806.14
1805.18
1804.98
1805.32
1805.9
1806.47
1806.89
1807.08
1806.86
1805.99
1804.31
1801.67
1798.97
1793.75
2806.32
2831.95
2783.13
2594.74
2307.33
2026.33
1834.9
1750.88
1741.94
1763.52
1785.34
1796.88
1800.11
1800.33
1801.14
1803.54
1807
1810.69
1814.02
1816.72
1818.7
1819.96
1820.57
1820.62
1820.23
1819.48
1818.46
1817.27
1816
1814.83
1813.94
1813.49
1813.62
1814.33
1815.54
1817.03
1818.52
1819.7
1820.3
1820.15
1819.19
1817.47
1815.15
1812.46
1809.7
1807.22
1805.32
1804.18
1803.8
1804.03
1804.62
1805.39
1806.16
1806.73
1806.83
1806.22
1804.76
1802.3
1799.72
1794.45
2820.32
2801.3
2617.14
2309.64
2011.22
1818.61
1743.62
1743.01
1767.27
1787.51
1796.54
1798.26
1798.17
1799.25
1801.96
1805.59
1809.37
1812.84
1815.8
1818.14
1819.78
1820.69
1820.9
1820.49
1819.64
1818.5
1817.22
1815.93
1814.74
1813.76
1813.14
1813.02
1813.48
1814.53
1816.04
1817.76
1819.39
1820.59
1821.11
1820.8
1819.64
1817.72
1815.21
1812.35
1809.44
1806.83
1804.82
1803.58
1803.11
1803.26
1803.85
1804.76
1805.8
1806.72
1807.14
1806.78
1805.56
1803.31
1800.89
1795.61
2819.54
2651.04
2313.43
1990.74
1799.45
1738.17
1747.44
1773.1
1790.06
1795.83
1796.23
1796.3
1797.94
1800.99
1804.68
1808.45
1811.97
1815.09
1817.69
1819.66
1820.89
1821.34
1821.05
1820.14
1818.8
1817.24
1815.67
1814.25
1813.1
1812.31
1811.98
1812.2
1813.03
1814.44
1816.27
1818.25
1820.04
1821.33
1821.86
1821.53
1820.33
1818.36
1815.77
1812.82
1809.81
1807.11
1805.01
1803.69
1803.13
1803.21
1803.79
1804.76
1805.96
1807.1
1807.75
1807.6
1806.55
1804.47
1802.19
1796.89
2722.45
2320.66
1958.82
1774.87
1734.98
1755.75
1780.88
1792.71
1794.65
1794.01
1794.71
1797.22
1800.72
1804.49
1808.21
1811.74
1814.99
1817.78
1819.97
1821.43
1822.11
1822
1821.15
1819.7
1817.86
1815.87
1813.99
1812.41
1811.27
1810.66
1810.64
1811.24
1812.48
1814.28
1816.45
1818.68
1820.65
1822.06
1822.7
1822.47
1821.38
1819.51
1817.01
1814.09
1811.08
1808.3
1806.09
1804.62
1803.91
1803.84
1804.32
1805.24
1806.46
1807.65
1808.38
1808.3
1807.33
1805.34
1803.15
1797.8
2373.49
1902.44
1743.26
1737.27
1768.56
1789.11
1794.11
1792.52
1791.46
1793.05
1796.5
1800.55
1804.54
1808.35
1812.01
1815.42
1818.43
1820.83
1822.5
1823.38
1823.46
1822.77
1821.37
1819.42
1817.13
1814.75
1812.57
1810.84
1809.72
1809.3
1809.62
1810.66
1812.37
1814.59
1817.08
1819.54
1821.64
1823.14
1823.86
1823.74
1822.79
1821.08
1818.73
1815.93
1812.96
1810.15
1807.81
1806.12
1805.13
1804.79
1805.03
1805.79
1806.89
1807.99
1808.65
1808.52
1807.53
1805.55
1803.41
1798.02
1727.53
1722.86
1760.64
1787.3
1794.59
1792.12
1788.99
1788.73
1791.2
1795.12
1799.5
1803.85
1808.02
1812.01
1815.73
1819.05
1821.77
1823.74
1824.9
1825.24
1824.8
1823.63
1821.82
1819.51
1816.9
1814.27
1811.91
1810.11
1809.06
1808.89
1809.61
1811.15
1813.35
1815.98
1818.75
1821.33
1823.44
1824.87
1825.51
1825.34
1824.38
1822.7
1820.38
1817.63
1814.68
1811.85
1809.4
1807.51
1806.24
1805.59
1805.56
1806.09
1807
1807.94
1808.45
1808.2
1807.14
1805.11
1802.98
1797.61
1790.29
1796.55
1794.89
1789.26
1785.4
1784.81
1786.56
1789.47
1793.04
1797.17
1801.71
1806.4
1810.93
1815.14
1818.87
1822.02
1824.46
1826.09
1826.87
1826.83
1826.03
1824.55
1822.49
1820
1817.27
1814.55
1812.17
1810.41
1809.53
1809.67
1810.83
1812.88
1815.58
1818.59
1821.56
1824.15
1826.11
1827.29
1827.65
1827.19
1825.96
1824.04
1821.54
1818.63
1815.59
1812.68
1810.17
1808.19
1806.79
1805.99
1805.8
1806.2
1806.98
1807.76
1808.11
1807.7
1806.48
1804.33
1802.11
1796.72
1780.2
1778.43
1778.6
1780.2
1782.78
1785.41
1787.91
1790.65
1794.14
1798.51
1803.49
1808.59
1813.39
1817.69
1821.37
1824.38
1826.63
1828.03
1828.56
1828.27
1827.23
1825.55
1823.35
1820.77
1818
1815.27
1812.9
1811.22
1810.51
1810.94
1812.53
1815.07
1818.24
1821.61
1824.75
1827.32
1829.1
1829.99
1829.99
1829.15
1827.54
1825.25
1822.4
1819.21
1815.94
1812.89
1810.29
1808.27
1806.86
1806.09
1805.96
1806.4
1807.19
1807.88
1808.06
1807.42
1805.92
1803.47
1800.95
1795.36
1776.63
1777.58
1779.5
1781.42
1783.52
1785.76
1788.32
1791.49
1795.49
1800.32
1805.66
1811.02
1815.99
1820.33
1823.95
1826.81
1828.83
1829.98
1830.23
1829.64
1828.32
1826.39
1823.99
1821.26
1818.37
1815.56
1813.14
1811.47
1810.86
1811.53
1813.46
1816.45
1820.06
1823.79
1827.16
1829.8
1831.52
1832.26
1832.07
1831.01
1829.17
1826.63
1823.55
1820.13
1816.66
1813.43
1810.68
1808.56
1807.11
1806.36
1806.32
1806.88
1807.73
1808.39
1808.39
1807.45
1805.54
1802.58
1799.46
1793.35
1772.22
1774.22
1776.94
1779.72
1782.78
1785.97
1789.35
1793.11
1797.55
1802.73
1808.39
1814.04
1819.21
1823.6
1827.12
1829.73
1831.42
1832.17
1831.99
1830.96
1829.2
1826.87
1824.12
1821.08
1817.95
1814.94
1812.38
1810.63
1810.05
1810.87
1813.11
1816.5
1820.55
1824.69
1828.37
1831.21
1833.03
1833.81
1833.61
1832.54
1830.69
1828.13
1825.01
1821.55
1818.02
1814.71
1811.88
1809.65
1808.12
1807.34
1807.33
1807.96
1808.84
1809.44
1809.24
1807.95
1805.5
1801.84
1797.78
1790.69
1766.67
1770.61
1774.97
1779.08
1783.21
1787.3
1791.42
1795.8
1800.73
1806.32
1812.31
1818.18
1823.37
1827.55
1830.6
1832.56
1833.5
1833.45
1832.5
1830.75
1828.34
1825.43
1822.2
1818.79
1815.4
1812.26
1809.68
1808.05
1807.73
1808.93
1811.65
1815.57
1820.17
1824.8
1828.87
1831.99
1833.96
1834.77
1834.53
1833.37
1831.39
1828.73
1825.52
1821.99
1818.41
1815.07
1812.18
1809.93
1808.42
1807.78
1808.03
1808.97
1810.14
1810.89
1810.63
1809
1805.93
1801.34
1795.87
1787.18
)
;

boundaryField
{
    bottomwall
    {
        type            calculated;
        value           nonuniform List<scalar> 
60
(
1783.42
1797.35
1805.35
1810.37
1813.69
1815.94
1817.55
1818.77
1819.77
1820.68
1821.61
1822.59
1823.58
1824.49
1825.3
1826.03
1826.72
1827.45
1828.24
1829.09
1829.98
1830.84
1831.57
1832.05
1832.22
1832.2
1832.3
1832.96
1834.4
1836.18
1836.93
1834.48
1826.84
1813.75
1798.29
1787.79
1793.1
1826.29
1897.16
2009.87
2160.89
2339.14
2528.25
2710.14
2868.61
2991.75
3072.6
3108.31
3098.63
3044.95
2950.13
2819.27
2660.49
2485.17
2307.02
2140.14
1996.3
1883.29
1801.7
1741.1
)
;
    }
    topwall
    {
        type            calculated;
        value           nonuniform List<scalar> 
60
(
1765.87
1769.98
1774.93
1779.32
1783.64