/*--------------------------------*- C++ -*----------------------------------*\
| =========                 |                                                 |
| \\      /  F ield         | OpenFOAM: The Open Source CFD Toolbox           |
|  \\    /   O peration     | Version:  2406                                  |
|   \\  /    A nd           | Website:  www.openfoam.com                      |
|    \\/     M anipulation  |                                                 |
\*---------------------------------------------------------------------------*/
FoamFile
{
    version     2.0;
    format      ascii;
    arch        "LSB;label=32;scalar=64";
    class       volScalarField;
    location    "5000";
    object      ILambda_12_0;
}
// * * * * * * * * * * * * * * * * * * * * * * * * * * * * * * * * * * * * * //

dimensions      [1 0 -3 0 0 0 0];

internalField   nonuniform List<scalar> 
3600
(
140.319
139.501
139.275
139.058
138.976
138.963
138.997
139.045
139.088
139.116
139.127
139.125
139.116
139.108
139.103
139.105
139.112
139.123
139.137
139.151
139.165
139.178
139.189
139.2
139.21
139.22
139.231
139.244
139.257
139.272
139.286
139.301
139.314
139.327
139.338
139.351
139.365
139.383
139.406
139.433
139.464
139.495
139.522
139.543
139.556
139.564
139.574
139.594
139.633
139.692
139.763
139.826
139.856
139.826
139.722
139.543
139.301
139.019
138.73
138.494
141.275
140.201
139.775
139.36
139.112
138.982
138.948
138.974
139.025
139.076
139.112
139.129
139.129
139.12
139.109
139.101
139.1
139.105
139.115
139.128
139.143
139.157
139.171
139.183
139.194
139.204
139.213
139.224
139.235
139.248
139.263
139.278
139.293
139.307
139.32
139.331
139.341
139.353
139.368
139.388
139.414
139.445
139.479
139.511
139.537
139.552
139.557
139.557
139.565
139.592
139.648
139.729
139.818
139.887
139.903
139.841
139.697
139.478
139.189
138.823
141.914
140.793
140.266
139.731
139.355
139.11
138.986
138.954
138.98
139.029
139.079
139.113
139.129
139.129
139.119
139.109
139.102
139.101
139.107
139.117
139.13
139.145
139.159
139.172
139.184
139.195
139.205
139.215
139.226
139.237
139.25
139.264
139.28
139.295
139.309
139.322
139.333
139.344
139.357
139.372
139.392
139.417
139.448
139.481
139.513
139.539
139.556
139.564
139.566
139.573
139.597
139.647
139.721
139.804
139.866
139.873
139.802
139.655
139.452
139.217
142.626
141.503
140.889
140.243
139.731
139.349
139.106
138.984
138.954
138.981
139.032
139.081
139.115
139.13
139.128
139.119
139.108
139.101
139.1
139.106
139.117
139.13
139.144
139.159
139.172
139.184
139.195
139.205
139.215
139.225
139.237
139.25
139.264
139.279
139.294
139.309
139.321
139.333
139.344
139.356
139.371
139.391
139.416
139.447
139.481
139.513
139.539
139.556
139.563
139.564
139.571
139.595
139.646
139.724
139.811
139.879
139.888
139.813
139.651
139.428
143.281
142.236
141.585
140.869
140.243
139.725
139.345
139.103
138.983
138.955
138.983
139.035
139.084
139.117
139.131
139.129
139.118
139.107
139.101
139.1
139.106
139.117
139.13
139.144
139.159
139.172
139.184
139.195
139.205
139.215
139.225
139.237
139.25
139.264
139.279
139.295
139.309
139.322
139.333
139.344
139.356
139.371
139.39
139.416
139.447
139.481
139.514
139.541
139.558
139.564
139.565
139.57
139.591
139.64
139.718
139.808
139.881
139.896
139.823
139.658
143.856
142.945
142.307
141.571
140.869
140.238
139.721
139.34
139.1
138.982
138.956
138.985
139.037
139.086
139.119
139.131
139.128
139.118
139.107
139.1
139.1
139.106
139.117
139.13
139.145
139.159
139.172
139.184
139.195
139.205
139.215
139.225
139.236
139.249
139.264
139.279
139.295
139.309
139.322
139.333
139.344
139.356
139.37
139.39
139.416
139.446
139.481
139.514
139.541
139.559
139.566
139.566
139.569
139.589
139.637
139.714
139.807
139.884
139.903
139.833
144.326
143.583
143.003
142.298
141.572
140.866
140.233
139.716
139.336
139.096
138.98
138.956
138.987
139.04
139.089
139.12
139.132
139.128
139.117
139.106
139.1
139.1
139.106
139.117
139.13
139.145
139.159
139.172
139.184
139.195
139.205
139.215
139.225
139.236
139.249
139.264
139.279
139.295
139.309
139.322
139.333
139.344
139.356
139.37
139.39
139.415
139.446
139.48
139.514
139.542
139.56
139.567
139.566
139.568
139.586
139.632
139.71
139.806
139.888
139.918
144.686
144.117
143.628
142.999
142.302
141.572
140.863
140.229
139.71
139.331
139.093
138.979
138.957
138.99
139.042
139.091
139.122
139.133
139.128
139.117
139.105
139.099
139.099
139.106
139.117
139.13
139.145
139.159
139.172
139.184
139.195
139.205
139.215
139.225
139.236
139.249
139.264
139.279
139.295
139.309
139.322
139.334
139.344
139.356
139.37
139.389
139.415
139.446
139.48
139.514
139.543
139.562
139.569
139.567
139.568
139.583
139.628
139.706
139.805
139.898
144.946
144.533
144.151
143.627
143.004
142.303
141.571
140.861
140.225
139.705
139.326
139.09
138.978
138.958
138.992
139.045
139.093
139.123
139.133
139.128
139.116
139.105
139.099
139.099
139.106
139.117
139.13
139.145
139.159
139.172
139.185
139.195
139.205
139.215
139.225
139.236
139.249
139.264
139.279
139.295
139.31
139.323
139.334
139.344
139.355
139.37
139.389
139.414
139.445
139.48
139.515
139.544
139.563
139.57
139.568
139.567
139.581
139.624
139.702
139.808
145.128
144.836
144.558
144.151
143.632
143.007
142.305
141.571
140.858
140.22
139.7
139.322
139.087
138.977
138.959
138.994
139.048
139.096
139.125
139.134
139.128
139.116
139.104
139.098
139.099
139.106
139.117
139.131
139.145
139.159
139.172
139.185
139.195
139.205
139.215
139.225
139.236
139.249
139.264
139.279
139.295
139.31
139.323
139.334
139.344
139.355
139.37
139.389
139.414
139.445
139.48
139.515
139.545
139.564
139.572
139.569
139.567
139.578
139.62
139.699
145.259
145.045
144.855
144.557
144.156
143.637
143.011
142.307
141.57
140.855
140.215
139.695
139.317
139.084
138.976
138.96
138.996
139.051
139.098
139.127
139.134
139.128
139.115
139.103
139.098
139.099
139.106
139.117
139.131
139.145
139.159
139.173
139.185
139.196
139.205
139.215
139.225
139.236
139.249
139.263
139.279
139.295
139.31
139.323
139.334
139.344
139.355
139.369
139.388
139.413
139.444
139.479
139.515
139.545
139.566
139.574
139.571
139.567
139.576
139.614
145.364
145.189
145.062
144.853
144.562
144.16
143.642
143.015
142.309
141.57
140.852
140.211
139.689
139.312
139.081
138.975
138.961
138.999
139.054
139.101
139.128
139.135
139.128
139.114
139.103
139.097
139.098
139.106
139.117
139.131
139.145
139.159
139.173
139.185
139.196
139.205
139.215
139.225
139.236
139.249
139.263
139.279
139.295
139.31
139.323
139.334
139.344
139.355
139.369
139.388
139.413
139.444
139.479
139.515
139.546
139.567
139.575
139.572
139.566
139.571
145.464
145.297
145.204
145.058
144.856
144.565
144.165
143.646
143.019
142.311
141.57
140.849
140.206
139.684
139.307
139.078
138.974
138.962
139.001
139.057
139.103
139.13
139.135
139.127
139.114
139.102
139.097
139.098
139.106
139.117
139.131
139.145
139.159
139.173
139.185
139.196
139.205
139.215
139.224
139.236
139.248
139.263
139.279
139.295
139.31
139.323
139.334
139.345
139.355
139.369
139.387
139.412
139.443
139.479
139.515
139.547
139.568
139.577
139.573
139.564
145.571
145.392
145.312
145.199
145.059
144.857
144.568
144.169
143.651
143.023
142.314
141.569
140.846
140.201
139.678
139.302
139.074
138.973
138.963
139.004
139.06
139.106
139.131
139.136
139.127
139.113
139.102
139.096
139.098
139.106
139.117
139.131
139.145
139.159
139.173
139.185
139.196
139.206
139.215
139.224
139.235
139.248
139.263
139.279
139.296
139.311
139.324
139.335
139.345
139.355
139.369
139.387
139.412
139.443
139.478
139.515
139.547
139.57
139.578
139.574
145.691
145.493
145.409
145.306
145.199
145.059
144.859
144.571
144.174
143.656
143.027
142.316
141.569
140.843
140.196
139.672
139.297
139.071
138.972
138.965
139.007
139.063
139.108
139.133
139.136
139.127
139.112
139.101
139.096
139.098
139.106
139.117
139.131
139.145
139.159
139.173
139.185
139.196
139.206
139.215
139.224
139.235
139.248
139.263
139.279
139.296
139.311
139.324
139.335
139.345
139.355
139.369
139.387
139.411
139.442
139.478
139.515
139.548
139.571
139.58
145.823
145.609
145.511
145.403
145.305
145.198
145.059
144.861
144.575
144.178
143.661
143.031
142.318
141.568
140.84
140.191
139.666
139.292
139.068
138.972
138.966
139.01
139.066
139.111
139.134
139.137
139.126
139.112
139.1
139.095
139.098
139.106
139.118
139.131
139.145
139.159
139.173
139.185
139.196
139.206
139.215
139.224
139.235
139.248
139.263
139.279
139.296
139.311
139.324
139.335
139.345
139.355
139.368
139.386
139.411
139.442
139.478
139.515
139.548
139.573
145.96
145.739
145.627
145.505
145.402
145.303
145.197
145.059
144.862
144.578
144.183
143.666
143.036
142.32
141.568
140.837
140.185
139.66
139.287
139.065
138.971
138.968
139.012
139.069
139.113
139.135
139.137
139.126
139.111
139.1
139.095
139.098
139.106
139.118
139.131
139.145
139.16
139.173
139.185
139.196
139.206
139.215
139.224
139.235
139.248
139.263
139.279
139.296
139.311
139.324
139.335
139.345
139.355
139.368
139.386
139.411
139.442
139.477
139.515
139.55
146.095
145.879
145.756
145.622
145.504
145.4
145.301
145.195
145.059
144.864
144.582
144.188
143.671
143.04
142.323
141.568
140.834
140.18
139.654
139.281
139.061
138.97
138.969
139.015
139.072
139.116
139.137
139.137
139.125
139.11
139.099
139.095
139.098
139.106
139.118
139.131
139.145
139.16
139.173
139.185
139.196
139.206
139.215
139.224
139.235
139.248
139.263
139.279
139.296
139.311
139.325
139.335
139.345
139.355
139.368
139.386
139.41
139.441
139.477
139.515
146.217
146.022
145.894
145.752
145.621
145.503
145.398
145.299
145.194
145.059
144.866
144.585
144.192
143.676
143.044
142.325
141.567
140.83
140.175
139.648
139.276
139.058
138.97
138.971
139.018
139.075
139.118
139.138
139.137
139.125
139.109
139.098
139.094
139.098
139.106
139.118
139.131
139.145
139.16
139.173
139.186
139.196
139.206
139.215
139.224
139.235
139.247
139.263
139.279
139.296
139.312
139.325
139.336
139.345
139.355
139.368
139.386
139.41
139.441
139.477
146.32
146.158
146.033
145.892
145.752
145.62
145.501
145.396
145.298
145.193
145.059
144.867
144.588
144.197
143.682
143.049
142.328
141.567
140.827
140.169
139.642
139.271
139.055
138.969
138.973
139.022
139.079
139.121
139.139
139.137
139.124
139.108
139.098
139.094
139.098
139.106
139.118
139.131
139.145
139.16
139.173
139.186
139.197
139.206
139.215
139.224
139.234
139.247
139.262
139.279
139.296
139.312
139.325
139.336
139.345
139.355
139.368
139.385
139.409
139.44
146.394
146.278
146.165
146.033
145.892
145.751
145.619
145.499
145.394
145.296
145.191
145.059
144.869
144.592
144.202
143.687
143.054
142.33
141.567
140.824
140.163
139.635
139.265
139.051
138.968
138.974
139.025
139.082
139.123
139.141
139.138
139.123
139.108
139.097
139.094
139.098
139.106
139.118
139.131
139.145
139.16
139.173
139.186
139.197
139.206
139.215
139.224
139.234
139.247
139.262
139.279
139.296
139.312
139.325
139.336
139.345
139.355
139.367
139.385
139.409
146.436
146.374
146.279
146.165
146.032
145.892
145.751
145.618
145.498
145.392
145.294
145.19
145.058
144.87
144.595
144.207
143.693
143.059
142.333
141.566
140.82
140.158
139.629
139.259
139.048
138.968
138.976
139.028
139.086
139.126
139.142
139.138
139.123
139.107
139.096
139.094
139.098
139.106
139.118
139.131
139.145
139.16
139.173
139.186
139.197
139.206
139.215
139.224
139.234
139.247
139.262
139.279
139.297
139.312
139.326
139.336
139.345
139.355
139.367
139.384
146.44
146.438
146.37
146.282
146.165
146.033
145.891
145.75
145.617
145.496
145.39
145.292
145.188
145.058
144.872
144.598
144.212
143.698
143.063
142.336
141.566
140.817
140.152
139.622
139.254
139.045
138.967
138.978
139.032
139.089
139.128
139.143
139.137
139.122
139.106
139.096
139.093
139.098
139.106
139.118
139.131
139.145
139.16
139.173
139.186
139.197
139.206
139.215
139.223
139.234
139.247
139.262
139.279
139.297
139.313
139.326
139.337
139.345
139.355
139.366
146.406
146.465
146.429
146.373
146.281
146.166
146.033
145.891
145.749
145.616
145.495
145.388
145.29
145.187
145.058
144.873
144.602
144.217
143.704
143.068
142.339
141.566
140.813
140.146
139.615
139.248
139.041
138.967
138.981
139.035
139.093
139.131
139.144
139.137
139.121
139.105
139.095
139.093
139.098
139.107
139.118
139.131
139.145
139.16
139.174
139.186
139.197
139.206
139.215
139.223
139.234
139.246
139.262
139.279
139.297
139.313
139.326
139.337
139.345
139.354
146.336
146.453
146.452
146.433
146.373
146.282
146.166
146.033
145.891
145.749
145.614
145.493
145.386
145.287
145.185
145.057
144.874
144.605
144.222
143.71
143.074
142.342
141.565
140.809
140.14
139.608
139.242
139.038
138.967
138.983
139.039
139.096
139.133
139.145
139.137
139.12
139.104
139.095
139.093
139.098
139.107
139.118
139.131
139.145
139.16
139.174
139.186
139.197
139.207
139.215
139.223
139.233
139.246
139.262
139.279
139.297
139.313
139.326
139.337
139.345
146.234
146.401
146.437
146.457
146.433
146.373
146.282
146.166
146.033
145.891
145.748
145.613
145.491
145.384
145.285
145.184
145.057
144.876
144.609
144.227
143.716
143.079
142.345
141.565
140.806
140.133
139.601
139.236
139.035
138.967
138.986
139.043
139.1
139.136
139.146
139.137
139.119
139.103
139.094
139.093
139.098
139.107
139.118
139.131
139.145
139.16
139.174
139.187
139.197
139.207
139.215
139.223
139.233
139.246
139.262
139.279
139.297
139.313
139.327
139.337
146.109
146.312
146.383
146.442
146.457
146.434
146.374
146.282
146.166
146.033
145.891
145.748
145.612
145.49
145.382
145.283
145.182
145.056
144.877
144.612
144.232
143.722
143.084
142.348
141.565
140.802
140.127
139.594
139.23
139.031
138.967
138.988
139.047
139.104
139.138
139.147
139.136
139.118
139.103
139.094
139.093
139.098
139.107
139.118
139.131
139.145
139.16
139.174
139.187
139.198
139.207
139.215
139.223
139.233
139.246
139.261
139.279
139.297
139.314
139.327
145.973
146.192
146.294
146.388
146.442
146.458
146.434
146.374
146.283
146.166
146.033
145.89
145.747
145.611
145.488
145.38
145.281
145.18
145.056
144.878
144.615
144.238
143.728
143.09
142.351
141.565
140.798
140.12
139.586
139.224
139.028
138.967
138.991
139.051
139.107
139.141
139.148
139.136
139.118
139.102
139.093
139.093
139.098
139.107
139.118
139.131
139.145
139.16
139.174
139.187
139.198
139.207
139.215
139.223
139.233
139.245
139.261
139.279
139.298
139.314
145.839
146.053
146.176
146.298
146.388
146.443
146.459
146.435
146.374
146.283
146.167
146.033
145.89
145.747
145.61
145.487
145.378
145.279
145.178
145.055
144.879
144.619
144.243
143.734
143.095
142.355
141.565
140.794
140.113
139.578
139.217
139.025
138.967
138.994
139.055
139.111
139.143
139.148
139.135
139.117
139.101
139.093
139.093
139.098
139.107
139.118
139.131
139.145
139.16
139.174
139.187
139.198
139.207
139.215
139.223
139.232
139.245
139.261
139.279
139.298
145.719
145.908
146.04
146.179
146.298
146.389
146.444
146.459
146.435
146.375
146.283
146.167
146.033
145.89
145.746
145.609
145.485
145.376
145.277
145.177
145.054
144.88
144.622
144.248
143.741
143.101
142.358
141.565
140.79
140.106
139.57
139.211
139.021
138.967
138.997
139.059
139.115
139.145
139.149
139.135
139.116
139.1
139.092
139.093
139.098
139.107
139.119
139.131
139.145
139.16
139.174
139.187
139.198
139.207
139.215
139.223
139.232
139.245
139.261
139.279
145.627
145.77
145.899
146.041
146.18
146.299
146.39
146.445
146.46
146.436
146.375
146.283
146.167
146.033
145.89
145.746
145.608
145.484
145.374
145.274
145.175
145.053
144.881
144.625
144.253
143.747
143.107
142.362
141.564
140.786
140.099
139.562
139.204
139.018
138.968
139
139.064
139.119
139.148
139.149
139.134
139.114
139.099
139.092
139.093
139.098
139.107
139.119
139.131
139.145
139.16
139.174
139.187
139.198
139.207
139.215
139.222
139.232
139.245
139.261
145.571
145.656
145.767
145.899
146.042
146.18
146.3
146.391
146.446
146.461
146.436
146.376
146.284
146.167
146.033
145.89
145.745
145.608
145.482
145.371
145.272
145.173
145.052
144.882
144.628
144.259
143.754
143.114
142.366
141.564
140.782
140.092
139.554
139.197
139.015
138.968
139.004
139.068
139.123
139.15
139.15
139.133
139.113
139.098
139.092
139.093
139.099
139.108
139.119
139.131
139.145
139.16
139.174
139.188
139.199
139.207
139.215
139.222
139.232
139.244
145.556
145.575
145.658
145.765
145.899
146.042
146.181
146.301
146.392
146.447
146.461
146.437
146.376
146.284
146.167
146.033
145.89
145.745
145.607
145.481
145.37
145.27
145.171
145.051
144.883
144.631
144.264
143.76
143.12
142.37
141.564
140.777
140.084
139.545
139.19
139.011
138.969
139.008
139.073
139.127
139.152
139.15
139.133
139.112
139.098
139.091
139.093
139.099
139.108
139.119
139.131
139.145
139.16
139.174
139.188
139.199
139.208
139.215
139.222
139.231
145.58
145.536
145.582
145.654
145.765
145.899
146.042
146.182
146.302
146.393
146.448
146.462
146.437
146.376
146.284
146.168
146.033
145.89
145.745
145.606
145.479
145.368
145.268
145.169
145.05
144.884
144.635
144.27
143.767
143.126
142.374
141.564
140.773
140.076
139.537
139.183
139.008
138.97
139.011
139.078
139.131
139.154
139.15
139.132
139.111
139.097
139.091
139.093
139.099
139.108
139.119
139.131
139.145
139.16
139.174
139.188
139.199
139.208
139.215
139.222
145.641
145.54
145.547
145.578
145.654
145.764
145.898
146.043
146.182
146.303
146.394
146.448
146.463
146.438
146.377
146.285
146.168
146.033
145.89
145.744
145.605
145.478
145.366
145.265
145.167
145.049
144.884
144.638
144.275
143.774
143.133
142.378
141.565
140.768
140.068
139.528
139.176
139.005
138.971
139.016
139.083
139.135
139.156
139.15
139.131
139.11
139.096
139.091
139.093
139.099
139.108
139.119
139.131
139.145
139.16
139.175
139.188
139.199
139.208
139.215
145.73
145.585
145.554
145.542
145.577
145.653
145.763
145.898
146.043
146.183
146.304
146.395
146.449
146.464
146.438
146.377
146.285
146.168
146.034
145.889
145.744
145.604
145.476
145.364
145.263
145.164
145.048
144.885
144.641
144.281
143.782
143.14
142.383
141.565
140.764
140.06
139.518
139.169
139.002
138.972
139.02
139.088
139.138
139.157
139.15
139.129
139.109
139.096
139.091
139.093
139.099
139.108
139.119
139.131
139.145
139.16
139.175
139.188
139.2
139.208
145.837
145.664
145.601
145.55
145.542
145.576
145.652
145.763
145.898
146.044
146.184
146.305
146.396
146.45
146.464
146.439
146.377
146.285
146.168
146.034
145.889
145.743
145.603
145.475
145.362
145.261
145.162
145.047
144.885
144.644
144.286
143.789
143.147
142.387
141.565
140.759
140.051
139.509
139.161
138.998
138.974
139.025
139.093
139.142
139.159
139.15
139.128
139.108
139.095
139.091
139.093
139.1
139.108
139.119
139.131
139.144
139.16
139.175
139.189
139.2
145.953
145.767
145.68
145.597
145.549
145.541
145.575
145.651
145.762
145.898
146.044
146.185
146.306
146.397
146.451
146.465
146.439
146.378
146.285
146.168
146.034
145.889
145.743
145.602
145.474
145.36
145.258
145.16
145.045
144.886
144.647
144.292
143.796
143.155
142.392
141.565
140.754
140.042
139.499
139.154
138.995
138.976
139.03
139.099
139.146
139.161
139.149
139.127
139.107
139.094
139.091
139.093
139.1
139.108
139.118
139.13
139.144
139.16
139.175
139.189
146.068
145.884
145.782
145.677
145.597
145.548
145.539
145.573
145.65
145.761
145.898
146.044
146.185
146.307
146.398
146.452
146.466
146.44
146.378
146.286
146.169
146.034
145.889
145.743
145.602
145.472
145.358
145.256
145.158
145.044
144.886
144.649
144.298
143.804
143.162
142.397
141.566
140.749
140.033
139.488
139.146
138.992
138.978
139.035
139.104
139.15
139.162
139.149
139.126
139.106
139.094
139.091
139.093
139.1
139.108
139.118
139.13
139.144
139.16
139.175
146.173
146.006
145.897
145.78
145.677
145.596
145.548
145.538
145.572
145.648
145.761
145.898
146.045
146.186
146.308
146.399
146.453
146.466
146.44
146.378
146.286
146.169
146.034
145.889
145.742
145.601
145.471
145.356
145.254
145.155
145.042
144.886
144.652
144.303
143.812
143.17
142.403
141.566
140.744
140.024
139.478
139.138
138.989
138.98
139.04
139.11
139.154
139.163
139.148
139.125
139.105
139.093
139.091
139.094
139.1
139.109
139.118
139.13
139.144
139.16
146.261
146.122
146.015
145.896
145.78
145.677
145.596
145.547
145.537
145.571
145.647
145.76
145.898
146.045
146.187
146.309
146.4
146.454
146.467
146.441
146.379
146.286
146.169
146.034
145.889
145.742
145.6
145.47
145.354
145.251
145.153
145.04
144.886
144.655
144.309
143.819
143.178
142.408
141.567
140.738
140.014
139.467
139.13
138.987
138.983
139.046
139.116
139.157
139.164
139.147
139.123
139.104
139.093
139.091
139.094
139.1
139.109
139.118
139.13
139.144
146.325
146.225
146.127
146.015
145.896
145.78
145.677
145.595
145.546
145.536
145.57
145.646
145.759
145.897
146.046
146.188
146.31
146.401
146.454
146.467
146.441
146.379
146.286
146.169
146.034
145.889
145.742
145.599
145.469
145.352
145.249
145.15
145.039
144.886
144.657
144.314
143.828
143.187
142.414
141.568
140.733
140.003
139.455
139.121
138.984
138.986
139.053
139.122
139.161
139.165
139.146
139.122
139.103
139.093
139.091
139.094
139.101
139.109
139.118
139.129
146.358
146.309
146.225
146.129
146.015
145.897
145.781
145.677
145.595
145.545
145.535
145.568
145.645
145.759
145.897
146.046
146.189
146.311
146.402
146.455
146.468
146.442
146.379
146.287
146.169
146.034
145.889
145.741
145.599
145.467
145.351
145.247
145.148
145.037
144.886
144.66
144.32
143.836
143.196
142.421
141.569
140.727
139.993
139.443
139.112
138.982
138.989
139.059
139.128
139.164
139.165
139.145
139.121
139.102
139.092
139.091
139.094
139.101
139.109
139.118
146.355
146.365
146.302
146.228
146.128
146.016
145.897
145.781
145.677
145.594
145.544
145.533
145.567
145.644
145.758
145.897
146.047
146.19
146.312
146.403
146.456
146.469
146.442
146.38
146.287
146.17
146.034
145.889
145.741
145.598
145.466
145.349
145.245
145.146
145.035
144.885
144.662
144.325
143.844
143.205
142.427
141.57
140.721
139.981
139.43
139.104
138.979
138.994
139.066
139.135
139.167
139.165
139.144
139.119
139.101
139.092
139.09
139.095
139.101
139.109
146.308
146.389
146.352
146.307
146.227
146.128
146.016
145.897
145.781
145.676
145.594
145.543
145.532
145.566
145.643
145.757
145.897
146.047
146.191
146.314
146.404
146.457
146.469
146.442
146.38
146.287
146.17
146.035
145.889
145.741
145.597
145.465
145.347
145.242
145.143
145.033
144.885
144.664
144.331
143.853
143.214
142.435
141.571
140.715
139.969
139.417
139.094
138.977
138.998
139.074
139.141
139.17
139.165
139.143
139.118
139.101
139.091
139.09
139.095
139.102
146.214
146.372
146.368
146.358
146.305
146.227
146.129
146.016
145.897
145.781
145.676
145.593
145.542
145.531
145.564
145.641
145.756
145.897
146.048
146.192
146.315
146.405
146.458
146.47
146.443
146.38
146.288
146.17
146.035
145.889
145.74
145.597
145.464
145.346
145.24
145.141
145.03
144.884
144.666
144.336
143.861
143.224
142.442
141.573
140.709
139.957
139.404
139.085
138.976
139.003
139.082
139.147
139.173
139.165
139.141
139.117
139.1
139.091
139.09
139.095
146.069
146.31
146.345
146.376
146.356
146.306
146.227
146.129
146.016
145.898
145.781
145.676
145.593
145.541
145.53
145.563
145.64
145.756
145.897
146.048
146.193
146.316
146.406
146.459
146.47
146.443
146.381
146.288
146.17
146.035
145.889
145.74
145.596
145.463
145.344
145.238
145.138
145.028
144.883
144.667
144.342
143.87
143.234
142.45
141.575
140.703
139.944
139.389
139.075
138.975
139.01
139.09
139.153
139.174
139.164
139.14
139.117
139.099
139.09
139.09
145.871
146.197
146.275
146.354
146.374
146.357
146.306
146.228
146.129
146.017
145.898
145.781
145.676
145.593
145.54
145.528
145.561
145.639
145.755
145.897
146.049
146.194
146.317
146.408
146.459
146.471
146.444
146.381
146.288
146.171
146.035
145.889
145.74
145.595
145.462
145.342
145.236
145.136
145.026
144.882
144.669
144.347
143.879
143.245
142.459
141.577
140.696
139.93
139.374
139.065
138.974
139.016
139.099
139.159
139.176
139.163
139.139
139.116
139.098
139.089
145.621
146.03
146.156
146.287
146.352
146.375
146.357
146.306
146.228
146.129
146.017
145.898
145.782
145.676
145.592
145.54
145.527
145.56
145.638
145.754
145.897
146.049
146.195
146.318
146.409
146.46
146.471
146.444
146.381
146.288
146.171
146.035
145.889
145.739
145.595
145.461
145.341
145.234
145.133
145.023
144.88
144.67
144.352
143.888
143.256
142.468
141.58
140.689
139.915
139.357
139.055
138.974
139.024
139.109
139.164
139.177
139.162
139.139
139.115
139.096
145.324
145.809
145.982
146.169
146.284
146.353
146.375
146.357
146.306
146.228
146.129
146.017
145.899
145.782
145.676
145.592
145.539
145.526
145.558
145.636
145.753
145.897
146.05
146.196
146.319
146.41
146.461
146.472
146.444
146.382
146.289
146.171
146.035
145.889
145.739
145.594
145.46
145.339
145.232
145.131
145.021
144.879
144.671
144.356
143.897
143.268
142.478
141.583
140.682
139.9
139.34
139.045
138.975
139.034
139.119
139.169
139.177
139.161
139.138
139.114
144.982
145.537
145.755
145.997
146.166
146.286
146.353
146.375
146.357
146.306
146.228
146.129
146.017
145.899
145.782
145.676
145.591
145.538
145.524
145.557
145.635
145.752
145.896
146.05
146.197
146.32
146.411
146.462
146.472
146.445
146.382
146.289
146.171
146.035
145.889
145.739
145.593
145.459
145.338
145.23
145.128
145.019
144.877
144.671
144.361
143.906
143.28
142.489
141.587
140.675
139.882
139.321
139.034
138.977
139.044
139.129
139.173
139.176
139.16
139.138
144.6
145.22
145.476
145.771
145.994
146.168
146.286
146.353
146.375
146.357
146.306
146.228
146.13
146.018
145.899
145.783
145.676
145.591
145.537
145.523
145.555
145.634
145.752
145.896
146.051
146.198
146.322
146.412
146.462
146.473
146.445
146.382
146.289
146.172
146.036
145.888
145.738
145.593
145.458
145.337
145.228
145.126
145.016
144.875
144.671
144.365
143.914
143.293
142.501
141.592
140.667
139.864
139.3
139.023
138.981
139.057
139.139
139.175
139.174
139.16
144.177
144.864
145.151
145.493
145.767
145.996
146.168
146.286
146.353
146.375
146.357
146.306
146.228
146.13
146.018
145.9
145.783
145.677
145.591
145.536
145.522
145.554
145.632
145.751
145.896
146.052
146.199
146.323
146.413
146.463
146.473
146.445
146.382
146.29
146.172
146.036
145.888
145.738
145.592
145.457
145.335
145.226
145.124
145.014
144.874
144.671
144.368
143.923
143.306
142.514
141.597
140.66
139.844
139.278
139.011
138.986
139.071
139.148
139.175
139.173
143.708
144.473
144.786
145.17
145.488
145.769
145.996
146.169
146.287
146.354
146.375
146.357
146.306
146.228
146.13
146.018
145.9
145.783
145.677
145.59
145.535
145.52
145.552
145.631
145.75
145.896
146.052
146.2
146.324
146.414
146.464
146.474
146.445
146.383
146.29
146.172
146.036
145.888
145.738
145.591
145.456
145.334
145.225
145.122
145.012
144.872
144.671
144.371
143.931
143.319
142.529
141.605
140.652
139.821
139.252
139
138.995
139.089
139.157
139.173
143.183
144.041
144.384
144.807
145.164
145.49
145.769
145.997
146.17
146.287
146.354
146.375
146.357
146.306
146.228
146.13
146.018
145.9
145.784
145.677
145.59
145.534
145.519
145.55
145.629
145.749
145.896
146.053
146.201
146.326
146.415
146.465
146.474
146.446
146.383
146.29
146.172
146.036
145.888
145.737
145.591
145.455
145.332
145.223
145.12
145.01
144.87
144.67
144.374
143.939
143.333
142.545
141.614
140.644
139.796
139.224
138.989
139.009
139.108
139.161
142.59
143.56
143.944
144.407
144.8
145.164
145.49
145.77
145.998
146.171
146.288
146.354
146.375
146.357
146.306
146.228
146.13
146.019
145.901
145.784
145.677
145.59
145.533
145.517
145.549
145.628
145.748
145.896
146.054
146.203
146.327
146.416
146.465
146.474
146.446
146.383
146.291
146.173
146.036
145.888
145.737
145.59
145.454
145.331
145.221
145.118
145.007
144.868
144.669
144.375
143.946
143.347
142.563
141.626
140.636
139.766
139.19
138.98
139.03
139.131
141.926
143.012
143.456
143.967
144.401
144.799
145.163
145.49
145.771
145.999
146.171
146.288
146.354
146.375
146.358
146.306
146.228
146.13
146.019
145.901
145.784
145.677
145.589
145.532
145.516
145.547
145.626
145.747
145.896
146.055
146.204
146.328
146.417
146.466
146.475
146.446
146.384
146.291
146.173
146.036
145.888
145.736
145.589
145.453
145.33
145.219
145.116
145.006
144.866
144.668
144.376
143.952
143.361
142.584
141.642
140.63
139.73
139.149
138.975
139.07
141.206
142.378
142.911
143.478
143.963
144.4
144.798
145.163
145.49
145.772
146.001
146.172
146.288
146.354
146.376
146.358
146.307
146.229
146.13
146.019
145.901
145.785
145.677
145.589
145.531
145.514
145.545
145.624
145.746
145.896
146.055
146.205
146.329
146.418
146.466
146.475
146.447
146.384
146.291
146.174
146.036
145.888
145.736
145.589
145.452
145.328
145.217
145.114
145.004
144.865
144.667
144.376
143.956
143.374
142.607
141.664
140.626
139.686
139.096
138.99
140.472
141.648
142.295
142.928
143.478
143.964
144.399
144.797
145.162
145.491
145.774
146.002
146.173
146.289
146.355
146.377
146.359
146.308
146.229
146.131
146.02
145.902
145.785
145.678
145.589
145.53
145.512
145.542
145.622
145.744
145.895
146.056
146.206
146.331
146.419
146.467
146.476
146.447
146.385
146.292
146.174
146.037
145.888
145.736
145.588
145.451
145.326
145.215
145.111
145.002
144.864
144.667
144.376
143.959
143.387
142.635
141.698
140.633
139.626
139.014
139.799
140.831
141.602
142.308
142.935
143.485
143.968
144.401
144.798
145.164
145.495
145.779
146.007
146.178
146.294
146.359
146.38
146.362
146.31
146.231
146.132
146.021
145.903
145.786
145.678
145.588
145.527
145.508
145.537
145.616
145.74
145.893
146.056
146.208
146.334
146.422
146.471
146.479
146.45
146.388
146.295
146.177
146.039
145.889
145.736
145.588
145.449
145.324
145.212
145.108
145
144.866
144.671
144.381
143.966
143.401
142.671
141.76
140.674
139.478
)
;

boundaryField
{
    bottomwall
    {
        type            opaque;
        refValue        uniform 0;
        refGradient     uniform 0;
        valueFraction   uniform 0;
        source          uniform 0;
        value           nonuniform List<scalar> 
60
(
140.319
139.501
139.275
139.058
138.976
138.963
138.997
139.045
139.088
139.116
139.127
139.125
139.116
139.108
139.103
139.105
139.112
139.123
139.137
139.151
139.165
139.178
139.189
139.2
139.21
139.22
139.231
139.244
139.257
139.272
139.286
139.301
139.314
139.327
139.338
139.351
139.365
139.383
139.406
139.433
139.464
139.495
139.522
139.543
139.556
139.564
139.574
139.594
139.633