/*--------------------------------*- C++ -*----------------------------------*\
| =========                 |                                                 |
| \\      /  F ield         | OpenFOAM: The Open Source CFD Toolbox           |
|  \\    /   O peration     | Version:  2406                                  |
|   \\  /    A nd           | Website:  www.openfoam.com                      |
|    \\/     M anipulation  |                                                 |
\*---------------------------------------------------------------------------*/
FoamFile
{
    version     2.0;
    format      ascii;
    arch        "LSB;label=32;scalar=64";
    class       volScalarField;
    location    "5000";
    object      ILambda_1_0;
}
// * * * * * * * * * * * * * * * * * * * * * * * * * * * * * * * * * * * * * //

dimensions      [1 0 -3 0 0 0 0];

internalField   nonuniform List<scalar> 
3600
(
141.867
145.042
146.55
147.366
147.896
148.267
148.531
148.726
148.878
149.005
149.118
149.224
149.325
149.423
149.517
149.608
149.699
149.79
149.883
149.979
150.076
150.173
150.267
150.357
150.439
150.515
150.591
150.675
150.773
150.881
150.975
151.015
150.961
150.803
150.596
150.483
150.691
151.488
153.111
155.695
159.205
163.425
167.978
172.399
176.232
179.118
180.858
181.402
180.804
179.167
176.615
173.295
169.389
165.127
160.775
156.598
152.804
149.488
146.563
143.057
140.126
143.483
145.827
147.035
147.68
148.101
148.407
148.634
148.806
148.943
149.062
149.171
149.274
149.374
149.469
149.562
149.653
149.744
149.836
149.93
150.026
150.123
150.219
150.312
150.398
150.477
150.552
150.631
150.722
150.826
150.929
151.001
150.997
150.891
150.701
150.524
150.546
151.018
152.2
154.285
157.33
161.211
165.632
170.164
174.34
177.741
180.085
181.246
181.227
180.109
178.01
175.065
171.437
167.332
162.999
158.708
154.701
151.131
148.119
144.127
139.308
141.826
144.653
146.483
147.419
147.927
148.27
148.528
148.724
148.877
149.004
149.117
149.222
149.323
149.421
149.515
149.607
149.697
149.789
149.882
149.977
150.074
150.171
150.265
150.354
150.437
150.514
150.59
150.675
150.772
150.878
150.97
151.008
150.955
150.802
150.604
150.502
150.717
151.511
153.119
155.674
159.148
163.33
167.854
172.263
176.102
179.014
180.791
181.373
180.807
179.194
176.663
173.361
169.473
165.227
160.885
156.71
152.887
149.75
145.343
139.028
140.498
143.215
145.595
147.011
147.724
148.126
148.41
148.631
148.804
148.942
149.061
149.169
149.272
149.372
149.468
149.56
149.651
149.742
149.834
149.928
150.024
150.121
150.217
150.31
150.396
150.475
150.551
150.631
150.722
150.825
150.927
150.996
150.992
150.888
150.702
150.532
150.559
151.029
152.2
154.263
157.279
161.129
165.524
170.044
174.222
177.643
180.02
181.218
181.232
180.141
178.061
175.132
171.518
167.426
163.102
158.816
154.766
151.473
146.689
139.011
139.633
141.795
144.405
146.35
147.425
147.965
148.287
148.528
148.721
148.875
149.003
149.116
149.221
149.322
149.419
149.513
149.605
149.696
149.787
149.88
149.975
150.072
150.169
150.263
150.353
150.435
150.512
150.589
150.674
150.772
150.877
150.967
151.004
150.951
150.8
150.607
150.51
150.726
151.513
153.105
155.635
159.08
163.236
167.742
172.146
175.997
178.936
180.748
181.366
180.829
179.239
176.725
173.437
169.561
165.324
160.994
156.759
153.299
148.155
139.111
139.184
140.616
143.067
145.403
146.943
147.746
148.157
148.421
148.63
148.801
148.941
149.06
149.168
149.271
149.37
149.466
149.559
149.65
149.74
149.832
149.926
150.022
150.119
150.215
150.308
150.394
150.473
150.55
150.63
150.721
150.824
150.925
150.993
150.988
150.885
150.703
150.537
150.566
151.034
152.194
154.237
157.226
161.049
165.421
169.928
174.11
177.552
179.96
181.193
181.241
180.176
178.116
175.201
171.601
167.518
163.212
158.851
155.233
149.737
139.255
139.037
139.782
141.773
144.232
146.216
147.4
147.994
148.311
148.534
148.719
148.873
149.002
149.114
149.219
149.32
149.417
149.512
149.603
149.694
149.785
149.878
149.973
150.07
150.167
150.261
150.351
150.433
150.511
150.588
150.674
150.771
150.875
150.964
151
150.947
150.799
150.61
150.516
150.733
151.514
153.09
155.597
159.014
163.144
167.631
172.031
175.894
178.859
180.706
181.358
180.852
179.284
176.787
173.513
169.647
165.435
161.015
157.273
151.434
139.385
139.076
139.295
140.681
142.964
145.245
146.86
147.748
148.185
148.438
148.632
148.798
148.938
149.059
149.167
149.269
149.368
149.464
149.557
149.648
149.739
149.831
149.925
150.021
150.118
150.213
150.306
150.392
150.472
150.549
150.629
150.72
150.823
150.923
150.989
150.984
150.881
150.703
150.541
150.574
151.039
152.188
154.212
157.174
160.969
165.318
169.814
173.999
177.46
179.899
181.168
181.248
180.21
178.17
175.271
171.68
167.628
163.22
159.402
153.245
139.447
139.198
139.096
139.88
141.752
144.096
146.091
147.358
148.01
148.336
148.545
148.718
148.869
148.999
149.113
149.218
149.318
149.415
149.51
149.602
149.693
149.784
149.877
149.972
150.068
150.165
150.259
150.349
150.431
150.509
150.587
150.673
150.77
150.874
150.961
150.995
150.943
150.797
150.612
150.523
150.74
151.514
153.076
155.559
158.949
163.052
167.522
171.916
175.79
178.781
180.662
181.35
180.873
179.329
176.849
173.586
169.755
165.43
161.597
155.164
139.416
139.32
139.09
139.387
140.723
142.882
145.109
146.773
147.735
148.208
148.458
148.638
148.796
148.935
149.057
149.166
149.268
149.366
149.462
149.555
149.646
149.737
149.829
149.923
150.019
150.116
150.211
150.304
150.39
150.47
150.547
150.628
150.72
150.822
150.92
150.985
150.979
150.878
150.703
150.546
150.581
151.044
152.182
154.186
157.123
160.89
165.217
169.7
173.889
177.368
179.838
181.142
181.255
180.243
178.224
175.336
171.785
167.61
163.829
157.18
139.315
139.383
139.179
139.158
139.954
141.732
143.982
145.975
147.307
148.017
148.36
148.56
148.72
148.866
148.996
149.112
149.217
149.317
149.414
149.508
149.6
149.691
149.782
149.875
149.97
150.066
150.163
150.257
150.347
150.43
150.508
150.586
150.672
150.77
150.872
150.958
150.991
150.939
150.795
150.614
150.529
150.746
151.514
153.061
155.521
158.884
162.961
167.413
171.802
175.687
178.703
180.617
181.34
180.893
179.374
176.906
173.687
169.726
166.064
159.274
139.198
139.37
139.278
139.114
139.462
140.754
142.813
144.989
146.686
147.712
148.225
148.479
148.647
148.795
148.932
149.054
149.164
149.267
149.365
149.46
149.553
149.645
149.736
149.827
149.921
150.017
150.114
150.209
150.302
150.388
150.468
150.546
150.628
150.719
150.821
150.918
150.982
150.975
150.875
150.703
150.55
150.588
151.048
152.176
154.161
157.072
160.812
165.116
169.587
173.778
177.276
179.775
181.114
181.26
180.277
178.272
175.433
171.743
168.264
161.424
139.113
139.302
139.332
139.167
139.212
140.012
141.714
143.884
145.867
147.25
148.014
148.381
148.576
148.725
148.864
148.993
149.109
149.215
149.315
149.412
149.506
149.598
149.689
149.781
149.873
149.968
150.064
150.161
150.255
150.345
150.428
150.506
150.585
150.672
150.769
150.871
150.955
150.988
150.935
150.794
150.617
150.535
150.752
151.515
153.046
155.484
158.82
162.871
167.305
171.689
175.584
178.624
180.571
181.328
180.914
179.411
176.997
173.633
170.394
163.601
139.078
139.216
139.329
139.241
139.137
139.523
140.777
142.753
144.882
146.6
147.682
148.236
148.5
148.659
148.797
148.929
149.051
149.162
149.265
149.363
149.458
149.551
149.643
149.734
149.826
149.92
150.015
150.112
150.207
150.3
150.386
150.467
150.545
150.627
150.719
150.82
150.916
150.978
150.971
150.873
150.704
150.555
150.594
151.052
152.17
154.136
157.022
160.735
165.016
169.475
173.668
177.183
179.712
181.085
181.266
180.302
178.355
175.367
172.421
165.775
139.079
139.146
139.282
139.289
139.159
139.258
140.06
141.696
143.797
145.766
147.189
148.005
148.398
148.594
148.733
148.864
148.99
149.107
149.214
149.314
149.41
149.504
149.596
149.688
149.779
149.872
149.966
150.063
150.159
150.253
150.343
150.426
150.505
150.584
150.671
150.768
150.869
150.952
150.984
150.932
150.792
150.619
150.54
150.758
151.514
153.032
155.447
158.756
162.782
167.197
171.576
175.481
178.545
180.524
181.317
180.925
179.486
176.92
174.313
167.914
139.096
139.105
139.218
139.294
139.213
139.157
139.574
140.795
142.7
144.784
146.516
147.646
148.241
148.519
148.673
148.8
148.927
149.048
149.16
149.264
149.362
149.457
149.55
149.641
149.732
149.824
149.918
150.013
150.11
150.205
150.298
150.384
150.465
150.543
150.626
150.718
150.819
150.914
150.975
150.967
150.87
150.704
150.559
150.601
151.056
152.163
154.111
156.972
160.659
164.917
169.364
173.559
177.09
179.647
181.056
181.261
180.366
178.267
176.04
169.986
139.114
139.092
139.161
139.265
139.254
139.154
139.296
140.098
141.68
143.719
145.672
147.127
147.99
148.412
148.612
148.742
148.864
148.987
149.104
149.212
149.312
149.409
149.503
149.595
149.686
149.777
149.87
149.965
150.061
150.157
150.251
150.341
150.424
150.503
150.583
150.67
150.767
150.868
150.95
150.98
150.928
150.791
150.621
150.546
150.764
151.514
153.017
155.411
158.693
162.694
167.091
171.464
175.378
178.465
180.478
181.296
180.975
179.386
177.577
171.959
139.129
139.096
139.122
139.218
139.266
139.191
139.175
139.617
140.809
142.652
144.695
146.434
147.606
148.241
148.537
148.687
148.805
148.925
149.045
149.157
149.262
149.36
149.455
149.548
149.639
149.731
149.823
149.916
150.012
150.108
150.204
150.296
150.382
150.463
150.542
150.625
150.717
150.817
150.912
150.972
150.963
150.867
150.704
150.563
150.607
151.06
152.157
154.087
156.923
160.583
164.819
169.253
173.449
176.997
179.584
181.017
181.296
180.255
178.898
173.804
139.146
139.107
139.102
139.17
139.249
139.227
139.152
139.329
140.129
141.664
143.649
145.583
147.064
147.97
148.422
148.63
148.752
148.866
148.984
149.101
149.209
149.311
149.407
149.501
149.593
149.684
149.776
149.868
149.963
150.059
150.155
150.249
150.339
150.422
150.502
150.582
150.669
150.766
150.866
150.947
150.976
150.925
150.789
150.623
150.552
150.77
151.514
153.003
155.375
158.631
162.607
166.985
171.352
175.275
178.386
180.421
181.314
180.854
179.981
175.493
139.175
139.124
139.098
139.133
139.214
139.243
139.174
139.191
139.652
140.819
142.609
144.612
146.355
147.563
148.237
148.552
148.703
148.812
148.925
149.042
149.154
149.26
149.359
149.454
149.546
149.638
149.729
149.821
149.914
150.01
150.106
150.202
150.294
150.38
150.461
150.541
150.624
150.716
150.816
150.909
150.968
150.96
150.864
150.704
150.567
150.613
151.063
152.151
154.063
156.875
160.509
164.722
169.143
173.34
176.906
179.51
181.017
181.165
180.804
176.999
139.222
139.147
139.104
139.109
139.174
139.234
139.205
139.151
139.357
140.155
141.649
143.584
145.499
147
147.946
148.429
148.646
148.764
148.869
148.982
149.097
149.207
149.309
149.406
149.499
149.591
149.682
149.774
149.867
149.961
150.057
150.153
150.247
150.337
150.42
150.5
150.581
150.669
150.765
150.864
150.944
150.973
150.921
150.788
150.625
150.557
150.775
151.513
152.988
155.339
158.57
162.52
166.881
171.241
175.174
178.297
180.402
181.172
181.346
178.296
139.287
139.182
139.12
139.1
139.139
139.208
139.223
139.162
139.206
139.682
140.827
142.568
144.535
146.279
147.518
148.229
148.565
148.718
148.82
148.925
149.039
149.151
149.257
149.357
149.452
149.545
149.636
149.727
149.819
149.913
150.008
150.104
150.2
150.292
150.378
150.46
150.54
150.623
150.716
150.815
150.907
150.965
150.956
150.862
150.705
150.571
150.619
151.066
152.144
154.038
156.827
160.435
164.625
169.033
173.233
176.805
179.474
180.867
181.591
179.362
139.363
139.232
139.147
139.104
139.114
139.175
139.22
139.187
139.152
139.381
140.177
141.633
143.523
145.419
146.937
147.919
148.433
148.662
148.777
148.874
148.981
149.094
149.204
149.307
149.404
149.498
149.59
149.681
149.772
149.865
149.959
150.055
150.151
150.245
150.335
150.419
150.499
150.58
150.668
150.765
150.863
150.941
150.969
150.918
150.787
150.628
150.562
150.78
151.512
152.974
155.304
158.509
162.435
166.776
171.132
175.064
178.244
180.246
181.525
180.173
139.435
139.296
139.186
139.119
139.103
139.143
139.201
139.205
139.153
139.22
139.707
140.832
142.53
144.463
146.205
147.472
148.217
148.576
148.734
148.83
148.927
149.036
149.148
149.255
149.355
149.45
149.543
149.634
149.726
149.818
149.911
150.006
150.102
150.198
150.29
150.376
150.458
150.538
150.622
150.715
150.814
150.905
150.962
150.953
150.86
150.705
150.574
150.625
151.069
152.138
154.015
156.779
160.361
164.529
168.926
173.118
176.737
179.314
181.138
180.711
139.485
139.366
139.241
139.149
139.105
139.118
139.173
139.207
139.173
139.155
139.403
140.195
141.618
143.467
145.343
146.875
147.889
148.433
148.677
148.791
148.88
148.98
149.091
149.201
149.305
149.402
149.496
149.588
149.679
149.771
149.863
149.958
150.053
150.149
150.243
150.333
150.417
150.497
150.579
150.667
150.764
150.861
150.938
150.965
150.915
150.786
150.63
150.567
150.785
151.512
152.96
155.269
158.449
162.35
166.675
171.016
174.984
178.084
180.43
180.957
139.502
139.429
139.305
139.193
139.121
139.106
139.144
139.194
139.19
139.146
139.232
139.729
140.835
142.494
144.394
146.133
147.424
148.203
148.585
148.749
148.84
148.93
149.034
149.145
149.252
149.353
149.449
149.541
149.633
149.724
149.816
149.909
150.005
150.101
150.196
150.288
150.374
150.456
150.537
150.621
150.714
150.812
150.903
150.959
150.949
150.857
150.706
150.578
150.63
151.072
152.131
153.991
156.733
160.289
164.436
168.813
173.03
176.58
179.406
180.9
139.479
139.472
139.373
139.25
139.153
139.107
139.121
139.17
139.195
139.161
139.158
139.422
140.209
141.602
143.414
145.271
146.813
147.857
148.43
148.69
148.804
148.887
148.981
149.088
149.197
149.302
149.401
149.495
149.586
149.677
149.769
149.862
149.956
150.052
150.147
150.241
150.331
150.415
150.496
150.578
150.666
150.763
150.859
150.936
150.962
150.912
150.785
150.632
150.572
150.79
151.511
152.946
155.235
158.389
162.267
166.567
170.922
174.837
178.083
180.532
139.42
139.484
139.431
139.315
139.2
139.125
139.109
139.144
139.186
139.177
139.141
139.244
139.748
140.836
142.46
144.33
146.063
147.375
148.185
148.591
148.764
148.851
148.934
149.032
149.141
149.249
149.351
149.447
149.54
149.631
149.722
149.814
149.908
150.003
150.099
150.194
150.286
150.372
150.455
150.536
150.62
150.713
150.811
150.901
150.956
150.946
150.855
150.706
150.582
150.635
151.075
152.124
153.968
156.686
160.218
164.338
168.718
172.895
176.485
179.855
139.337
139.462
139.468
139.379
139.258
139.159
139.111
139.123
139.166
139.184
139.15
139.161
139.439
140.221
141.587
143.363
145.202
146.752
147.823
148.425
148.701
148.818
148.895
148.982
149.085
149.194
149.299
149.399
149.493
149.585
149.676
149.767
149.86
149.954
150.05
150.146
150.239
150.329
150.413
150.494
150.577
150.665
150.761
150.858
150.933
150.959
150.909
150.784
150.634
150.577
150.795
151.51
152.932
155.2
158.332
162.181
166.474
170.806
174.648
178.875
139.246
139.408
139.475
139.432
139.322
139.207
139.13
139.112
139.143
139.177
139.165
139.137
139.255
139.765
140.836
142.427
144.269
145.996
147.326
148.166
148.595
148.777
148.863
148.938
149.032
149.138
149.246
149.349
149.445
149.538
149.63
149.721
149.812
149.906
150.001
150.097
150.192
150.284
150.371
150.453
150.534
150.619
150.712
150.81
150.899
150.953
150.942
150.853
150.706
150.585
150.641
151.077
152.118
153.944
156.641
160.145
164.249
168.623
172.618
177.612
139.161
139.332
139.45
139.463
139.384
139.266
139.165
139.115
139.124
139.162
139.173
139.142
139.165
139.454
140.231
141.571
143.315
145.135
146.692
147.788
148.418
148.711
148.832
148.903
148.984
149.083
149.191
149.297
149.397
149.491
149.583
149.674
149.766
149.858
149.952
150.048
150.144
150.237
150.327
150.411
150.493
150.576
150.664
150.76
150.856
150.93
150.955
150.906
150.783
150.636
150.581
150.799
151.509
152.917
155.167
158.272
162.097
166.404
170.445
176.09
139.093
139.248
139.397
139.466
139.432
139.329
139.214
139.135
139.115
139.142
139.169
139.155
139.134
139.265
139.779
140.835
142.395
144.21
145.931
147.277
148.144
148.597
148.79
148.875
148.944
149.031
149.135
149.243
149.346
149.444
149.537
149.628
149.719
149.811
149.904
149.999
150.095
150.19
150.282
150.369
150.451
150.533
150.618
150.711
150.808
150.896
150.949
150.939
150.851
150.707
150.589
150.646
151.08
152.111
153.921
156.595
160.069
164.207
168.188
174.345
139.048
139.168
139.325
139.439
139.458
139.387
139.273
139.172
139.12
139.126
139.157
139.163
139.134
139.168
139.467
140.24
141.555
143.27
145.071
146.632
147.751
148.408
148.72
148.845
148.913
148.986
149.081
149.187
149.294
149.394
149.49
149.582
149.673
149.764
149.856
149.951
150.046
150.142
150.235
150.325
150.41
150.491
150.574
150.663
150.759
150.854
150.928
150.952
150.903
150.782
150.638
150.586
150.804
151.507
152.904
155.134
158.204
162.085
165.904
172.419
139.025
139.103
139.245
139.386
139.457
139.43
139.334
139.222
139.141
139.119
139.14
139.161
139.145
139.132
139.275
139.791
140.832
142.365
144.154
145.867
147.228
148.121
148.597
148.802
148.887
148.95
149.032
149.132
149.239
149.343
149.442
149.535
149.626
149.717
149.809
149.902
149.997
150.093
150.188
150.28
150.367
150.45
150.532
150.617
150.71
150.807
150.894
150.946
150.936
150.849
150.707
150.592
150.65
151.082
152.104
153.9
156.536
160.086
163.654
170.363
139.021
139.057
139.169
139.317
139.429
139.452
139.389
139.28
139.179
139.125
139.127
139.151
139.153
139.128
139.172
139.48
140.246
141.54
143.226
145.01
146.574
147.714
148.397
148.726
148.858
148.923
148.99
149.08
149.184
149.29
149.392
149.488
149.58
149.671
149.762
149.855
149.949
150.044
150.14
150.233
150.323
150.408
150.49
150.573
150.662
150.758
150.852
150.925
150.949
150.9
150.781
150.64
150.59
150.808
151.505
152.893
155.083
158.249
161.491
168.227
139.031
139.032
139.107
139.241
139.377
139.449
139.429
139.339
139.229
139.148
139.122
139.138
139.153
139.136
139.13
139.283
139.802
140.829
142.335
144.1
145.805
147.179
148.096
148.595
148.813
148.899
148.957
149.033
149.13
149.236
149.341
149.44
149.534
149.625
149.716
149.807
149.901
149.996
150.091
150.186
150.278
150.365
150.448
150.53
150.616
150.709
150.806
150.892
150.943
150.933
150.847
150.708
150.596
150.655
151.083
152.101
153.855
156.606
159.465
166.067
139.05
139.026
139.062
139.169
139.31
139.419
139.447
139.39
139.286
139.186
139.131
139.127
139.146
139.144
139.122
139.176
139.49
140.251
141.524
143.183
144.95
146.517
147.676
148.383
148.732
148.871
148.933
148.994
149.079
149.181
149.287
149.39
149.486
149.579
149.67
149.761
149.853
149.947
150.043
150.138
150.231
150.321
150.406
150.488
150.572
150.662
150.757
150.851
150.923
150.946
150.898
150.78
150.642
150.595
150.811
151.509
152.853
155.175
157.616
163.936
139.074
139.033
139.037
139.109
139.238
139.369
139.441
139.426
139.342
139.235
139.154
139.125
139.136
139.146
139.128
139.129
139.291
139.812
140.825
142.306
144.048
145.745
147.129
148.069
148.591
148.823
148.911
148.965
149.035
149.127
149.232
149.338
149.437
149.532
149.623
149.714
149.806
149.899
149.994
150.089
150.184
150.276
150.363
150.447
150.529
150.615
150.708
150.804
150.89
150.941
150.93
150.845
150.708
150.599
150.659
151.091
152.066
153.965
155.973
161.883
139.102
139.05
139.028
139.066
139.169
139.304
139.411
139.442
139.391
139.291
139.193
139.136
139.128
139.141
139.136
139.117
139.18
139.5
140.256
141.509
143.143
144.893
146.46
147.637
148.368
148.736
148.883
148.944
148.999
149.078
149.178
149.284
149.387
149.484
149.577
149.668
149.759
149.851
149.945
150.041
150.136
150.229
150.319
150.404
150.487
150.571
150.661
150.756
150.849
150.92
150.943
150.895
150.779
150.644
150.598
150.821
151.477
152.976
154.557
159.953
139.134
139.075
139.034
139.04
139.111
139.235
139.361
139.434
139.424
139.346
139.242
139.161
139.129
139.134
139.139
139.121
139.128
139.299
139.82
140.82
142.278
143.998
145.687
147.08
148.042
148.586
148.832
148.924
148.973
149.037
149.126
149.229
149.334
149.435
149.53
149.622
149.713
149.804
149.897
149.992
150.087
150.182
150.274
150.361
150.445
150.528
150.614
150.707
150.803
150.888
150.938
150.927
150.843
150.709
150.601
150.67
151.061
152.197
153.374
158.18
139.168
139.103
139.051
139.031
139.069
139.169
139.298
139.403
139.437
139.391
139.296
139.2
139.141
139.129
139.137
139.128
139.113
139.183
139.509
140.259
141.493
143.103
144.837
146.405
147.598
148.352
148.738
148.894
148.954
149.005
149.079
149.175
149.28
149.384
149.482
149.575
149.666
149.757
149.85
149.944
150.039
150.134
150.227
150.317
150.402
150.485
150.57
150.66
150.755
150.847
150.917
150.94
150.892
150.779
150.644
150.609
150.793
151.61
152.421
156.592
139.205
139.135
139.075
139.036
139.043
139.113
139.231
139.354
139.427
139.421
139.348
139.248
139.168
139.132
139.132
139.132
139.114
139.127
139.306
139.827
140.815
142.251
143.949
145.629
147.032
148.014
148.58
148.839
148.936
148.982
149.04
149.124
149.226
149.331
149.433
149.528
149.62
149.711
149.803
149.896
149.99
150.086
150.18
150.272
150.359
150.443
150.526
150.613
150.706
150.801
150.885
150.935
150.924
150.841
150.708
150.611
150.642
151.193
151.687
155.207
139.243
139.17
139.104
139.052
139.033
139.071
139.168
139.293
139.395
139.432
139.391
139.301
139.206
139.147
139.13
139.132
139.121
139.108
139.186
139.517
140.261
141.477
143.065
144.783
146.351
147.558
148.334
148.739
148.905
148.965
149.011
149.079
149.172
149.277
149.381
149.48
149.574
149.665
149.756
149.848
149.942
150.037
150.132
150.225
150.315
150.401
150.484
150.569
150.658
150.753
150.845
150.915
150.937
150.89
150.776
150.653
150.582
150.918
151.151
154.031
139.28
139.207
139.136
139.075
139.038
139.046
139.114
139.228
139.347
139.42
139.419
139.351
139.254
139.174
139.136
139.13
139.126
139.108
139.127
139.312
139.833
140.81
142.224
143.902
145.574
146.983
147.984
148.571
148.846
148.947
148.991
149.044
149.123
149.222
149.328
149.43
149.526
149.619
149.71
149.801
149.894
149.988
150.084
150.178
150.27
150.357
150.442
150.525
150.612
150.705
150.8
150.883
150.932
150.921
150.838
150.715
150.585
150.759
150.789
153.064
139.315
139.244
139.172
139.104
139.053
139.036
139.073
139.167
139.288
139.389
139.427
139.391
139.305
139.213
139.152
139.131
139.128
139.114
139.105
139.189
139.524
140.262
141.462
143.027
144.73
146.297
147.518
148.315
148.739
148.915
148.977
149.018
149.081
149.17
149.273
149.378
149.478
149.572
149.663
149.754
149.846
149.94
150.035
150.13
150.223
150.313
150.399
150.482
150.567
150.657
150.752
150.843
150.912
150.934
150.886
150.782
150.628
150.687
150.571
152.295
139.343
139.281
139.209
139.138
139.076
139.039
139.048
139.115
139.226
139.341
139.414
139.416
139.353
139.26
139.18
139.139
139.128
139.12
139.103
139.126
139.317
139.838
140.803
142.198
143.856
145.519
146.935
147.954
148.562
148.852
148.958
149.001
149.048
149.123
149.219
149.324
149.427
149.524
149.617
149.708
149.799
149.892
149.987
150.082
150.176
150.268
150.356
150.44
150.524
150.611
150.704
150.799
150.881
150.93
150.917
150.843
150.691
150.676
150.467
151.708
139.362
139.314
139.246
139.174
139.106
139.054
139.038
139.075
139.166
139.284
139.382
139.422
139.39
139.309
139.219
139.157
139.132
139.124
139.108
139.101
139.192
139.53
140.263
141.446
142.991
144.679
146.244
147.478
148.295
148.737
148.924
148.988
149.025
149.083
149.168
149.27
149.375
149.475
149.57
149.662
149.753
149.845
149.938
150.033
150.128
150.221
150.311
150.397
150.481
150.566
150.656
150.751
150.842
150.91
150.93
150.89
150.76
150.705
150.449
151.283
139.372
139.34
139.282
139.211
139.139
139.077
139.041
139.05
139.115
139.223
139.335
139.408
139.413
139.354
139.265
139.186
139.142
139.127
139.115
139.098
139.126
139.322
139.843
140.797
142.172
143.812
145.466
146.887
147.923
148.551
148.856
148.969
149.01
149.052
149.122
149.216
149.321
149.424
149.522
149.616
149.707
149.798
149.891
149.985
150.08
150.174
150.266
150.354
150.438
150.522
150.61
150.703
150.797
150.879
150.925
150.92
150.822
150.754
150.488
150.994
139.373
139.359
139.314
139.249
139.176
139.107
139.056
139.04
139.077
139.165
139.279
139.376
139.417
139.39
139.313
139.225
139.162
139.133
139.12
139.103
139.098
139.195
139.536
140.263
141.431
142.956
144.629
146.192
147.437
148.274
148.734
148.932
148.999
149.032
149.085
149.166
149.267
149.371
149.473
149.569
149.66
149.751
149.843
149.937
150.031
150.126
150.219
150.309
150.395
150.479
150.565
150.655
150.75
150.84
150.906
150.932
150.871
150.81
150.562
150.816
139.37
139.369
139.34
139.284
139.214
139.141
139.079
139.043
139.052
139.116
139.22
139.33
139.402
139.41
139.356
139.27
139.192
139.145
139.125
139.11
139.093
139.126
139.327
139.847
140.79
142.147
143.769
145.413
146.84
147.891
148.539
148.859
148.98
149.02
149.058
149.123
149.214
149.317
149.421
149.52
149.614
149.705
149.796
149.889
149.983
150.078
150.172
150.264
150.352
150.437
150.521
150.609
150.702
150.796
150.876
150.927
150.904
150.86
150.65
150.724
139.364
139.372
139.357
139.315
139.251
139.178
139.109
139.057
139.042
139.078
139.164
139.275
139.37
139.413
139.389
139.316
139.231
139.167
139.134
139.117
139.097
139.096
139.197
139.541
140.262
141.416
142.922
144.58
146.141
147.397
148.252
148.731
148.94
149.009
149.04
149.088
149.165
149.263
149.368
149.47
149.567
149.659
149.75
149.842
149.935
150.03
150.124
150.218
150.307
150.394
150.478
150.564
150.654
150.749
150.837
150.907
150.918
150.898
150.738
150.694
139.356
139.37
139.367
139.339
139.286
139.216
139.143
139.08
139.045
139.054
139.116
139.217
139.325
139.397
139.407
139.357
139.275
139.198
139.149
139.124
139.105
139.089
139.125
139.331
139.85
140.783
142.122
143.726
145.362
146.792
147.859
148.526
148.862
148.99
149.03
149.063
149.123
149.211
149.314
149.418
149.518
149.612
149.704
149.795
149.887
149.981
150.076
150.17
150.262
150.35
150.435
150.52
150.608
150.701
150.793
150.877
150.916
150.922
150.815
150.706
139.34
139.364
139.371
139.356
139.315
139.253
139.18
139.11
139.059
139.044
139.079
139.163
139.271
139.365
139.408
139.388
139.319
139.236
139.171
139.135
139.114
139.093
139.093
139.199
139.545
140.261
141.4
142.888
144.533
146.09
147.356
148.229
148.726
148.947
149.02
149.049
149.091
149.164
149.26
149.365
149.467
149.565
149.657
149.748
149.84
149.933
150.028
150.123
150.216
150.305
150.392
150.476
150.562
150.653
150.747
150.838
150.899
150.929
150.873
150.741
139.312
139.354
139.371
139.367
139.339
139.287
139.218
139.145
139.082
139.047
139.056
139.116
139.215
139.32
139.392
139.404
139.358
139.279
139.203
139.152
139.123
139.101
139.085
139.125
139.335
139.852
140.775
142.098
143.685
145.312
146.746
147.827
148.512
148.863
148.999
149.04
149.069
149.125
149.209
149.31
149.415
149.515
149.61
149.702
149.793
149.886
149.98
150.074
150.168
150.26
150.348
150.433
150.518
150.607
150.699
150.793
150.87
150.921
150.911
150.786
139.269
139.335
139.366
139.372
139.356
139.316
139.254
139.182
139.112
139.061
139.046
139.08
139.162
139.267
139.359
139.404
139.387
139.322
139.241
139.176
139.136
139.111
139.088
139.091
139.201
139.549
140.259
141.385
142.855
144.486
146.041
147.316
148.205
148.72
148.953
149.031
149.057
149.095
149.164
149.257
149.361
149.465
149.562
149.656
149.747
149.838
149.932
150.026
150.121
150.214
150.304
150.39
150.475
150.561
150.652
150.747
150.833
150.901
150.928
150.829
139.214
139.305
139.354
139.372
139.367
139.339
139.287
139.22
139.147
139.084
139.049
139.057
139.116
139.212
139.315
139.387
139.401
139.359
139.283
139.208
139.155
139.123
139.097
139.081
139.125
139.338
139.854
140.768
142.074
143.645
145.262
146.698
147.793
148.496
148.862
149.007
149.05
149.075
149.126
149.207
149.307
149.412
149.513
149.609
149.701
149.792
149.884
149.978
150.072
150.166
150.258
150.346
150.432
150.517
150.605
150.699
150.79
150.869
150.926
150.865
139.153
139.262
139.333
139.367
139.374
139.357
139.316
139.256
139.184
139.114
139.063
139.048
139.081
139.16
139.263
139.354
139.4
139.386
139.325
139.246
139.18
139.137
139.108
139.084
139.089
139.203
139.552
140.258
141.37
142.825
144.443
145.996
147.28
148.186
148.717
148.962
149.043
149.067
149.1
149.164
149.254
149.358
149.462
149.561
149.654
149.746
149.837
149.93
150.025
150.119
150.212
150.302
150.389
150.474
150.56
150.651
150.745
150.831
150.908
150.889
139.088
139.208
139.299
139.352
139.372
139.368
139.339
139.289
139.222
139.15
139.087
139.052
139.06
139.116
139.209
139.309
139.38
139.397
139.359
139.287
139.213
139.159
139.123
139.094
139.078
139.125
139.341
139.854
140.755
142.042
143.591
145.195
146.631
147.739
148.462
148.849
149.008
149.056
149.081
149.128
149.205
149.303
149.407
149.509
149.605
149.698
149.789
149.881
149.975
150.069
150.163
150.255
150.343
150.429
150.514
150.603
150.696
150.786
150.875
150.897
139.023
139.16
139.267
139.337
139.371
139.376
139.357
139.315
139.254
139.182
139.112
139.061
139.047
139.082
139.161
139.264
139.355
139.401
139.387
139.326
139.247
139.18
139.135
139.103
139.079
139.086
139.207
139.565
140.28
141.401
142.861
144.483
146.039
147.324
148.23
148.756
148.993
149.064
149.079
149.105
149.165
149.255
149.36
149.465
149.564
149.658
149.75
149.841
149.934
150.028
150.122
150.215
150.305
150.392
150.477
150.564
150.655
150.747
150.842
150.898
138.9
139.047
139.176
139.275
139.339
139.369
139.371
139.348
139.303
139.24
139.169
139.104
139.061
139.058
139.101
139.184
139.281
139.36
139.392
139.37
139.309
139.236
139.175
139.132
139.098
139.076
139.108
139.282
139.719
140.518
141.7
143.175
144.762
146.245
147.446
148.28
148.764
148.986
149.061
149.086
149.121
149.186
149.276
149.378
149.481
149.58
149.674
149.766
149.857
149.951
150.045
150.139
150.231
150.32
150.407
150.492
150.581
150.671
150.765
150.864
)
;

boundaryField
{
    bottomwall
    {
        type            opaque;
        refValue        nonuniform List<scalar> 
60
(
143.312
145.501
146.741
147.505
148.003
148.343
148.585
148.768
148.912
149.034
149.145
149.25
149.351
149.447
149.541
149.631
149.722
149.814
149.907
150.003
150.1
150.197
150.291
150.378
150.459
150.534
150.611
150.698
150.8
150.908
150.993
151.014
150.932
150.751
150.547
150.487
150.815
151.8
153.663
156.498
160.224
164.578
169.15
173.468
177.088
179.691
181.121
181.363
180.486
178.602
175.838
172.347
168.323
164.009
159.674
155.578
151.904
148.71
145.812
142.59
)
;
        refGradient     uniform 0;
        valueFraction   uniform 1;