/*--------------------------------*- C++ -*----------------------------------*\
| =========                 |                                                 |
| \\      /  F ield         | OpenFOAM: The Open Source CFD Toolbox           |
|  \\    /   O peration     | Version:  2406                                  |
|   \\  /    A nd           | Website:  www.openfoam.com                      |
|    \\/     M anipulation  |                                                 |
\*---------------------------------------------------------------------------*/
FoamFile
{
    version     2.0;
    format      ascii;
    arch        "LSB;label=32;scalar=64";
    class       volScalarField;
    location    "5000";
    object      ILambda_4_0;
}
// * * * * * * * * * * * * * * * * * * * * * * * * * * * * * * * * * * * * * //

dimensions      [1 0 -3 0 0 0 0];

internalField   nonuniform List<scalar> 
3600
(
139.426
140.571
141.834
143.077
144.224
145.239
146.112
146.848
147.459
147.959
148.364
148.691
148.954
149.166
149.337
149.477
149.593
149.691
149.778
149.858
149.934
150.009
150.084
150.158
150.232
150.305
150.377
150.451
150.529
150.613
150.7
150.781
150.837
150.85
150.814
150.752
150.729
150.852
151.265
152.118
153.533
155.571
158.202
161.305
164.678
168.071
171.23
173.927
175.986
177.285
177.753
177.367
176.152
174.179
171.568
168.474
165.098
161.511
158.366
153.081
138.956
138.776
138.772
138.977
139.382
139.955
140.652
141.431
142.253
143.086
143.903
144.683
145.413
146.083
146.689
147.229
147.704
148.118
148.475
148.779
149.038
149.256
149.442
149.599
149.734
149.85
149.953
150.043
150.124
150.198
150.27
150.342
150.419
150.501
150.581
150.647
150.682
150.67
150.61
150.521
150.453
150.482
150.706
151.225
152.124
153.453
155.217
157.366
159.811
162.428
165.077
167.613
169.898
171.802
173.219
174.06
174.311
173.829
173.2
170.391
139.119
139.029
138.893
138.748
138.635
138.59
138.637
138.791
139.056
139.427
139.894
140.442
141.054
141.712
142.398
143.095
143.789
144.466
145.116
145.731
146.303
146.831
147.31
147.742
148.128
148.469
148.768
149.029
149.256
149.452
149.62
149.766
149.894
150.01
150.119
150.222
150.317
150.394
150.439
150.436
150.37
150.239
150.058
149.86
149.698
149.643
149.768
150.144
150.826
151.847
153.212
154.902
156.868
159.041
161.334
163.641
165.862
167.883
169.558
171.36
139.167
139.161
139.136
139.083
139.001
138.897
138.782
138.673
138.589
138.546
138.559
138.639
138.794
139.027
139.337
139.72
140.169
140.675
141.228
141.817
142.428
143.053
143.678
144.296
144.896
145.473
146.02
146.533
147.009
147.447
147.846
148.206
148.528
148.815
149.07
149.296
149.497
149.678
149.838
149.974
150.081
150.147
150.163
150.12
150.015
149.855
149.659
149.459
149.296
149.221
149.285
149.538
150.021
150.763
151.779
153.07
154.595
156.406
158.036
161.244
139.212
139.206
139.202
139.197
139.185
139.159
139.117
139.054
138.974
138.879
138.779
138.681
138.597
138.539
138.515
138.537
138.612
138.745
138.939
139.196
139.514
139.89
140.319
140.794
141.307
141.849
142.414
142.99
143.571
144.148
144.715
145.264
145.791
146.291
146.761
147.199
147.603
147.975
148.316
148.626
148.908
149.162
149.384
149.571
149.716
149.811
149.849
149.826
149.743
149.608
149.439
149.259
149.1
148.998
148.992
149.125
149.413
149.965
150.482
152.202
139.299
139.283
139.269
139.259
139.251
139.245
139.237
139.225
139.205
139.173
139.128
139.068
138.994
138.909
138.817
138.724
138.637
138.565
138.514
138.493
138.509
138.568
138.676
138.834
139.046
139.311
139.628
139.994
140.405
140.855
141.338
141.848
142.378
142.921
143.469
144.016
144.556
145.083
145.593
146.082
146.547
146.988
147.402
147.79
148.149
148.477
148.769
149.021
149.224
149.373
149.464
149.492
149.461
149.377
149.253
149.107
148.957
148.858
148.751
148.932
139.408
139.391
139.374
139.357
139.341
139.327
139.314
139.304
139.295
139.286
139.275
139.259
139.237
139.205
139.162
139.107
139.04
138.963
138.878
138.79
138.702
138.62
138.551
138.501
138.476
138.481
138.523
138.605
138.732
138.904
139.124
139.391
139.703
140.059
140.454
140.884
141.344
141.829
142.332
142.847
143.37
143.893
144.413
144.925
145.425
145.911
146.38
146.827
147.25
147.643
148.002
148.319
148.589
148.806
148.965
149.064
149.103
149.084
149.034
148.873
139.475
139.469
139.46
139.45
139.437
139.424
139.41
139.396
139.382
139.37
139.359
139.349
139.339
139.329
139.316
139.3
139.277
139.247
139.208
139.159
139.1
139.031
138.954
138.871
138.784
138.699
138.62
138.55
138.497
138.465
138.458
138.483
138.542
138.639
138.777
138.957
139.18
139.446
139.752
140.098
140.479
140.892
141.332
141.796
142.278
142.773
143.277
143.785
144.294
144.799
145.297
145.781
146.248
146.692
147.107
147.485
147.821
148.108
148.333
148.566
139.441
139.452
139.461
139.467
139.469
139.469
139.467
139.462
139.455
139.446
139.437
139.427
139.417
139.407
139.398
139.389
139.38
139.37
139.358
139.343
139.322
139.296
139.262
139.219
139.167
139.106
139.037
138.96
138.878
138.794
138.71
138.631
138.56
138.502
138.462
138.443
138.451
138.489
138.56
138.667
138.812
138.996
139.22
139.482
139.782
140.118
140.487
140.885
141.31
141.758
142.225
142.707
143.2
143.7
144.202
144.702
145.19
145.677
146.082
146.738
139.318
139.341
139.363
139.383
139.402
139.418
139.431
139.443
139.451
139.457
139.46
139.461
139.46
139.457
139.452
139.447
139.441
139.435
139.429
139.422
139.415
139.407
139.397
139.384
139.367
139.344
139.316
139.28
139.235
139.183
139.122
139.053
138.978
138.898
138.815
138.731
138.651
138.578
138.516
138.467
138.438
138.43
138.449
138.497
138.576
138.69
138.839
139.024
139.246
139.505
139.798
140.125
140.484
140.872
141.286
141.725
142.179
142.669
143.084
143.878
139.176
139.198
139.221
139.244
139.268
139.291
139.314
139.336
139.357
139.376
139.394
139.409
139.422
139.433
139.442
139.448
139.452
139.455
139.456
139.455
139.454
139.452
139.449
139.446
139.442
139.437
139.43
139.42
139.407
139.389
139.366
139.337
139.301
139.257
139.205
139.145
139.077
139.004
138.925
138.843
138.761
138.68
138.605
138.537
138.482
138.442
138.421
138.422
138.449
138.503
138.589
138.706
138.857
139.042
139.262
139.517
139.802
140.139
140.428
141.067
139.084
139.095
139.108
139.123
139.14
139.158
139.178
139.199
139.221
139.243
139.266
139.288
139.31
139.331
139.351
139.369
139.386
139.401
139.414
139.425
139.434
139.441
139.447
139.452
139.455
139.458
139.459
139.46
139.459
139.458
139.454
139.449
139.44
139.428
139.411
139.388
139.36
139.324
139.281
139.231
139.172
139.107
139.036
138.959
138.878
138.797
138.715
138.638
138.567
138.505
138.456
138.423
138.408
138.416
138.448
138.508
138.594
138.724
138.838
139.168
139.06
139.06
139.062
139.065
139.07
139.078
139.087
139.098
139.111
139.126
139.142
139.16
139.179
139.2
139.221
139.242
139.263
139.285
139.306
139.325
139.344
139.362
139.378
139.393
139.406
139.418
139.428
139.437
139.445
139.452
139.458
139.462
139.466
139.468
139.469
139.468
139.464
139.457
139.446
139.43
139.409
139.382
139.348
139.307
139.259
139.203
139.14
139.071
138.997
138.918
138.838
138.756
138.677
138.603
138.535
138.479
138.434
138.409
138.39
138.432
139.08
139.075
139.07
139.066
139.063
139.061
139.06
139.061
139.063
139.067
139.073
139.08
139.089
139.1
139.113
139.128
139.144
139.161
139.18
139.2
139.22
139.24
139.261
139.281
139.301
139.32
139.338
139.355
139.372
139.387
139.4
139.413
139.425
139.436
139.445
139.454
139.462
139.468
139.473
139.476
139.477
139.476
139.471
139.462
139.448
139.429
139.404
139.373
139.334
139.289
139.236
139.176
139.11
139.038
138.962
138.882
138.802
138.72
138.651
138.543
139.108
139.103
139.098
139.093
139.088
139.083
139.078
139.073
139.069
139.065
139.063
139.061
139.061
139.062
139.065
139.069
139.075
139.082
139.092
139.103
139.115
139.13
139.145
139.162
139.18
139.199
139.218
139.238
139.257
139.277
139.296
139.314
139.332
139.35
139.366
139.382
139.397
139.411
139.424
139.436
139.447
139.458
139.467
139.474
139.48
139.483
139.484
139.481
139.475
139.463
139.447
139.425
139.396
139.361
139.318
139.269
139.213
139.148
139.09
138.968
139.125
139.123
139.12
139.117
139.114
139.11
139.106
139.101
139.096
139.091
139.086
139.081
139.076
139.072
139.068
139.065
139.063
139.061
139.062
139.063
139.066
139.07
139.076
139.084
139.094
139.105
139.117
139.131
139.146
139.162
139.18
139.197
139.216
139.235
139.254
139.272
139.291
139.31
139.328
139.345
139.362
139.379
139.394
139.41
139.424
139.438
139.45
139.462
139.472
139.48
139.486
139.489
139.489
139.485
139.476
139.462
139.444
139.416
139.392
139.324
139.132
139.131
139.13
139.129
139.128
139.126
139.124
139.122
139.119
139.116
139.112
139.108
139.104
139.099
139.094
139.089
139.084
139.079
139.075
139.071
139.067
139.064
139.063
139.062
139.062
139.064
139.067
139.072
139.078
139.086
139.095
139.106
139.118
139.132
139.146
139.162
139.178
139.196
139.213
139.232
139.25
139.269
139.287
139.306
139.324
139.342
139.359
139.377
139.394
139.41
139.425
139.44
139.454
139.466
139.476
139.485
139.49
139.492
139.493
139.48
139.141
139.139
139.138
139.136
139.135
139.134
139.133
139.132
139.131
139.129
139.128
139.126
139.123
139.121
139.118
139.114
139.11
139.106
139.102
139.097
139.092
139.087
139.083
139.078
139.074
139.07
139.067
139.064
139.063
139.062
139.063
139.065
139.068
139.073
139.079
139.087
139.096
139.107
139.119
139.132
139.146
139.161
139.177
139.194
139.211
139.229
139.247
139.265
139.284
139.302
139.321
139.34
139.358
139.376
139.394
139.411
139.428
139.443
139.456
139.475
139.164
139.159
139.155
139.151
139.148
139.145
139.143
139.141
139.139
139.138
139.136
139.135
139.134
139.132
139.131
139.129
139.127
139.125
139.123
139.12
139.117
139.113
139.109
139.105
139.1
139.096
139.091
139.086
139.081
139.077
139.073
139.069
139.066
139.064
139.063
139.063
139.064
139.066
139.07
139.074
139.081
139.088
139.097
139.107
139.119
139.131
139.145
139.16
139.175
139.191
139.208
139.226
139.244
139.262
139.281
139.3
139.319
139.339
139.355
139.386
139.209
139.201
139.193
139.185
139.179
139.172
139.167
139.162
139.158
139.154
139.15
139.147
139.145
139.143
139.141
139.139
139.137
139.136
139.134
139.133
139.131
139.129
139.127
139.125
139.122
139.119
139.115
139.112
139.108
139.103
139.099
139.094
139.089
139.085
139.08
139.076
139.072
139.069
139.066
139.064
139.063
139.063
139.065
139.067
139.07
139.075
139.081
139.089
139.097
139.107
139.118
139.131
139.144
139.158
139.173
139.189
139.206
139.224
139.239
139.27
139.277
139.265
139.254
139.243
139.232
139.222
139.213
139.204
139.196
139.189
139.182
139.175
139.17
139.165
139.16
139.156
139.153
139.15
139.147
139.144
139.142
139.14
139.139
139.137
139.135
139.133
139.131
139.129
139.127
139.124
139.121
139.118
139.114
139.11
139.106
139.102
139.097
139.093
139.088
139.084
139.079
139.075
139.072
139.069
139.066
139.064
139.064
139.064
139.065
139.067
139.071
139.076
139.082
139.089
139.097
139.107
139.118
139.13
139.141
139.164
139.358
139.345
139.332
139.319
139.306
139.293
139.281
139.269
139.257
139.246
139.236
139.226
139.216
139.208
139.199
139.192
139.185
139.179
139.173
139.168
139.163
139.159
139.155
139.152
139.149
139.146
139.144
139.142
139.14
139.138
139.136
139.134
139.131
139.129
139.126
139.124
139.12
139.117
139.113
139.109
139.105
139.101
139.096
139.092
139.087
139.083
139.079
139.075
139.071
139.068
139.066
139.065
139.064
139.064
139.066
139.068
139.071
139.076
139.081
139.093
139.437
139.425
139.413
139.4
139.388
139.375
139.361
139.348
139.335
139.322
139.309
139.297
139.285
139.273
139.261
139.25
139.24
139.23
139.22
139.211
139.203
139.195
139.188
139.182
139.176
139.17
139.166
139.161
139.157
139.154
139.151
139.148
139.146
139.143
139.141
139.139
139.136
139.134
139.132
139.129
139.126
139.123
139.12
139.116
139.112
139.108
139.104
139.1
139.095
139.091
139.086
139.082
139.078
139.074
139.071
139.068
139.066
139.065
139.064
139.065
139.494
139.487
139.478
139.47
139.46
139.45
139.439
139.427
139.415
139.403
139.39
139.378
139.365
139.352
139.339
139.326
139.313
139.3
139.288
139.276
139.265
139.254
139.243
139.233
139.224
139.215
139.206
139.199
139.191
139.185
139.179
139.173
139.168
139.164
139.16
139.156
139.153
139.15
139.147
139.145
139.142
139.14
139.137
139.135
139.132
139.129
139.126
139.123
139.119
139.116
139.112
139.108
139.103
139.099
139.094
139.09
139.086
139.081
139.078
139.072
139.514
139.513
139.511
139.509
139.505
139.5
139.494
139.487
139.479
139.471
139.461
139.451
139.441
139.429
139.418
139.406
139.393
139.38
139.368
139.355
139.342
139.329
139.317
139.304
139.292
139.28
139.269
139.258
139.247
139.237
139.227
139.218
139.21
139.202
139.195
139.188
139.182
139.176
139.171
139.167
139.162
139.159
139.155
139.152
139.149
139.146
139.143
139.14
139.138
139.135
139.132
139.129
139.126
139.122
139.119
139.115
139.111
139.107
139.103
139.096
139.491
139.497
139.502
139.507
139.51
139.512
139.512
139.512
139.511
139.508
139.504
139.5
139.494
139.487
139.48
139.472
139.463
139.453
139.442
139.431
139.42
139.408
139.396
139.383
139.371
139.358
139.345
139.333
139.32
139.308
139.296
139.284
139.272
139.261
139.251
139.241
139.231
139.222
139.213
139.206
139.198
139.191
139.185
139.179
139.174
139.169
139.165
139.161
139.157
139.154
139.15
139.147
139.144
139.141
139.138
139.135
139.132
139.129
139.126
139.12
139.429
139.441
139.452
139.463
139.472
139.481
139.488
139.495
139.5
139.504
139.508
139.51
139.511
139.511
139.51
139.507
139.504
139.5
139.494
139.488
139.481
139.473
139.464
139.454
139.444
139.433
139.422
139.41
139.398
139.386
139.374
139.361
139.349
139.336
139.324
139.311
139.299
139.287
139.276
139.265
139.254
139.244
139.235
139.226
139.217
139.209
139.202
139.195
139.188
139.182
139.177
139.172
139.167
139.163
139.159
139.155
139.152
139.149
139.146
139.141
139.342
139.357
139.372
139.386
139.4
139.413
139.426
139.438
139.449
139.459
139.469
139.478
139.485
139.492
139.498
139.502
139.506
139.508
139.509
139.509
139.509
139.507
139.503
139.499
139.494
139.488
139.481
139.473
139.465
139.456
139.446
139.435
139.424
139.413
139.401
139.389
139.377
139.364
139.352
139.339
139.327
139.315
139.303
139.291
139.28
139.269
139.258
139.248
139.238
139.229
139.221
139.212
139.205
139.198
139.191
139.185
139.18
139.174
139.17
139.163
139.246
139.262
139.277
139.292
139.308
139.323
139.338
139.353
139.368
139.382
139.396
139.41
139.422
139.434
139.446
139.456
139.466
139.475
139.483
139.49
139.495
139.5
139.504
139.506
139.508
139.508
139.507
139.506
139.503
139.499
139.494
139.488
139.482
139.474
139.466
139.457
139.447
139.437
139.426
139.415
139.403
139.392
139.379
139.367
139.355
139.343
139.33
139.318
139.306
139.295
139.283
139.272
139.262
139.252
139.242
139.233
139.224
139.216
139.209
139.198
139.159
139.172
139.185
139.199
139.214
139.228
139.243
139.258
139.274
139.289
139.304
139.32
139.335
139.35
139.365
139.379
139.393
139.406
139.419
139.431
139.443
139.453
139.463
139.472
139.48
139.487
139.493
139.498
139.502
139.505
139.506
139.507
139.506
139.505
139.502
139.499
139.494
139.489
139.482
139.475
139.467
139.458
139.449
139.439
139.428
139.417
139.406
139.394
139.382
139.37
139.358
139.346
139.334
139.322
139.31
139.298
139.287
139.276
139.267
139.251
139.09
139.1
139.11
139.121
139.132
139.144
139.156
139.169
139.183
139.196
139.211
139.225
139.24
139.255
139.27
139.286
139.301
139.316
139.332
139.347
139.361
139.376
139.389
139.403
139.416
139.428
139.439
139.45
139.46
139.469
139.477
139.484
139.491
139.496
139.5
139.503
139.505
139.506
139.505
139.504
139.502
139.498
139.494
139.489
139.483
139.476
139.468
139.459
139.45
139.44
139.43
139.419
139.408
139.397
139.385
139.373
139.361
139.349
139.338
139.319
139.046
139.051
139.057
139.064
139.072
139.08
139.088
139.098
139.108
139.118
139.129
139.141
139.154
139.166
139.18
139.194
139.208
139.222
139.237
139.252
139.267
139.282
139.298
139.313
139.328
139.343
139.358
139.372
139.386
139.399
139.412
139.425
139.436
139.447
139.457
139.466
139.474
139.482
139.488
139.493
139.498
139.501
139.503
139.504
139.504
139.503
139.501
139.498
139.494
139.489
139.483
139.476
139.469
139.461
139.452
139.442
139.432
139.421
139.412
139.393
139.024
139.026
139.029
139.032
139.036
139.04
139.044
139.05
139.056
139.063
139.07
139.078
139.086
139.096
139.106
139.116
139.127
139.139
139.151
139.164
139.177
139.191
139.205
139.219
139.234
139.249
139.264
139.279
139.294
139.31
139.325
139.34
139.354
139.369
139.383
139.396
139.409
139.421
139.433
139.444
139.454
139.463
139.472
139.479
139.486
139.491
139.496
139.499
139.501
139.503
139.503
139.502
139.5
139.498
139.494
139.489
139.483
139.477
139.471
139.457
139.022
139.021
139.021
139.021
139.021
139.022
139.024
139.026
139.028
139.031
139.034
139.039
139.043
139.048
139.054
139.061
139.068
139.076
139.085
139.094
139.103
139.114
139.125
139.136
139.149
139.161
139.174
139.188
139.202
139.216
139.231
139.246
139.261
139.276
139.291
139.306
139.321
139.336
139.351
139.365
139.379
139.393
139.406
139.418
139.43
139.441
139.451
139.46
139.469
139.476
139.483
139.489
139.493
139.497
139.5
139.501
139.502
139.501
139.5
139.495
139.032
139.029
139.027
139.025
139.024
139.023
139.021
139.021
139.02
139.02
139.021
139.022
139.023
139.025
139.027
139.03
139.033
139.037
139.042
139.047
139.053
139.059
139.067
139.074
139.083
139.092
139.101
139.112
139.123
139.134
139.146
139.159
139.172
139.185
139.199
139.213
139.228
139.243
139.258
139.273
139.288
139.303
139.318
139.333
139.347
139.362
139.376
139.389
139.402
139.415
139.426
139.438
139.448
139.457
139.466
139.474
139.481
139.486
139.491
139.496
139.05
139.047
139.043
139.04
139.037
139.035
139.032
139.03
139.027
139.026
139.024
139.022
139.021
139.02
139.02
139.02
139.02
139.021
139.022
139.024
139.026
139.029
139.032
139.036
139.041
139.046
139.052
139.058
139.065
139.073
139.081
139.09
139.099
139.109
139.12
139.132
139.144
139.156
139.169
139.182
139.196
139.21
139.225
139.239
139.254
139.269
139.284
139.299
139.314
139.329
139.344
139.358
139.372
139.386
139.399
139.411
139.423
139.435
139.444
139.459
139.073
139.069
139.065
139.062
139.058
139.054
139.051
139.047
139.044
139.041
139.038
139.035
139.032
139.03
139.028
139.026
139.024
139.022
139.021
139.02
139.02
139.02
139.02
139.021
139.022
139.023
139.025
139.028
139.031
139.035
139.04
139.045
139.05
139.056
139.063
139.071
139.079
139.088
139.097
139.107
139.118
139.129
139.141
139.153
139.166
139.18
139.193
139.207
139.222
139.236
139.251
139.266
139.281
139.296
139.311
139.326
139.34
139.355
139.367
139.389
139.1
139.096
139.091
139.087
139.083
139.078
139.074
139.07
139.066
139.062
139.059
139.055
139.051
139.048
139.045
139.041
139.038
139.035
139.033
139.03
139.028
139.026
139.024
139.022
139.021
139.02
139.019
139.019
139.019
139.02
139.021
139.023
139.025
139.027
139.03
139.034
139.038
139.043
139.049
139.055
139.062
139.069
139.077
139.086
139.095
139.105
139.116
139.127
139.139
139.151
139.164
139.177
139.19
139.204
139.219
139.233
139.248
139.263
139.276
139.3
139.13
139.125
139.12
139.116
139.111
139.106
139.101
139.097
139.092
139.088
139.084
139.079
139.075
139.071
139.067
139.063
139.059
139.056
139.052
139.049
139.045
139.042
139.039
139.036
139.033
139.03
139.028
139.026
139.024
139.022
139.021
139.02
139.019
139.019
139.019
139.019
139.02
139.022
139.024
139.026
139.029
139.033
139.037
139.042
139.047
139.053
139.06
139.067
139.075
139.084
139.093
139.103
139.114
139.125
139.136
139.148
139.161
139.174
139.186
139.209
139.164
139.159
139.153
139.148
139.142
139.137
139.132
139.127
139.122
139.117
139.112
139.107
139.103
139.098
139.094
139.089
139.085
139.081
139.076
139.072
139.068
139.064
139.06
139.056
139.053
139.049
139.046
139.042
139.039
139.036
139.033
139.031
139.028
139.026
139.024
139.022
139.021
139.02
139.019
139.018
139.019
139.019
139.02
139.021
139.023
139.025
139.028
139.032
139.036
139.041
139.046
139.052
139.059
139.066
139.074
139.082
139.091
139.101
139.11
139.128
139.201
139.195
139.189
139.183
139.177
139.172
139.166
139.16
139.155
139.149
139.144
139.139
139.134
139.128
139.123
139.119
139.114
139.109
139.104
139.1
139.095
139.09
139.086
139.082
139.077
139.073
139.069
139.065
139.061
139.057
139.054
139.05
139.046
139.043
139.04
139.037
139.034
139.031
139.028
139.026
139.024
139.022
139.021
139.019
139.019
139.018
139.018
139.018
139.019
139.021
139.022
139.025
139.027
139.031
139.035
139.04
139.045
139.051
139.056
139.068
139.239
139.233
139.227
139.221
139.215
139.209
139.203
139.197
139.191
139.185
139.179
139.173
139.168
139.162
139.157
139.151
139.146
139.14
139.135
139.13
139.125
139.12
139.115
139.11
139.106
139.101
139.096
139.092
139.087
139.083
139.079
139.074
139.07
139.066
139.062
139.058
139.054
139.051
139.047
139.043
139.04
139.037
139.034
139.031
139.029
139.026
139.024
139.022
139.021
139.019
139.018
139.018
139.018
139.018
139.019
139.02
139.022
139.024
139.026
139.032
139.278
139.272
139.266
139.26
139.254
139.247
139.241
139.235
139.229
139.223
139.217
139.211
139.205
139.199
139.193
139.187
139.181
139.175
139.169
139.164
139.158
139.153
139.147
139.142
139.137
139.132
139.127
139.122
139.117
139.112
139.107
139.102
139.098
139.093
139.088
139.084
139.08
139.075
139.071
139.067
139.063
139.059
139.055
139.051
139.048
139.044
139.041
139.037
139.034
139.031
139.029
139.026
139.024
139.022
139.021
139.019
139.018
139.018
139.017
139.018
139.313
139.308
139.302
139.297
139.291
139.285
139.279
139.273
139.267
139.261
139.255
139.249
139.243
139.237
139.231
139.225
139.219
139.212
139.206
139.2
139.194
139.189
139.183
139.177
139.171
139.166
139.16
139.155
139.149
139.144
139.138
139.133
139.128
139.123
139.118
139.113
139.108
139.104
139.099
139.094
139.09
139.085
139.081
139.076
139.072
139.068
139.064
139.06
139.056
139.052
139.048
139.045
139.041
139.038
139.035
139.032
139.029
139.027
139.024
139.021
139.343
139.339
139.334
139.33
139.325
139.32
139.315
139.309
139.304
139.298
139.293
139.287
139.281
139.275
139.269
139.263
139.257
139.251
139.245
139.239
139.233
139.226
139.22
139.214
139.208
139.202
139.196
139.19
139.185
139.179
139.173
139.167
139.162
139.156
139.151
139.145
139.14
139.135
139.13
139.125
139.12
139.115
139.11
139.105
139.1
139.096
139.091
139.086
139.082
139.078
139.073
139.069
139.065
139.061
139.057
139.053
139.049
139.045
139.042
139.037
139.363
139.361
139.358
139.355
139.351
139.348
139.344
139.34
139.335
139.331
139.326
139.321
139.316
139.311
139.305
139.3
139.294
139.289
139.283
139.277
139.271
139.265
139.259
139.253
139.247
139.241
139.234
139.228
139.222
139.216
139.21
139.204
139.198
139.192
139.186
139.181
139.175
139.169
139.164
139.158
139.153
139.147
139.142
139.137
139.131
139.126
139.121
139.116
139.111
139.106
139.102
139.097
139.092
139.088
139.083
139.079
139.074
139.07
139.066
139.06
139.373
139.372
139.371
139.37
139.368
139.366
139.364
139.361
139.358
139.355
139.352
139.349
139.345
139.341
139.336
139.332
139.327
139.322
139.317
139.312
139.307
139.301
139.296
139.29
139.284
139.279
139.273
139.267
139.261
139.255
139.248
139.242
139.236
139.23
139.224
139.218
139.212
139.206
139.2
139.194
139.188
139.182
139.177
139.171
139.165
139.16
139.154
139.149
139.143
139.138
139.133
139.128
139.123
139.118
139.113
139.108
139.103
139.098
139.094
139.087
139.374
139.374
139.374
139.374
139.374
139.374
139.373
139.372
139.371
139.37
139.368
139.366
139.364
139.362
139.359
139.356
139.353
139.349
139.346
139.342
139.337
139.333
139.329
139.324
139.319
139.314
139.308
139.303
139.297
139.292
139.286
139.28
139.274
139.268
139.262
139.256
139.25
139.244
139.238
139.232
139.226
139.22
139.214
139.208
139.202
139.196
139.19
139.184
139.178
139.173
139.167
139.161
139.156
139.151
139.145
139.14
139.135
139.129
139.125
139.117
139.369
139.37
139.371
139.372
139.372
139.373
139.374
139.374
139.374
139.374
139.374
139.374
139.373
139.373
139.371
139.37
139.369
139.367
139.365
139.362
139.36
139.357
139.354
139.35
139.347
139.343
139.339
139.334
139.33
139.325
139.32
139.315
139.31
139.304
139.299
139.293
139.288
139.282
139.276
139.27
139.264
139.258
139.252
139.246
139.24
139.234
139.228
139.222
139.216
139.21
139.204
139.198
139.192
139.186
139.18
139.174
139.169
139.163
139.158
139.15
139.363
139.364
139.365
139.366
139.367
139.368
139.369
139.37
139.371
139.372
139.372
139.373
139.374
139.374
139.374
139.374
139.374
139.374
139.373
139.373
139.372
139.37
139.369
139.367
139.365
139.363
139.36
139.357
139.354
139.351
139.347
139.344
139.34
139.335
139.331
139.326
139.321
139.316
139.311
139.306
139.3
139.295
139.289
139.284
139.278
139.272
139.266
139.26
139.254
139.248
139.242
139.236
139.23
139.224
139.218
139.211
139.206
139.199
139.194
139.185
139.357
139.358
139.359
139.36
139.361
139.362
139.363
139.364
139.365
139.366
139.367
139.368
139.369
139.37
139.371
139.372
139.373
139.373
139.374
139.374
139.374
139.374
139.374
139.374
139.374
139.373
139.372
139.371
139.369
139.367
139.365
139.363
139.361
139.358
139.355
139.352
139.348
139.344
139.34
139.336
139.332
139.327
139.323
139.318
139.313
139.307
139.302
139.296
139.291
139.285
139.279
139.274
139.268
139.262
139.256
139.25
139.244
139.237
139.232
139.222
139.345
139.348
139.35
139.352
139.353
139.355
139.356
139.358
139.359
139.36
139.361
139.362
139.363
139.364
139.365
139.366
139.367
139.368
139.369
139.37
139.371
139.372
139.373
139.373
139.374
139.374
139.374
139.375
139.374
139.374
139.374
139.373
139.372
139.371
139.369
139.368
139.366
139.364
139.361
139.359
139.356
139.352
139.349
139.345
139.341
139.337
139.333
139.329
139.324
139.319
139.314
139.309
139.303
139.298
139.292
139.287
139.281
139.275
139.27
139.26
139.32
139.325
139.33
139.334
139.338
139.341
139.344
139.346
139.349
139.351
139.353
139.354
139.356
139.357
139.359
139.36
139.361
139.362
139.363
139.364
139.365
139.366
139.368
139.369
139.369
139.37
139.371
139.372
139.373
139.373
139.374
139.374
139.375
139.375
139.375
139.374
139.374
139.373
139.372
139.371
139.37
139.368
139.366
139.364
139.362
139.359
139.356
139.353
139.35
139.346
139.342
139.338
139.334
139.33
139.325
139.32
139.315
139.31
139.306
139.297
139.278
139.285
139.293
139.3
139.306
139.312
139.318
139.323
139.328
139.332
139.336
139.339
139.342
139.345
139.347
139.35
139.352
139.354
139.355
139.357
139.358
139.36
139.361
139.362
139.363
139.364
139.366
139.367
139.368
139.369
139.37
139.371
139.371
139.372
139.373
139.374
139.374
139.374
139.375
139.375
139.375
139.374
139.374
139.373
139.372
139.371
139.37
139.368
139.367
139.365
139.362
139.36
139.357
139.354
139.351
139.347
139.343
139.339
139.336
139.328
139.22
139.23
139.239
139.249
139.258
139.266
139.275
139.282
139.29
139.297
139.303
139.31
139.315
139.32
139.325
139.33
139.334
139.337
139.341
139.344
139.346
139.349
139.351
139.353
139.355
139.356
139.358
139.359
139.361
139.362
139.363
139.364
139.366
139.367
139.368
139.369
139.37
139.371
139.372
139.372
139.373
139.374
139.374
139.375
139.375
139.375
139.375
139.375
139.374
139.374
139.373
139.372
139.37
139.369
139.367
139.365
139.363
139.36
139.358
139.353
139.156
139.167
139.177
139.187
139.197
139.207
139.217
139.227
139.237
139.246
139.255
139.263
139.272
139.28
139.287
139.294
139.301
139.307
139.313
139.318
139.323
139.327
139.332
139.335
139.339
139.342
139.345
139.347
139.35
139.352
139.354
139.356
139.357
139.359
139.36
139.362
139.363
139.364
139.365
139.367
139.368
139.369
139.37
139.371
139.372
139.372
139.373
139.374
139.374
139.375
139.375
139.375
139.375
139.375
139.374
139.374
139.373
139.372
139.371
139.368
139.093
139.103
139.114
139.124
139.134
139.144
139.154
139.165
139.175
139.185
139.195
139.205
139.215
139.225
139.234
139.244
139.252
139.261
139.269
139.277
139.285
139.292
139.299
139.305
139.311
139.316
139.321
139.326
139.33
139.334
139.338
139.341
139.344
139.347
139.349
139.352
139.354
139.356
139.357
139.359
139.361
139.362
139.363
139.365
139.366
139.367
139.368
139.369
139.37
139.371
139.372
139.373
139.374
139.374
139.375
139.375
139.375
139.375
139.375
139.375
139.027
139.038
139.049
139.059
139.069
139.08
139.09
139.1
139.11
139.12
139.13
139.141
139.151
139.161
139.171
139.181
139.191
139.201
139.21
139.22
139.229
139.238
139.247
139.256
139.264
139.272
139.279
139.287
139.293
139.3
139.306
139.311
139.317
139.321
139.326
139.33
139.334
139.337
139.34
139.343
139.346
139.348
139.351
139.353
139.355
139.356
139.358
139.36
139.361
139.363
139.364
139.365
139.366
139.368
139.369
139.37
139.371
139.372
139.372
139.373
138.949
138.963
138.977
138.99
139.003
139.016
139.028
139.04
139.052
139.063
139.075
139.086
139.096
139.107
139.118
139.128
139.139
139.149
139.159
139.169
139.18
139.19
139.199
139.209
139.219
139.228
139.237
139.246
139.255
139.263
139.272
139.279
139.287
139.294
139.301
139.307
139.313
139.318
139.323
139.328
139.333
139.337
139.34
139.344
139.347
139.35
139.352
139.355
139.357
139.359
139.36
139.362
139.364
139.365
139.366
139.368
139.369
139.37
139.371
139.372
138.832
138.843
138.854
138.866
138.878
138.891
138.903
138.915
138.928
138.94
138.953
138.965
138.977
138.989
139.001
139.012
139.024
139.036
139.047
139.058
139.069
139.08
139.091
139.102
139.113
139.124
139.134
139.145
139.155
139.166
139.176
139.186
139.195
139.205
139.214
139.223
139.232
139.241
139.249
139.257
139.265
139.272
139.279
139.286
139.292
139.298
139.304
139.309
139.314
139.319
139.323
139.328
139.331
139.335
139.338
139.341
139.344
139.347
139.349
139.353
)
;

boundaryField
{
    bottomwall
    {
        type            opaque;
        refValue        nonuniform List<scalar> 
60
(
143.312
145.501
146.741
147.505
148.003
148.343
148.585
148.768
148.912
149.034
149.145
149.25
149.351
149.447
149.541
149.631
149.722
149.814
149.907
150.003
150.1
150.197
150.291
150.378
150.459
150.534
150.611
150.698
150.8
150.908
150.993
151.014
150.932
150.751
150.547
150.487
150.815
151.8
153.663
156.498
160.224
164.578
169.15
173.468
177.088
179.691
181.121
181.363
180.486
178.602
175.838
172.347
168.323
164.009
159.674
155.578
151.904
148.71
145.812
142.59
)
;
        refGradient     uniform 0;
        valueFraction   uniform 1;