/*--------------------------------*- C++ -*----------------------------------*\
| =========                 |                                                 |
| \\      /  F ield         | OpenFOAM: The Open Source CFD Toolbox           |
|  \\    /   O peration     | Version:  2406                                  |
|   \\  /    A nd           | Website:  www.openfoam.com                      |
|    \\/     M anipulation  |                                                 |
\*---------------------------------------------------------------------------*/
FoamFile
{
    version     2.0;
    format      ascii;
    arch        "LSB;label=32;scalar=64";
    class       volScalarField;
    location    "5000";
    object      ILambda_14_0;
}
// * * * * * * * * * * * * * * * * * * * * * * * * * * * * * * * * * * * * * //

dimensions      [1 0 -3 0 0 0 0];

internalField   nonuniform List<scalar> 
3600
(
139.742
139.763
139.773
139.786
139.798
139.81
139.821
139.831
139.84
139.848
139.855
139.86
139.864
139.866
139.867
139.865
139.862
139.857
139.849
139.839
139.827
139.813
139.797
139.778
139.758
139.735
139.71
139.683
139.654
139.624
139.591
139.558
139.522
139.485
139.447
139.408
139.367
139.326
139.283
139.24
139.196
139.15
139.105
139.058
139.011
138.964
138.916
138.868
138.82
138.772
138.725
138.68
138.636
138.594
138.555
138.52
138.49
138.465
138.447
138.437
139.623
139.64
139.651
139.663
139.677
139.691
139.706
139.721
139.737
139.754
139.77
139.786
139.803
139.819
139.834
139.849
139.863
139.876
139.888
139.898
139.907
139.914
139.918
139.921
139.922
139.92
139.916
139.91
139.901
139.89
139.876
139.86
139.842
139.821
139.798
139.773
139.746
139.717
139.686
139.654
139.62
139.585
139.548
139.51
139.47
139.429
139.387
139.343
139.297
139.25
139.2
139.148
139.094
139.037
138.978
138.915
138.85
138.782
138.711
138.638
139.587
139.594
139.599
139.605
139.612
139.619
139.628
139.638
139.648
139.659
139.671
139.684
139.698
139.712
139.726
139.741
139.756
139.771
139.786
139.801
139.816
139.829
139.842
139.854
139.865
139.874
139.882
139.888
139.892
139.895
139.895
139.892
139.888
139.88
139.871
139.859
139.844
139.827
139.808
139.787
139.763
139.738
139.711
139.682
139.652
139.621
139.588
139.555
139.521
139.487
139.452
139.417
139.381
139.345
139.308
139.271
139.233
139.193
139.153
139.11
139.573
139.574
139.575
139.577
139.58
139.583
139.586
139.591
139.596
139.602
139.609
139.617
139.626
139.636
139.647
139.658
139.671
139.684
139.698
139.712
139.727
139.743
139.759
139.775
139.79
139.806
139.821
139.836
139.85
139.863
139.875
139.885
139.894
139.901
139.906
139.909
139.91
139.908
139.904
139.897
139.887
139.875
139.86
139.843
139.823
139.8
139.775
139.748
139.719
139.688
139.656
139.622
139.587
139.55
139.514
139.476
139.439
139.401
139.363
139.325
139.574
139.573
139.573
139.572
139.572
139.572
139.572
139.572
139.573
139.574
139.576
139.579
139.582
139.586
139.591
139.597
139.604
139.611
139.62
139.629
139.64
139.651
139.663
139.677
139.69
139.705
139.72
139.736
139.752
139.768
139.785
139.801
139.817
139.832
139.847
139.861
139.873
139.885
139.895
139.903
139.909
139.913
139.915
139.914
139.911
139.905
139.897
139.886
139.872
139.855
139.835
139.813
139.789
139.762
139.733
139.702
139.669
139.635
139.6
139.563
139.576
139.577
139.576
139.576
139.576
139.575
139.574
139.574
139.573
139.572
139.571
139.571
139.571
139.571
139.572
139.573
139.574
139.577
139.58
139.583
139.588
139.593
139.6
139.607
139.615
139.625
139.635
139.646
139.659
139.672
139.686
139.7
139.716
139.731
139.748
139.764
139.781
139.798
139.814
139.83
139.845
139.86
139.873
139.885
139.896
139.905
139.912
139.917
139.919
139.919
139.917
139.912
139.904
139.893
139.879
139.863
139.843
139.821
139.796
139.769
139.567
139.571
139.572
139.574
139.575
139.576
139.577
139.577
139.577
139.576
139.576
139.575
139.574
139.573
139.572
139.572
139.571
139.57
139.57
139.57
139.57
139.571
139.572
139.574
139.577
139.58
139.584
139.59
139.596
139.603
139.611
139.62
139.63
139.641
139.653
139.666
139.68
139.695
139.71
139.726
139.743
139.76
139.777
139.794
139.811
139.828
139.844
139.859
139.873
139.886
139.898
139.908
139.916
139.921
139.925
139.926
139.925
139.92
139.913
139.903
139.545
139.552
139.555
139.559
139.562
139.565
139.568
139.571
139.573
139.574
139.575
139.576
139.577
139.577
139.577
139.577
139.576
139.575
139.574
139.573
139.572
139.571
139.57
139.569
139.569
139.568
139.568
139.569
139.57
139.572
139.574
139.577
139.581
139.586
139.591
139.598
139.606
139.615
139.625
139.635
139.647
139.66
139.674
139.689
139.705
139.721
139.738
139.755
139.772
139.79
139.808
139.825
139.841
139.857
139.872
139.886
139.899
139.909
139.918
139.925
139.513
139.522
139.526
139.532
139.537
139.542
139.546
139.551
139.555
139.559
139.562
139.565
139.568
139.57
139.573
139.574
139.576
139.577
139.577
139.578
139.577
139.577
139.577
139.576
139.575
139.574
139.572
139.571
139.57
139.569
139.568
139.567
139.567
139.567
139.568
139.569
139.571
139.574
139.577
139.582
139.587
139.594
139.601
139.61
139.619
139.63
139.642
139.655
139.668
139.683
139.699
139.715
139.732
139.75
139.768
139.786
139.804
139.822
139.839
139.856
139.476
139.485
139.491
139.497
139.502
139.508
139.514
139.52
139.525
139.531
139.536
139.541
139.545
139.55
139.554
139.558
139.562
139.565
139.568
139.57
139.573
139.574
139.576
139.577
139.578
139.578
139.578
139.578
139.577
139.576
139.575
139.574
139.572
139.571
139.57
139.568
139.567
139.566
139.566
139.566
139.566
139.567
139.569
139.571
139.574
139.578
139.583
139.589
139.596
139.605
139.614
139.624
139.636
139.649
139.663
139.677
139.693
139.71
139.727
139.745
139.44
139.449
139.454
139.46
139.465
139.471
139.477
139.483
139.489
139.495
139.501
139.507
139.513
139.518
139.524
139.529
139.535
139.54
139.545
139.549
139.553
139.558
139.561
139.565
139.568
139.57
139.573
139.575
139.576
139.577
139.578
139.578
139.578
139.578
139.577
139.577
139.575
139.574
139.573
139.571
139.57
139.568
139.567
139.566
139.565
139.564
139.564
139.565
139.566
139.568
139.571
139.574
139.579
139.585
139.591
139.599
139.608
139.619
139.63
139.643
139.41
139.417
139.421
139.426
139.431
139.436
139.441
139.447
139.452
139.458
139.464
139.47
139.475
139.481
139.487
139.493
139.499
139.505
139.511
139.517
139.523
139.528
139.533
139.539
139.544
139.548
139.553
139.557
139.561
139.564
139.567
139.57
139.573
139.575
139.576
139.578
139.578
139.579
139.579
139.579
139.578
139.577
139.576
139.575
139.573
139.571
139.57
139.568
139.566
139.565
139.564
139.563
139.563
139.563
139.564
139.565
139.567
139.571
139.575
139.58
139.386
139.391
139.394
139.398
139.402
139.406
139.41
139.415
139.419
139.424
139.429
139.434
139.44
139.445
139.451
139.456
139.462
139.468
139.474
139.48
139.486
139.492
139.498
139.504
139.51
139.515
139.521
139.527
139.532
139.538
139.543
139.547
139.552
139.556
139.56
139.564
139.567
139.57
139.573
139.575
139.577
139.578
139.579
139.579
139.58
139.579
139.579
139.578
139.577
139.575
139.573
139.572
139.57
139.568
139.566
139.564
139.563
139.562
139.561
139.561
139.368
139.372
139.374
139.377
139.38
139.383
139.386
139.389
139.393
139.397
139.401
139.405
139.409
139.413
139.418
139.423
139.428
139.433
139.438
139.443
139.449
139.454
139.46
139.466
139.472
139.478
139.484
139.49
139.496
139.502
139.508
139.514
139.52
139.525
139.531
139.536
139.542
139.547
139.551
139.556
139.56
139.564
139.567
139.57
139.573
139.575
139.577
139.578
139.579
139.58
139.58
139.58
139.579
139.579
139.577
139.576
139.574
139.572
139.57
139.568
139.356
139.358
139.36
139.362
139.364
139.366
139.368
139.371
139.373
139.376
139.379
139.382
139.385
139.388
139.392
139.395
139.399
139.403
139.407
139.412
139.416
139.421
139.426
139.431
139.436
139.442
139.447
139.453
139.458
139.464
139.47
139.476
139.482
139.488
139.494
139.5
139.506
139.512
139.518
139.524
139.53
139.535
139.54
139.546
139.55
139.555
139.559
139.563
139.567
139.57
139.573
139.575
139.577
139.579
139.58
139.581
139.581
139.581
139.58
139.579
139.346
139.348
139.35
139.351
139.353
139.354
139.356
139.358
139.359
139.361
139.363
139.365
139.367
139.37
139.372
139.375
139.378
139.38
139.384
139.387
139.39
139.394
139.398
139.402
139.406
139.41
139.415
139.419
139.424
139.429
139.435
139.44
139.445
139.451
139.457
139.463
139.468
139.474
139.481
139.487
139.493
139.499
139.505
139.511
139.517
139.523
139.528
139.534
139.539
139.545
139.549
139.554
139.558
139.563
139.566
139.57
139.573
139.575
139.577
139.579
139.337
139.339
139.341
139.342
139.344
139.345
139.346
139.348
139.349
139.351
139.352
139.354
139.355
139.357
139.359
139.36
139.362
139.364
139.366
139.369
139.371
139.374
139.376
139.379
139.382
139.386
139.389
139.393
139.396
139.4
139.404
139.409
139.413
139.418
139.423
139.428
139.433
139.438
139.444
139.449
139.455
139.461
139.467
139.473
139.479
139.485
139.491
139.497
139.503
139.509
139.515
139.521
139.527
139.533
139.538
139.543
139.548
139.553
139.558
139.562
139.326
139.329
139.331
139.333
139.334
139.336
139.337
139.339
139.34
139.342
139.343
139.344
139.346
139.347
139.349
139.35
139.351
139.353
139.354
139.356
139.358
139.36
139.361
139.363
139.366
139.368
139.37
139.373
139.375
139.378
139.381
139.384
139.388
139.391
139.395
139.399
139.403
139.407
139.412
139.416
139.421
139.426
139.431
139.436
139.442
139.447
139.453
139.459
139.465
139.471
139.477
139.483
139.489
139.495
139.502
139.508
139.514
139.52
139.526
139.531
139.313
139.316
139.318
139.321
139.323
139.325
139.327
139.329
139.33
139.332
139.334
139.335
139.337
139.338
139.34
139.341
139.343
139.344
139.345
139.347
139.348
139.349
139.351
139.352
139.354
139.355
139.357
139.359
139.361
139.363
139.365
139.367
139.369
139.372
139.374
139.377
139.38
139.383
139.386
139.39
139.394
139.397
139.401
139.406
139.41
139.415
139.419
139.424
139.429
139.435
139.44
139.446
139.451
139.457
139.463
139.469
139.475
139.481
139.487
139.494
139.296
139.301
139.303
139.306
139.308
139.311
139.313
139.316
139.318
139.32
139.322
139.324
139.326
139.328
139.33
139.332
139.333
139.335
139.336
139.338
139.339
139.341
139.342
139.343
139.345
139.346
139.347
139.349
139.35
139.352
139.353
139.355
139.356
139.358
139.36
139.362
139.364
139.366
139.368
139.371
139.373
139.376
139.379
139.382
139.385
139.389
139.392
139.396
139.4
139.404
139.409
139.413
139.418
139.423
139.428
139.433
139.438
139.444
139.45
139.455
139.278
139.283
139.285
139.288
139.291
139.294
139.297
139.3
139.302
139.305
139.308
139.31
139.313
139.315
139.317
139.32
139.322
139.324
139.326
139.328
139.329
139.331
139.333
139.334
139.336
139.337
139.339
139.34
139.342
139.343
139.344
139.346
139.347
139.348
139.35
139.351
139.352
139.354
139.355
139.357
139.359
139.361
139.363
139.365
139.367
139.37
139.372
139.375
139.378
139.381
139.384
139.387
139.391
139.395
139.399
139.403
139.407
139.411
139.416
139.421
139.261
139.265
139.267
139.27
139.273
139.276
139.279
139.282
139.285
139.288
139.29
139.293
139.296
139.299
139.302
139.304
139.307
139.31
139.312
139.314
139.317
139.319
139.321
139.323
139.325
139.327
139.329
139.331
139.332
139.334
139.335
139.337
139.338
139.34
139.341
139.342
139.344
139.345
139.346
139.348
139.349
139.35
139.352
139.353
139.355
139.356
139.358
139.36
139.362
139.364
139.366
139.369
139.371
139.374
139.377
139.38
139.383
139.386
139.39
139.393
139.245
139.249
139.251
139.253
139.256
139.258
139.261
139.264
139.267
139.269
139.272
139.275
139.278
139.281
139.284
139.287
139.29
139.293
139.296
139.298
139.301
139.304
139.306
139.309
139.312
139.314
139.316
139.319
139.321
139.323
139.325
139.327
139.328
139.33
139.332
139.333
139.335
139.336
139.338
139.339
139.341
139.342
139.343
139.344
139.346
139.347
139.348
139.35
139.351
139.353
139.354
139.356
139.357
139.359
139.361
139.363
139.365
139.368
139.37
139.373
139.233
139.235
139.237
139.239
139.241
139.243
139.245
139.248
139.25
139.252
139.255
139.258
139.26
139.263
139.266
139.269
139.271
139.274
139.277
139.28
139.283
139.286
139.289
139.292
139.295
139.298
139.3
139.303
139.306
139.308
139.311
139.313
139.316
139.318
139.32
139.322
139.324
139.326
139.328
139.33
139.331
139.333
139.335
139.336
139.337
139.339
139.34
139.341
139.343
139.344
139.345
139.346
139.348
139.349
139.35
139.352
139.353
139.355
139.357
139.358
139.223
139.225
139.226
139.228
139.229
139.231
139.233
139.234
139.236
139.238
139.24
139.242
139.245
139.247
139.249
139.252
139.254
139.257
139.259
139.262
139.265
139.268
139.271
139.274
139.276
139.279
139.282
139.285
139.288
139.291
139.294
139.297
139.3
139.303
139.305
139.308
139.31
139.313
139.315
139.317
139.32
139.322
139.324
139.326
139.328
139.329
139.331
139.333
139.334
139.336
139.337
139.338
139.34
139.341
139.342
139.343
139.345
139.346
139.347
139.348
139.216
139.217
139.218
139.22
139.221
139.222
139.223
139.225
139.226
139.227
139.229
139.23
139.232
139.234
139.236
139.237
139.239
139.242
139.244
139.246
139.248
139.251
139.253
139.256
139.259
139.261
139.264
139.267
139.27
139.273
139.276
139.279
139.282
139.285
139.288
139.291
139.293
139.296
139.299
139.302
139.305
139.307
139.31
139.312
139.315
139.317
139.319
139.321
139.323
139.325
139.327
139.329
139.331
139.332
139.334
139.335
139.336
139.338
139.339
139.34
139.208
139.21
139.211
139.212
139.213
139.215
139.216
139.217
139.218
139.219
139.22
139.221
139.223
139.224
139.225
139.227
139.228
139.23
139.231
139.233
139.235
139.237
139.239
139.241
139.243
139.245
139.247
139.25
139.252
139.255
139.258
139.26
139.263
139.266
139.269
139.272
139.275
139.278
139.281
139.284
139.287
139.29
139.293
139.296
139.298
139.301
139.304
139.307
139.309
139.312
139.314
139.316
139.319
139.321
139.323
139.325
139.327
139.328
139.33
139.332
139.199
139.202
139.203
139.204
139.206
139.207
139.208
139.21
139.211
139.212
139.213
139.214
139.215
139.216
139.217
139.219
139.22
139.221
139.222
139.223
139.225
139.226
139.227
139.229
139.231
139.232
139.234
139.236
139.238
139.24
139.242
139.244
139.247
139.249
139.252
139.254
139.257
139.26
139.262
139.265
139.268
139.271
139.274
139.277
139.28
139.283
139.286
139.289
139.292
139.295
139.298
139.301
139.303
139.306
139.309
139.311
139.314
139.316
139.318
139.32
139.188
139.191
139.193
139.194
139.196
139.198
139.2
139.201
139.203
139.204
139.205
139.207
139.208
139.209
139.21
139.211
139.213
139.214
139.215
139.216
139.217
139.218
139.219
139.22
139.222
139.223
139.224
139.225
139.227
139.228
139.23
139.232
139.233
139.235
139.237
139.239
139.241
139.243
139.246
139.248
139.251
139.253
139.256
139.259
139.262
139.264
139.267
139.27
139.273
139.276
139.279
139.282
139.285
139.288
139.291
139.294
139.297
139.3
139.303
139.305
139.174
139.178
139.18
139.182
139.184
139.186
139.188
139.19
139.192
139.194
139.196
139.197
139.199
139.201
139.202
139.204
139.205
139.206
139.208
139.209
139.21
139.211
139.212
139.213
139.214
139.215
139.216
139.218
139.219
139.22
139.221
139.222
139.223
139.225
139.226
139.228
139.229
139.231
139.233
139.234
139.236
139.238
139.24
139.243
139.245
139.247
139.25
139.252
139.255
139.258
139.261
139.264
139.266
139.269
139.272
139.275
139.278
139.282
139.285
139.288
139.159
139.163
139.165
139.167
139.17
139.172
139.175
139.177
139.179
139.181
139.184
139.186
139.188
139.19
139.192
139.194
139.195
139.197
139.199
139.2
139.202
139.203
139.205
139.206
139.207
139.208
139.21
139.211
139.212
139.213
139.214
139.215
139.216
139.217
139.218
139.219
139.22
139.222
139.223
139.224
139.226
139.227
139.229
139.23
139.232
139.234
139.236
139.238
139.24
139.242
139.244
139.247
139.249
139.252
139.254
139.257
139.26
139.263
139.266
139.269
139.144
139.148
139.15
139.152
139.154
139.157
139.159
139.162
139.164
139.167
139.169
139.172
139.174
139.176
139.179
139.181
139.183
139.185
139.187
139.189
139.191
139.193
139.195
139.197
139.198
139.2
139.201
139.203
139.204
139.206
139.207
139.208
139.209
139.21
139.211
139.212
139.214
139.215
139.216
139.217
139.218
139.219
139.22
139.221
139.222
139.224
139.225
139.226
139.228
139.229
139.231
139.233
139.235
139.237
139.239
139.241
139.243
139.246
139.248
139.251
139.13
139.133
139.135
139.137
139.14
139.142
139.144
139.147
139.149
139.151
139.154
139.156
139.159
139.161
139.164
139.166
139.169
139.171
139.173
139.176
139.178
139.18
139.183
139.185
139.187
139.189
139.191
139.193
139.194
139.196
139.198
139.2
139.201
139.202
139.204
139.205
139.206
139.208
139.209
139.21
139.211
139.212
139.213
139.214
139.215
139.216
139.217
139.218
139.219
139.221
139.222
139.223
139.224
139.226
139.227
139.229
139.23
139.232
139.234
139.236
139.118
139.121
139.123
139.125
139.126
139.128
139.13
139.132
139.135
139.137
139.139
139.141
139.143
139.146
139.148
139.151
139.153
139.155
139.158
139.16
139.163
139.165
139.168
139.17
139.173
139.175
139.177
139.18
139.182
139.184
139.186
139.188
139.19
139.192
139.194
139.196
139.198
139.199
139.201
139.202
139.203
139.205
139.206
139.207
139.208
139.21
139.211
139.212
139.213
139.214
139.215
139.216
139.217
139.218
139.219
139.22
139.221
139.222
139.224
139.225
139.108
139.111
139.112
139.114
139.115
139.117
139.119
139.12
139.122
139.124
139.126
139.128
139.13
139.132
139.134
139.136
139.138
139.14
139.143
139.145
139.147
139.15
139.152
139.155
139.157
139.16
139.162
139.165
139.167
139.17
139.172
139.175
139.177
139.179
139.181
139.184
139.186
139.188
139.19
139.192
139.194
139.195
139.197
139.199
139.2
139.202
139.203
139.204
139.206
139.207
139.208
139.209
139.21
139.211
139.212
139.213
139.214
139.215
139.216
139.217
139.099
139.102
139.103
139.104
139.106
139.107
139.109
139.11
139.112
139.113
139.115
139.116
139.118
139.12
139.122
139.123
139.125
139.127
139.129
139.131
139.133
139.135
139.137
139.14
139.142
139.144
139.147
139.149
139.152
139.154
139.157
139.159
139.162
139.164
139.167
139.169
139.172
139.174
139.176
139.179
139.181
139.183
139.185
139.187
139.189
139.191
139.193
139.195
139.197
139.198
139.2
139.201
139.203
139.204
139.205
139.207
139.208
139.209
139.21
139.211
139.093
139.094
139.095
139.096
139.097
139.099
139.1
139.101
139.103
139.104
139.105
139.107
139.108
139.11
139.111
139.113
139.114
139.116
139.118
139.119
139.121
139.123
139.124
139.126
139.128
139.13
139.132
139.134
139.137
139.139
139.141
139.144
139.146
139.148
139.151
139.153
139.156
139.158
139.161
139.163
139.166
139.168
139.171
139.173
139.176
139.178
139.18
139.183
139.185
139.187
139.189
139.191
139.193
139.195
139.196
139.198
139.2
139.201
139.202
139.204
139.089
139.089
139.09
139.09
139.091
139.092
139.093
139.094
139.095
139.096
139.097
139.099
139.1
139.101
139.102
139.104
139.105
139.107
139.108
139.109
139.111
139.112
139.114
139.115
139.117
139.119
139.12
139.122
139.124
139.126
139.128
139.13
139.132
139.134
139.136
139.138
139.14
139.143
139.145
139.148
139.15
139.153
139.155
139.158
139.16
139.163
139.165
139.168
139.17
139.173
139.175
139.178
139.18
139.182
139.184
139.186
139.189
139.19
139.192
139.194
139.09
139.089
139.089
139.089
139.089
139.089
139.089
139.089
139.09
139.09
139.091
139.092
139.093
139.094
139.095
139.096
139.097
139.098
139.1
139.101
139.102
139.104
139.105
139.106
139.108
139.109
139.11
139.112
139.113
139.115
139.116
139.118
139.12
139.121
139.123
139.125
139.127
139.129
139.131
139.133
139.135
139.137
139.14
139.142
139.144
139.147
139.149
139.152
139.154
139.157
139.16
139.162
139.165
139.167
139.17
139.172
139.175
139.177
139.179
139.182
139.099
139.096
139.095
139.093
139.092
139.091
139.09
139.09
139.089
139.089
139.089
139.089
139.089
139.089
139.09
139.09
139.091
139.092
139.093
139.094
139.095
139.096
139.097
139.098
139.1
139.101
139.102
139.103
139.105
139.106
139.107
139.109
139.11
139.111
139.113
139.114
139.116
139.117
139.119
139.121
139.122
139.124
139.126
139.128
139.13
139.132
139.134
139.137
139.139
139.141
139.144
139.146
139.149
139.151
139.154
139.156
139.159
139.162
139.164
139.167
139.118
139.112
139.109
139.106
139.103
139.101
139.099
139.097
139.096
139.094
139.093
139.092
139.091
139.09
139.089
139.089
139.089
139.089
139.089
139.089
139.09
139.09
139.091
139.092
139.093
139.094
139.095
139.096
139.097
139.098
139.099
139.101
139.102
139.103
139.104
139.106
139.107
139.108
139.11
139.111
139.112
139.114
139.115
139.117
139.118
139.12
139.122
139.124
139.125
139.127
139.129
139.132
139.134
139.136
139.138
139.141
139.143
139.145
139.148
139.151
139.148
139.138
139.134
139.128
139.124
139.12
139.116
139.113
139.11
139.107
139.104
139.102
139.1
139.098
139.096
139.095
139.093
139.092
139.091
139.09
139.089
139.089
139.089
139.089
139.089
139.089
139.09
139.09
139.091
139.092
139.093
139.094
139.095
139.096
139.097
139.098
139.099
139.101
139.102
139.103
139.104
139.105
139.107
139.108
139.109
139.111
139.112
139.113
139.115
139.116
139.118
139.119
139.121
139.123
139.125
139.127
139.129
139.131
139.133
139.135
139.188
139.176
139.17
139.162
139.156
139.149
139.143
139.138
139.133
139.128
139.124
139.12
139.117
139.114
139.111
139.108
139.105
139.103
139.101
139.099
139.097
139.095
139.093
139.092
139.091
139.09
139.089
139.089
139.089
139.089
139.089
139.089
139.09
139.09
139.091
139.092
139.093
139.094
139.095
139.096
139.097
139.098
139.099
139.101
139.102
139.103
139.104
139.105
139.106
139.108
139.109
139.11
139.111
139.113
139.114
139.116
139.117
139.119
139.12
139.122
139.213
139.211
139.206
139.2
139.194
139.187
139.18
139.173
139.166
139.159
139.153
139.147
139.142
139.137
139.133
139.128
139.125
139.121
139.118
139.115
139.112
139.109
139.106
139.104
139.101
139.099
139.097
139.095
139.093
139.092
139.091
139.09
139.089
139.089
139.089
139.089
139.089
139.089
139.09
139.09
139.091
139.092
139.093
139.094
139.095
139.096
139.097
139.098
139.099
139.101
139.102
139.103
139.104
139.105
139.106
139.107
139.108
139.11
139.111
139.112
139.173
139.197
139.203
139.21
139.212
139.212
139.21
139.206
139.202
139.196
139.189
139.183
139.176
139.169
139.163
139.157
139.151
139.146
139.141
139.137
139.133
139.129
139.126
139.122
139.119
139.116
139.113
139.11
139.107
139.104
139.102
139.099
139.097
139.095
139.093
139.092
139.091
139.09
139.089
139.089
139.089
139.089
139.089
139.089
139.09
139.09
139.091
139.092
139.093
139.094
139.095
139.096
139.097
139.098
139.099
139.1
139.102
139.103
139.104
139.105
139.016
139.077
139.103
139.132
139.155
139.173
139.188
139.199
139.206
139.209
139.21
139.209
139.206
139.202
139.197
139.191
139.184
139.178
139.172
139.166
139.16
139.155
139.15
139.146
139.141
139.138
139.134
139.13
139.127
139.123
139.12
139.117
139.113
139.11
139.107
139.104
139.102
139.099
139.097
139.095
139.093
139.092
139.091
139.09
139.089
139.089
139.089
139.089
139.089
139.089
139.09
139.091
139.091
139.092
139.093
139.094
139.095
139.096
139.097
139.098
138.768
138.841
138.882
138.93
138.974
139.016
139.054
139.089
139.118
139.144
139.165
139.181
139.193
139.201
139.206
139.208
139.208
139.205
139.201
139.197
139.191
139.185
139.179
139.174
139.168
139.163
139.158
139.154
139.15
139.146
139.142
139.139
139.135
139.132
139.128
139.125
139.121
139.118
139.114
139.111
139.108
139.105
139.102
139.099
139.097
139.095
139.093
139.092
139.09
139.09
139.089
139.089
139.089
139.089
139.089
139.089
139.09
139.091
139.092
139.093
138.622
138.631
138.656
138.686
138.725
138.767
138.813
138.86
138.908
138.954
138.997
139.037
139.074
139.106
139.133
139.156
139.173
139.187
139.196
139.202
139.205
139.205
139.203
139.2
139.196
139.191
139.185
139.18
139.175
139.17
139.166
139.161
139.157
139.154
139.15
139.147
139.143
139.14
139.136
139.133
139.129
139.126
139.122
139.118
139.115
139.111
139.108
139.105
139.102
139.099
139.097
139.095
139.093
139.091
139.09
139.089
139.089
139.089
139.089
139.089
138.909
138.757
138.713
138.664
138.639
138.628
138.632
138.647
138.673
138.707
138.747
138.792
138.839
138.887
138.934
138.979
139.022
139.06
139.094
139.123
139.147
139.166
139.181
139.191
139.198
139.201
139.202
139.2
139.197
139.194
139.189
139.184
139.18
139.175
139.171
139.167
139.164
139.161
139.158
139.155
139.151
139.148
139.145
139.141
139.138
139.134
139.13
139.126
139.122
139.119
139.115
139.111
139.108
139.105
139.102
139.099
139.097
139.094
139.093
139.091
139.908
139.551
139.397
139.22
139.076
138.951
138.849
138.769
138.708
138.668
138.645
138.638
138.645
138.664
138.693
138.731
138.774
138.82
138.868
138.917
138.964
139.008
139.048
139.084
139.114
139.14
139.16
139.175
139.186
139.193
139.197
139.198
139.196
139.194
139.19
139.186
139.183
139.179
139.175
139.172
139.169
139.166
139.164
139.161
139.159
139.156
139.153
139.15
139.146
139.143
139.139
139.135
139.131
139.127
139.123
139.119
139.115
139.111
139.108
139.104
141.59
141.093
140.842
140.547
140.28
140.026
139.791
139.577
139.384
139.214
139.067
138.943
138.843
138.764
138.707
138.67
138.651
138.649
138.661
138.684
138.718
138.759
138.804
138.853
138.902
138.95
138.996
139.038
139.075
139.107
139.134
139.155
139.17
139.181
139.188
139.192
139.192
139.191
139.189
139.186
139.183
139.18
139.177
139.174
139.172
139.17
139.169
139.167
139.165
139.163
139.16
139.158
139.155
139.151
139.148
139.144
139.14
139.136
139.132
139.127
143.52
143.04
142.767
142.438
142.118
141.794
141.475
141.161
140.856
140.564
140.287
140.028
139.788
139.57
139.374
139.202
139.055
138.932
138.833
138.758
138.705
138.672
138.659
138.662
138.68
138.709
138.747
138.792
138.841
138.891
138.941
138.989
139.032
139.071
139.103
139.13
139.151
139.166
139.177
139.183
139.185
139.186
139.185
139.183
139.18
139.178
139.176
139.174
139.173
139.172
139.172
139.171
139.17
139.168
139.167
139.164
139.162
139.159
139.156
139.153
145.081
144.77
144.567
144.316
144.051
143.768
143.469
143.158
142.836
142.507
142.175
141.843
141.513
141.19
140.877
140.577
140.292
140.026
139.781
139.558
139.359
139.185
139.038
138.916
138.82
138.749
138.701
138.675
138.669
138.68
138.705
138.741
138.785
138.834
138.886
138.938
138.987
139.031
139.07
139.103
139.129
139.149
139.163
139.171
139.176
139.178
139.178
139.176
139.175
139.174
139.173
139.172
139.172
139.172
139.173
139.173
139.172
139.172
139.171
139.17
145.893
145.784
145.697
145.582
145.448
145.29
145.11
144.906
144.678
144.429
144.158
143.869
143.563
143.244
142.913
142.576
142.234
141.891
141.552
141.219
140.896
140.586
140.293
140.019
139.767
139.539
139.336
139.161
139.013
138.893
138.802
138.737
138.697
138.681
138.684
138.705
138.74
138.784
138.835
138.888
138.942
138.992
139.037
139.076
139.107
139.131
139.148
139.159
139.165
139.167
139.168
139.168
139.167
139.167
139.167
139.168
139.169
139.171
139.172
139.173
146.077
146.068
146.061
146.047
146.025
145.992
145.945
145.881
145.797
145.692
145.563
145.409
145.23
145.026
144.797
144.543
144.268
143.973
143.66
143.333
142.994
142.647
142.295
141.942
141.592
141.248
140.914
140.593
140.289
140.004
139.743
139.507
139.3
139.123
138.976
138.861
138.777
138.723
138.696
138.693
138.711
138.745
138.792
138.846
138.902
138.958
139.009
139.053
139.088
139.115
139.134
139.146
139.152
139.155
139.156
139.156
139.157
139.159
139.161
139.163
146.092
146.057
146.051
146.045
146.047
146.055
146.065
146.076
146.085
146.088
146.083
146.065
146.031
145.979
145.904
145.806
145.682
145.531
145.353
145.147
144.916
144.659
144.379
144.079
143.76
143.427
143.081
142.726
142.365
142.001
141.638
141.28
140.93
140.593
140.273
139.974
139.7
139.455
139.242
139.064
138.923
138.818
138.748
138.712
138.706
138.725
138.763
138.815
138.874
138.934
138.99
139.039
139.077
139.105
139.123
139.133
139.138
139.141
139.143
139.145
146.2
146.15
146.114
146.076
146.041
146.012
145.991
145.979
145.978
145.986
146.004
146.028
146.058
146.088
146.116
146.138
146.15
146.147
146.127
146.084
146.017
145.923
145.802
145.651
145.471
145.264
145.031
144.773
144.492
144.192
143.872
143.537
143.186
142.824
142.452
142.074
141.692
141.312
140.938
140.577
140.232
139.912
139.621
139.365
139.149
138.977
138.85
138.768
138.729
138.726
138.755
138.805
138.867
138.933
138.994
139.044
139.08
139.103
139.114
139.119
146.026
146.153
146.162
146.178
146.166
146.141
146.105
146.061
146.015
145.971
145.934
145.907
145.891
145.89
145.902
145.928
145.965
146.011
146.062
146.115
146.165
146.206
146.234
146.244
146.231
146.193
146.126
146.03
145.905
145.751
145.571
145.366
145.139
144.889
144.619
144.327
144.015
143.683
143.33
142.959
142.57
142.167
141.755
141.337
140.922
140.518
140.135
139.782
139.471
139.21
139.006
138.864
138.783
138.76
138.783
138.839
138.912
138.984
139.041
139.076
144.718
145.269
145.454
145.678
145.841
145.971
146.065
146.124
146.15
146.149
146.123
146.081
146.029
145.972
145.917
145.868
145.829
145.805
145.797
145.807
145.836
145.882
145.942
146.014
146.092
146.169
146.238
146.293
146.327
146.335
146.315
146.267
146.19
146.089
145.964
145.818
145.653
145.468
145.265
145.041
144.796
144.527
144.232
143.907
143.551
143.161
142.739
142.286
141.809
141.317
140.825
140.35
139.912
139.532
139.228
139.014
138.895
138.864
138.905
138.985
141.658
142.671
143.197
143.74
144.204
144.616
144.977
145.293
145.566
145.795
145.978
146.112
146.199
146.243
146.248
146.221
146.17
146.099
146.018
145.931
145.848
145.773
145.714
145.675
145.662
145.677
145.723
145.796
145.894
146.006
146.122
146.23
146.32
146.383
146.414
146.413
146.382
146.324
146.242
146.14
146.021
145.89
145.747
145.597
145.437
145.266
145.079
144.868
144.624
144.335
143.989
143.575
143.087
142.526
141.904
141.244
140.581
139.959
139.431
139.043
)
;

boundaryField
{
    bottomwall
    {
        type            opaque;
        refValue        uniform 0;
        refGradient     uniform 0;
        valueFraction   uniform 0;
        source          uniform 0;
        value           nonuniform List<scalar> 
60
(
139.742
139.763
139.773
139.786
139.798
139.81
139.821
139.831
139.84
139.848
139.855
139.86
139.864
139.866
139.867
139.865
139.862
139.857
139.849
139.839
139.827
139.813
139.797
139.778
139.758
139.735
139.71
139.683
139.654
139.624
139.591
139.558
139.522
139.485
139.447
139.408
139.367
139.326
139.283
139.24
139.196
139.15
139.105
139.058
139.011
138.964
138.916
138.868
138.82
138.772
138.725
138.68
138.636
138.594