/*--------------------------------*- C++ -*----------------------------------*\
| =========                 |                                                 |
| \\      /  F ield         | OpenFOAM: The Open Source CFD Toolbox           |
|  \\    /   O peration     | Version:  2406                                  |
|   \\  /    A nd           | Website:  www.openfoam.com                      |
|    \\/     M anipulation  |                                                 |
\*---------------------------------------------------------------------------*/
FoamFile
{
    version     2.0;
    format      ascii;
    arch        "LSB;label=32;scalar=64";
    class       volScalarField;
    location    "5000";
    object      ILambda_9_0;
}
// * * * * * * * * * * * * * * * * * * * * * * * * * * * * * * * * * * * * * //

dimensions      [1 0 -3 0 0 0 0];

internalField   nonuniform List<scalar> 
3600
(
139.162
139.258
139.234
139.242
139.245
139.212
139.183
139.196
139.285
139.521
139.978
140.65
141.442
142.227
142.92
143.5
143.989
144.418
144.807
145.165
145.488
145.769
146
146.176
146.296
146.364
146.385
146.367
146.315
146.237
146.138
146.026
145.908
145.791
145.684
145.595
145.535
145.515
145.541
145.614
145.731
145.877
146.036
146.189
146.319
146.414
146.468
146.48
146.453
146.391
146.298
146.181
146.044
145.895
145.743
145.593
145.455
145.32
145.229
145.038
139.23
139.254
139.223
139.247
139.242
139.201
139.18
139.209
139.325
139.609
140.127
140.847
141.652
142.42
143.082
143.634
144.104
144.521
144.902
145.252
145.565
145.834
146.051
146.212
146.319
146.374
146.385
146.357
146.298
146.213
146.111
145.996
145.878
145.762
145.658
145.576
145.525
145.516
145.554
145.64
145.766
145.918
146.077
146.226
146.348
146.432
146.475
146.477
146.441
146.37
146.271
146.147
146.007
145.856
145.704
145.555
145.421
145.289
145.202
145.007
139.255
139.243
139.221
139.251
139.238
139.195
139.181
139.219
139.352
139.666
140.216
140.956
141.762
142.517
143.162
143.7
144.161
144.573
144.951
145.296
145.604
145.866
146.076
146.229
146.328
146.377
146.383
146.35
146.287
146.2
146.095
145.98
145.862
145.747
145.646
145.567
145.522
145.519
145.563
145.655
145.786
145.94
146.099
146.244
146.361
146.44
146.478
146.474
146.433
146.358
146.255
146.129
145.987
145.835
145.683
145.536
145.403
145.273
145.189
144.989
139.282
139.228
139.221
139.256
139.232
139.188
139.183
139.232
139.387
139.737
140.326
141.088
141.894
142.633
143.258
143.78
144.231
144.637
145.01
145.35
145.651
145.905
146.105
146.25
146.34
146.381
146.38
146.342
146.275
146.184
146.077
145.961
145.842
145.729
145.631
145.557
145.518
145.522
145.575
145.674
145.81
145.966
146.124
146.266
146.377
146.45
146.48
146.47
146.423
146.343
146.236
146.107
145.962
145.81
145.659
145.513
145.382
145.253
145.172
144.968
139.302
139.209
139.226
139.261
139.224
139.183
139.186
139.247
139.425
139.813
140.437
141.217
142.019
142.74
143.346
143.855
144.297
144.697
145.065
145.4
145.694
145.94
146.132
146.267
146.349
146.384
146.376
146.333
146.262
146.168
146.059
145.942
145.824
145.713
145.617
145.548
145.515
145.527
145.588
145.693
145.834
145.992
146.148
146.286
146.392
146.457
146.481
146.465
146.412
146.328
146.217
146.085
145.939
145.786
145.635
145.491
145.363
145.235
145.157
144.947
139.31
139.19
139.236
139.263
139.215
139.178
139.192
139.265
139.469
139.895
140.554
141.348
142.143
142.845
143.432
143.928
144.363
144.758
145.121
145.449
145.737
145.974
146.157
146.284
146.358
146.385
146.371
146.323
146.248
146.151
146.041
145.923
145.805
145.696
145.604
145.54
145.514
145.534
145.602
145.714
145.858
146.017
146.172
146.306
146.405
146.464
146.481
146.459
146.401
146.312
146.197
146.062
145.914
145.762
145.612
145.469
145.343
145.217
145.141
144.924
139.293
139.178
139.251
139.261
139.204
139.176
139.199
139.286
139.518
139.984
140.675
141.48
142.263
142.946
143.516
144
144.427
144.817
145.175
145.498
145.778
146.007
146.181
146.299
146.365
146.385
146.366
146.313
146.234
146.135
146.022
145.904
145.787
145.68
145.592
145.533
145.514
145.541
145.617
145.735
145.883
146.043
146.196
146.324
146.417
146.469
146.48
146.452
146.389
146.295
146.177
146.039
145.89
145.737
145.589
145.448
145.324
145.199
145.125
144.901
139.248
139.18
139.267
139.256
139.194
139.176
139.208
139.31
139.573
140.079
140.799
141.61
142.381
143.044
143.597
144.07
144.491
144.876
145.229
145.545
145.818
146.038
146.203
146.313
146.371
146.385
146.359
146.302
146.219
146.118
146.004
145.885
145.769
145.664
145.58
145.527
145.515
145.55
145.633
145.757
145.908
146.068
146.218
146.342
146.429
146.474
146.478
146.444
146.376
146.278
146.156
146.016
145.866
145.713
145.566
145.427
145.305
145.181
145.11
144.877
139.19
139.197
139.281
139.246
139.185
139.178
139.219
139.337
139.633
140.18
140.927
141.74
142.496
143.139
143.676
144.139
144.554
144.934
145.281
145.592
145.857
146.068
146.224
146.325
146.376
146.383
146.352
146.29
146.204
146.1
145.985
145.866
145.752
145.649
145.569
145.522
145.517
145.56
145.65
145.78
145.934
146.094
146.24
146.358
146.439
146.477
146.475
146.435
146.362
146.26
146.135
145.993
145.842
145.689
145.543
145.406
145.287
145.164
145.094
144.852
139.142
139.223
139.29
139.234
139.177
139.182
139.231
139.367
139.701
140.287
141.057
141.868
142.607
143.231
143.753
144.207
144.616
144.991
145.333
145.637
145.894
146.097
146.244
146.336
146.38
146.38
146.344
146.278
146.189
146.082
145.966
145.848
145.734
145.635
145.559
145.518
145.52
145.571
145.668
145.803
145.96
146.118
146.261
146.374
146.448
146.48
146.471
146.426
146.348
146.242
146.113
145.969
145.817
145.665
145.52
145.386
145.269
145.146
145.078
144.825
139.119
139.251
139.291
139.22
139.172
139.188
139.245
139.402
139.775
140.4
141.188
141.995
142.715
143.319
143.829
144.274
144.677
145.047
145.384
145.681
145.93
146.124
146.262
146.346
146.382
146.377
146.336
146.265
146.173
146.064
145.947
145.829
145.717
145.621
145.55
145.515
145.525
145.584
145.688
145.827
145.985
146.143
146.282
146.389
146.456
146.481
146.466
146.415
146.333
146.223
146.091
145.946
145.793
145.642
145.498
145.366
145.251
145.129
145.062
144.797
139.125
139.275
139.287
139.205
139.169
139.195
139.261
139.442
139.856
140.518
141.321
142.118
142.819
143.406
143.902
144.34
144.737
145.103
145.434
145.724
145.965
146.15
146.279
146.355
146.384
146.372
146.326
146.252
146.156
146.046
145.929
145.811
145.701
145.607
145.542
145.513
145.531
145.597
145.708
145.852
146.011
146.167
146.301
146.402
146.463
146.481
146.461
146.404
146.317
146.203
146.069
145.922
145.769
145.618
145.477
145.346
145.233
145.112
145.045
144.767
139.147
139.293
139.277
139.19
139.169
139.204
139.278
139.488
139.944
140.64
141.453
142.239
142.92
143.489
143.974
144.404
144.797
145.158
145.483
145.766
145.998
146.174
146.294
146.363
146.385
146.367
146.316
146.238
146.14
146.028
145.91
145.793
145.684
145.595
145.534
145.513
145.538
145.612
145.729
145.877
146.037
146.19
146.32
146.415
146.468
146.48
146.454
146.392
146.3
146.183
146.046
145.897
145.745
145.595
145.455
145.326
145.216
145.094
145.029
144.736
139.175
139.307
139.264
139.177
139.172
139.213
139.298
139.539
140.039
140.766
141.585
142.357
143.018
143.57
144.045
144.469
144.856
145.212
145.531
145.806
146.03
146.197
146.308
146.369
146.384
146.361
146.305
146.223
146.122
146.009
145.891
145.775
145.669
145.583
145.528
145.513
145.546
145.628
145.751
145.902
146.062
146.213
146.338
146.426
146.473
146.479
146.446
146.38
146.283
146.162
146.023
145.873
145.72
145.572
145.434
145.307
145.199
145.077
145.011
144.703
139.202
139.317
139.247
139.167
139.177
139.224
139.321
139.597
140.14
140.896
141.715
142.471
143.112
143.65
144.114
144.532
144.915
145.265
145.578
145.846
146.06
146.218
146.321
146.374
146.383
146.354
146.294
146.208
146.105
145.991
145.872
145.757
145.653
145.572
145.523
145.515
145.556
145.645
145.773
145.927
146.088
146.235
146.355
146.436
146.477
146.476
146.438
146.366
146.266
146.141
146
145.849
145.696
145.549
145.413
145.289
145.182
145.059
144.993
144.668
139.229
139.322
139.226
139.159
139.185
139.235
139.348
139.662
140.248
141.027
141.844
142.582
143.204
143.727
144.183
144.594
144.972
145.317
145.624
145.883
146.089
146.238
146.333
146.378
146.381
146.346
146.282
146.193
146.087
145.972
145.853
145.739
145.639
145.561
145.518
145.518
145.567
145.663
145.797
145.953
146.113
146.257
146.371
146.446
146.479
146.472
146.429
146.352
146.247
146.12
145.976
145.824
145.672
145.527
145.393
145.27
145.165
145.041
144.974
144.631
139.259
139.321
139.204
139.155
139.194
139.247
139.378
139.734
140.363
141.16
141.971
142.689
143.292
143.802
144.25
144.656
145.029
145.369
145.668
145.92
146.116
146.257
146.343
146.381
146.378
146.338
146.269
146.177
146.07
145.953
145.835
145.722
145.625
145.552
145.515
145.523
145.579
145.682
145.821
145.979
146.137
146.277
146.385
146.454
146.481
146.468
146.419
146.337
146.228
146.098
145.953
145.8
145.649
145.505
145.373
145.252
145.148
145.023
144.954
144.591
139.293
139.312
139.182
139.156
139.205
139.259
139.414
139.814
140.482
141.294
142.095
142.793
143.378
143.876
144.316
144.717
145.085
145.419
145.712
145.955
146.142
146.274
146.352
146.383
146.373
146.329
146.256
146.161
146.051
145.934
145.816
145.705
145.611
145.543
145.513
145.528
145.593
145.702
145.845
146.005
146.161
146.297
146.399
146.461
146.481
146.462
146.408
146.322
146.209
146.076
145.929
145.776
145.625
145.483
145.353
145.235
145.132
145.004
144.934
144.55
139.33
139.293
139.161
139.161
139.216
139.273
139.455
139.902
140.606
141.428
142.215
142.894
143.462
143.949
144.382
144.777
145.14
145.469
145.754
145.988
146.167
146.29
146.36
146.384
146.368
146.319
146.242
146.144
146.033
145.915
145.798
145.689
145.598
145.536
145.512
145.535
145.607
145.723
145.87
146.031
146.185
146.316
146.412
146.467
146.481
146.456
146.396
146.305
146.189
146.053
145.904
145.752
145.602
145.461
145.334
145.217
145.115
144.985
144.912
144.506
139.364
139.265
139.144
139.17
139.227
139.288
139.503
139.997
140.734
141.56
142.333
142.991
143.543
144.02
144.446
144.837
145.195
145.517
145.795
146.021
146.19
146.304
146.367
146.384
146.363
146.308
146.228
146.127
146.015
145.896
145.78
145.673
145.586
145.529
145.512
145.543
145.623
145.745
145.895
146.056
146.208
146.334
146.424
146.472
146.479
146.449
146.383
146.289
146.169
146.03
145.88
145.727
145.579
145.44
145.314
145.2
145.099
144.965
144.889
144.459
139.39
139.23
139.133
139.183
139.236
139.305
139.558
140.1
140.866
141.692
142.447
143.085
143.622
144.09
144.51
144.896
145.249
145.564
145.834
146.051
146.212
146.317
146.372
146.383
146.356
146.297
146.213
146.11
145.996
145.877
145.762
145.658
145.574
145.523
145.514
145.553
145.64
145.767
145.921
146.082
146.23
146.351
146.434
146.476
146.477
146.44
146.37
146.271
146.148
146.007
145.856
145.703
145.556
145.419
145.296
145.183
145.082
144.945
144.864
144.41
139.4
139.193
139.129
139.197
139.245
139.326
139.62
140.209
140.999
141.821
142.557
143.176
143.7
144.159
144.573
144.954
145.301
145.61
145.873
146.081
146.232
146.329
146.377
146.381
146.349
146.285
146.198
146.093
145.977
145.859
145.744
145.643
145.564
145.519
145.517
145.563
145.657
145.79
145.947
146.107
146.252
146.367
146.444
146.479
146.474
146.431
146.356
146.253
146.126
145.983
145.832
145.679
145.533
145.398
145.277
145.166
145.065
144.923
144.838
144.358
139.39
139.157
139.134
139.212
139.253
139.351
139.691
140.325
141.134
141.948
142.664
143.265
143.776
144.226
144.635
145.011
145.353
145.655
145.909
146.109
146.251
146.34
146.38
146.378
146.34
146.273
146.182
146.075
145.958
145.84
145.727
145.628
145.554
145.515
145.52
145.575
145.676
145.814
145.972
146.131
146.273
146.382
146.452
146.481
146.469
146.422
146.342
146.234
146.105
145.96
145.807
145.655
145.511
145.378
145.259
145.149
145.047
144.901
144.81
144.302
139.358
139.127
139.146
139.226
139.26
139.381
139.77
140.447
141.269
142.071
142.767
143.35
143.85
144.293
144.697
145.067
145.404
145.699
145.945
146.135
146.269
146.349
146.382
146.374
146.331
146.26
146.166
146.057
145.94
145.821
145.71
145.615
145.545
145.513
145.526
145.588
145.696
145.839
145.998
146.156
146.293
146.396
146.46
146.482
146.464
146.411
146.326
146.215
146.082
145.936
145.783
145.632
145.489
145.358
145.241
145.132
145.03
144.878
144.781
144.244
139.309
139.108
139.164
139.238
139.267
139.418
139.858
140.573
141.404
142.192
142.867
143.434
143.923
144.359
144.757
145.123
145.454
145.742
145.979
146.16
146.285
146.357
146.384
146.37
146.322
146.246
146.149
146.038
145.921
145.803
145.694
145.601
145.537
145.511
145.532
145.602
145.717
145.864
146.024
146.179
146.312
146.409
146.466
146.481
146.458
146.399
146.31
146.195
146.06
145.912
145.759
145.609
145.468
145.339
145.224
145.115
145.012
144.853
144.749
144.182
139.249
139.1
139.184
139.248
139.276
139.462
139.954
140.704
141.538
142.309
142.963
143.515
143.995
144.424
144.817
145.178
145.502
145.783
146.012
146.184
146.3
146.364
146.384
146.364
146.311
146.232
146.132
146.02
145.902
145.785
145.677
145.589
145.53
145.511
145.54
145.618
145.738
145.889
146.05
146.203
146.33
146.421
146.471
146.48
146.451
146.387
146.294
146.175
146.037
145.887
145.734
145.585
145.446
145.32
145.207
145.099
144.993
144.828
144.716
144.118
139.188
139.104
139.206
139.254
139.286
139.514
140.059
140.837
141.669
142.422
143.057
143.595
144.065
144.489
144.876
145.232
145.55
145.823
146.043
146.206
146.313
146.37
146.383
146.358
146.3
146.217
146.115
146.001
145.883
145.767
145.662
145.577
145.524
145.512
145.549
145.634
145.761
145.914
146.076
146.225
146.347
146.432
146.475
146.478
146.443
146.374
146.276
146.154
146.014
145.863
145.71
145.563
145.425
145.301
145.189
145.082
144.973
144.8
144.68
144.049
139.134
139.118
139.226
139.258
139.301
139.575
140.17
140.973
141.799
142.531
143.148
143.673
144.135
144.552
144.935
145.285
145.597
145.862
146.073
146.226
146.325
146.375
146.382
146.351
146.289
146.202
146.098
145.983
145.864
145.749
145.647
145.566
145.519
145.515
145.559
145.652
145.784
145.94
146.101
146.247
146.364
146.442
146.478
146.475
146.434
146.361
146.258
146.133
145.99
145.839
145.686
145.54
145.405
145.283
145.172
145.065
144.953
144.772
144.641
143.977
139.093
139.138
139.244
139.259
139.32
139.645
140.288
141.109
141.925
142.637
143.236
143.749
144.203
144.615
144.992
145.337
145.642
145.899
146.101
146.246
146.336
146.379
146.379
146.343
146.276
146.186
146.08
145.964
145.845
145.732
145.632
145.556
145.515
145.518
145.571
145.671
145.808
145.966
146.126
146.268
146.379
146.45
146.48
146.471
146.425
146.346
146.24
146.111
145.967
145.814
145.662
145.518
145.384
145.264
145.156
145.048
144.932
144.741
144.6
143.902
139.068
139.162
139.257
139.26
139.345
139.724
140.413
141.246
142.049
142.74
143.322
143.824
144.27
144.676
145.049
145.388
145.687
145.935
146.128
146.263
146.346
146.381
146.375
146.334
146.263
146.17
146.062
145.945
145.827
145.715
145.618
145.547
145.512
145.523
145.584
145.69
145.832
145.992
146.15
146.288
146.393
146.458
146.482
146.466
146.414
146.331
146.221
146.089
145.943
145.79
145.639
145.496
145.364
145.247
145.139
145.03
144.91
144.709
144.556
143.823
139.059
139.187
139.267
139.26
139.377
139.813
140.542
141.382
142.168
142.839
143.406
143.897
144.337
144.737
145.105
145.439
145.73
145.969
146.153
146.28
146.355
146.383
146.371
146.324
146.25
146.154
146.044
145.926
145.808
145.698
145.605
145.539
145.511
145.529
145.597
145.711
145.857
146.018
146.174
146.308
146.406
146.465
146.482
146.46
146.403
146.315
146.201
146.067
145.919
145.766
145.615
145.474
145.345
145.229
145.122
145.012
144.887
144.675
144.509
143.74
139.064
139.212
139.272
139.261
139.417
139.91
140.675
141.516
142.284
142.935
143.487
143.97
144.402
144.798
145.16
145.488
145.771
146.002
146.177
146.295
146.362
146.384
146.366
146.314
146.236
146.137
146.025
145.907
145.79
145.682
145.592
145.531
145.51
145.537
145.613
145.732
145.882
146.044
146.197
146.326
146.419
146.47
146.481
146.453
146.391
146.299
146.181
146.044
145.894
145.741
145.592
145.453
145.326
145.212
145.106
144.994
144.863
144.639
144.46
143.653
139.08
139.235
139.273
139.265
139.467
140.017
140.811
141.648
142.396
143.028
143.567
144.041
144.467
144.857
145.215
145.536
145.812
146.034
146.199
146.309
146.368
146.383
146.36
146.303
146.221
146.12
146.007
145.888
145.772
145.666
145.58
145.525
145.511
145.545
145.629
145.755
145.908
146.07
146.22
146.344
146.43
146.474
146.479
146.445
146.378
146.282
146.16
146.021
145.87
145.717
145.569
145.431
145.307
145.194
145.089
144.975
144.837
144.6
144.406
143.562
139.102
139.255
139.271
139.272
139.526
140.131
140.949
141.778
142.505
143.119
143.646
144.111
144.531
144.916
145.268
145.583
145.851
146.064
146.22
146.321
146.373
146.382
146.353
146.292
146.206
146.103
145.988
145.87
145.754
145.651
145.569
145.52
145.513
145.555
145.646
145.778
145.934
146.095
146.242
146.36
146.44
146.478
146.476
146.437
146.365
146.264
146.139
145.997
145.846
145.693
145.546
145.411
145.288
145.178
145.072
144.955
144.809
144.559
144.35
143.468
139.129
139.272
139.267
139.285
139.595
140.253
141.088
141.904
142.61
143.207
143.723
144.18
144.594
144.974
145.321
145.629
145.889
146.093
146.24
146.333
146.377
146.379
146.345
146.28
146.191
146.085
145.969
145.851
145.737
145.636
145.559
145.515
145.516
145.567
145.665
145.801
145.96
146.12
146.263
146.376
146.449
146.48
146.472
146.427
146.351
146.246
146.118
145.974
145.821
145.669
145.524
145.39
145.27
145.161
145.055
144.934
144.78
144.516
144.29
143.369
139.158
139.285
139.26
139.304
139.675
140.38
141.226
142.026
142.711
143.293
143.798
144.248
144.656
145.031
145.373
145.674
145.925
146.12
146.258
146.343
146.38
146.376
146.336
146.267
146.175
146.067
145.951
145.832
145.72
145.622
145.549
145.512
145.521
145.579
145.684
145.826
145.986
146.144
146.284
146.39
146.456
146.481
146.467
146.417
146.336
146.227
146.096
145.95
145.797
145.646
145.502
145.37
145.252
145.144
145.038
144.913
144.749
144.47
144.226
143.267
139.189
139.293
139.253
139.331
139.765
140.513
141.363
142.144
142.81
143.377
143.872
144.315
144.717
145.087
145.423
145.717
145.96
146.146
146.275
146.352
146.382
146.372
146.327
146.254
146.159
146.049
145.932
145.814
145.703
145.608
145.54
145.51
145.527
145.593
145.705
145.85
146.012
146.169
146.303
146.404
146.463
146.482
146.462
146.406
146.32
146.207
146.073
145.926
145.773
145.622
145.48
145.351
145.234
145.128
145.02
144.89
144.716
144.421
144.159
143.161
139.22
139.297
139.246
139.367
139.865
140.65
141.497
142.259
142.905
143.459
143.945
144.381
144.778
145.143
145.473
145.759
145.993
146.17
146.29
146.359
146.383
146.367
146.317
146.24
146.142
146.031
145.913
145.795
145.687
145.595
145.533
145.509
145.534
145.608
145.726
145.876
146.038
146.192
146.322
146.416
146.469
146.481
146.455
146.395
146.304
146.187
146.051
145.901
145.748
145.599
145.459
145.331
145.217
145.111
145.002
144.866
144.681
144.37
144.088
143.051
139.25
139.295
139.241
139.413
139.975
140.789
141.629
142.37
142.998
143.54
144.017
144.446
144.838
145.198
145.522
145.8
146.025
146.193
146.305
146.366
146.383
146.361
146.307
146.225
146.125
146.012
145.894
145.777
145.671
145.583
145.526
145.51
145.542
145.624
145.748
145.901
146.063
146.215
146.34
146.427
146.474
146.479
146.448
146.382
146.287
146.167
146.028
145.877
145.724
145.576
145.438
145.313
145.2
145.094
144.983
144.841
144.643
144.315
144.012
142.937
139.278
139.289
139.24
139.47
140.093
140.929
141.757
142.477
143.089
143.619
144.087
144.51
144.897
145.252
145.569
145.84
146.056
146.214
146.317
146.372
146.382
146.355
146.295
146.211
146.108
145.994
145.875
145.76
145.655
145.572
145.52
145.511
145.552
145.641
145.771
145.927
146.089
146.237
146.356
146.437
146.477
146.477
146.439
146.369
146.269
146.146
146.004
145.853
145.7
145.553
145.417
145.294
145.183
145.078
144.964
144.814
144.603
144.257
143.932
142.819
139.303
139.278
139.244
139.54
140.219
141.07
141.882
142.581
143.177
143.696
144.157
144.573
144.955
145.305
145.616
145.878
146.085
146.234
146.329
146.376
146.38
146.347
146.283
146.195
146.09
145.975
145.856
145.742
145.64
145.561
145.516
145.514
145.563
145.659
145.795
145.953
146.114
146.259
146.372
146.447
146.48
146.473
146.43
146.355
146.251
146.124
145.981
145.828
145.676
145.531
145.397
145.276
145.166
145.061
144.943
144.786
144.561
144.197
143.848
142.698
139.323
139.263
139.255
139.621
140.352
141.209
142.003
142.682
143.264
143.773
144.225
144.635
145.012
145.357
145.661
145.915
146.112
146.252
146.34
146.379
146.377
146.339
146.271
146.18
146.072
145.956
145.838
145.725
145.626
145.551
145.512
145.518
145.575
145.678
145.819
145.979
146.139
146.279
146.387
146.455
146.481
146.469
146.42
146.34
146.233
146.102
145.957
145.804
145.652
145.508
145.376
145.258
145.15
145.044
144.922
144.756
144.515
144.132
143.76
142.574
139.336
139.246
139.276
139.714
140.489
141.346
142.119
142.779
143.348
143.847
144.292
144.697
145.069
145.408
145.705
145.95
146.138
146.27
146.349
146.381
146.373
146.33
146.258
146.163
146.054
145.937
145.819
145.708
145.612
145.542
145.51
145.524
145.588
145.699
145.844
146.005
146.163
146.299
146.401
146.462
146.482
146.463
146.41
146.325
146.213
146.08
145.933
145.78
145.629
145.487
145.357
145.24
145.133
145.026
144.9
144.724
144.467
144.065
143.667
142.446
139.341
139.229
139.307
139.818
140.629
141.48
142.232
142.875
143.431
143.921
144.359
144.758
145.125
145.458
145.748
145.984
146.163
146.286
146.357
146.383
146.368
146.32
146.244
146.147
146.036
145.918
145.801
145.691
145.599
145.534
145.509
145.531
145.603
145.72
145.869
146.031
146.187
146.318
146.413
146.468
146.481
146.457
146.398
146.309
146.193
146.057
145.909
145.755
145.606
145.465
145.337
145.222
145.117
145.008
144.877
144.69
144.416
143.994
143.569
142.316
139.339
139.214
139.35
139.933
140.772
141.61
142.341
142.967
143.512
143.993
144.424
144.818
145.18
145.507
145.789
146.016
146.186
146.3
146.364
146.383
146.363
146.31
146.23
146.13
146.018
145.899
145.783
145.675
145.586
145.527
145.509
145.539
145.619
145.742
145.895
146.057
146.21
146.336
146.425
146.473
146.48
146.45
146.386
146.292
146.173
146.034
145.884
145.731
145.582
145.444
145.318
145.205
145.1
144.99
144.852
144.653
144.362
143.919
143.466
142.182
139.329
139.202
139.406
140.058
140.915
141.737
142.447
143.058
143.592
144.064
144.488
144.877
145.235
145.555
145.829
146.047
146.208
146.313
146.37
146.382
146.356
146.298
146.215
146.113
145.999
145.881
145.765
145.659
145.574
145.521
145.51
145.548
145.636
145.765
145.921
146.083
146.232
146.353
146.435
146.477
146.478
146.442
146.373
146.275
146.152
146.011
145.86
145.707
145.56
145.423
145.3
145.188
145.084
144.971
144.826
144.615
144.305
143.841
143.359
142.047
139.313
139.197
139.477
140.19
141.056
141.859
142.55
143.147
143.671
144.134
144.552
144.936
145.288
145.602
145.867
146.076
146.228
146.325
146.374
146.38
146.349
146.287
146.2
146.095
145.98
145.862
145.747
145.644
145.564
145.516
145.512
145.559
145.654
145.788
145.947
146.108
146.254
146.369
146.445
146.479
146.474
146.433
146.359
146.257
146.131
145.988
145.835
145.683
145.537
145.403
145.281
145.172
145.067
144.951
144.798
144.573
144.244
143.758
143.247
141.909
139.292
139.198
139.561
140.329
141.196
141.977
142.65
143.234
143.747
144.203
144.614
144.994
145.341
145.648
145.905
146.104
146.247
146.336
146.378
146.378
146.341
146.274
146.184
146.077
145.962
145.843
145.73
145.63
145.553
145.512
145.516
145.57
145.673
145.813
145.973
146.133
146.275
146.384
146.453
146.481
146.47
146.423
146.345
146.238
146.109
145.964
145.811
145.659
145.515
145.383
145.263
145.155
145.05
144.931
144.769
144.529
144.18
143.672
143.129
141.77
139.267
139.21
139.659
140.473
141.331
142.091
142.747
143.32
143.823
144.27
144.676
145.051
145.392
145.692
145.94
146.131
146.264
146.346
146.38
146.374
146.332
146.261
146.168
146.059
145.943
145.825
145.713
145.616
145.544
145.51
145.521
145.584
145.693
145.837
145.999
146.158
146.295
146.398
146.46
146.482
146.465
146.413
146.33
146.219
146.087
145.94
145.787
145.636
145.493
145.363
145.245
145.138
145.033
144.909
144.738
144.483
144.112
143.582
143.007
141.629
139.239
139.233
139.772
140.618
141.463
142.202
142.843
143.404
143.897
144.337
144.737
145.107
145.443
145.735
145.975
146.156
146.281
146.354
146.382
146.37
146.323
146.248
146.152
146.041
145.924
145.806
145.696
145.602
145.536
145.508
145.528
145.598
145.714
145.863
146.025
146.181
146.314
146.41
146.466
146.482
146.459
146.402
146.314
146.2
146.064
145.916
145.762
145.612
145.472
145.343
145.228
145.122
145.015
144.886
144.704
144.433
144.04
143.489
142.88
141.488
139.209
139.271
139.897
140.764
141.591
142.31
142.936
143.486
143.97
144.402
144.798
145.163
145.493
145.777
146.007
146.179
146.295
146.361
146.382
146.364
146.313
146.234
146.135
146.023
145.905
145.788
145.68
145.589
145.528
145.508
145.535
145.613
145.736
145.888
146.051
146.205
146.332
146.422
146.472
146.481
146.452
146.39
146.297
146.179
146.041
145.891
145.738
145.589
145.45
145.324
145.211
145.106
144.997
144.862
144.669
144.38
143.965
143.39
142.748
141.347
139.176
139.327
140.032
140.908
141.714
142.414
143.028
143.567
144.041
144.467
144.857
145.218
145.541
145.818
146.038
146.201
146.309
146.367
146.382
146.358
146.302
146.219
146.118
146.004
145.886
145.77
145.664
145.577
145.522
145.508
145.544
145.63
145.758
145.914
146.077
146.227
146.349
146.433
146.476
146.478
146.444
146.377
146.28
146.159
146.018
145.867
145.714
145.566
145.429
145.305
145.194
145.089
144.978
144.837
144.631
144.324
143.887
143.288
142.611
141.207
139.143
139.402
140.176
141.049
141.832
142.516
143.118
143.645
144.111
144.53
144.916
145.271
145.589
145.857
146.068
146.222
146.321
146.372
146.381
146.351
146.29
146.204
146.1
145.986
145.867
145.752
145.648
145.566
145.517
145.511
145.554
145.648
145.782
145.94
146.102
146.249
146.365
146.443
146.479
146.475
146.436
146.364
146.262
146.137
145.994
145.842
145.69
145.544
145.409
145.287
145.177
145.072
144.959
144.81
144.59
144.264
143.804
143.182
142.47
141.068
139.116
139.497
140.325
141.185
141.947
142.617
143.206
143.723
144.18
144.593
144.975
145.325
145.635
145.894
146.096
146.241
146.332
146.376
146.378
146.343
146.278
146.188
146.083
145.967
145.849
145.735
145.633
145.556
145.512
145.514
145.566
145.667
145.806
145.966
146.127
146.27
146.38
146.451
146.481
146.471
146.426
146.349
146.244
146.116
145.971
145.818
145.666
145.521
145.389
145.269
145.16
145.056
144.939
144.781
144.547
144.201
143.717
143.071
142.324
140.931
139.102
139.612
140.474
141.316
142.059
142.715
143.292
143.799
144.248
144.655
145.032
145.377
145.68
145.93
146.123
146.259
146.342
146.379
146.375
146.335
146.265
146.173
146.065
145.948
145.83
145.717
145.619
145.546
145.509
145.519
145.579
145.687
145.831
145.993
146.152
146.29
146.394
146.459
146.482
146.466
146.416
146.334
146.225
146.093
145.947
145.793
145.642
145.499
145.369
145.251
145.144
145.039
144.918
144.75
144.501
144.135
143.627
142.956
142.174
140.796
139.106
139.743
140.623
141.442
142.168
142.811
143.377
143.873
144.314
144.717
145.089
145.428
145.723
145.965
146.148
146.275
146.351
146.381
146.371
146.325
146.252
146.156
146.046
145.929
145.811
145.701
145.606
145.537
145.507
145.525
145.593
145.708
145.856
146.019
146.176
146.309
146.408
146.465
146.482
146.461
146.405
146.319
146.205
146.071
145.923
145.769
145.619
145.478
145.349
145.233
145.127
145.021
144.895
144.718
144.452
144.065
143.532
142.837
142.02
140.666
139.134
139.888
140.767
141.564
142.275
142.906
143.46
143.946
144.38
144.777
145.145
145.478
145.766
145.998
146.172
146.291
146.359
146.382
146.366
146.315
146.238
146.139
146.028
145.91
145.793
145.684
145.593
145.53
145.507
145.532
145.608
145.729
145.881
146.045
146.199
146.328
146.42
146.47
146.481
146.454
146.393
146.302
146.185
146.048
145.898
145.745
145.596
145.456
145.33
145.216
145.111
145.004
144.872
144.683
144.4
143.991
143.434
142.714
141.863
140.54
139.191
140.041
140.904
141.682
142.38
142.999
143.541
144.018
144.445
144.837
145.2
145.527
145.806
146.03
146.194
146.305
146.365
146.382
146.36
146.305
146.223
146.122
146.01
145.892
145.775
145.668
145.58
145.523
145.507
145.541
145.625
145.752
145.907
146.071
146.222
146.345
146.43
146.475
146.479
146.447
146.381
146.285
146.165
146.025
145.874
145.721
145.573
145.435
145.311
145.199
145.094
144.985
144.847
144.646
144.345
143.913
143.331
142.586
141.703
140.419
139.286
140.193
141.035
141.798
142.483
143.09
143.621
144.088
144.509
144.897
145.255
145.575
145.846
146.06
146.215
146.317
146.371
146.381
146.353
146.293
146.208
146.105
145.991
145.873
145.757
145.652
145.569
145.517
145.509
145.55
145.642
145.775
145.933
146.096
146.244
146.362
146.44
146.478
146.476
146.438
146.368
146.268
146.144
146.001
145.849
145.696
145.55
145.415
145.292
145.182
145.078
144.966
144.821
144.606
144.287
143.832
143.224
142.454
141.541
140.305
139.428
140.336
141.161
141.911
142.585
143.179
143.698
144.157
144.572
144.955
145.308
145.622
145.884
146.088
146.235
146.329
146.375
146.379
146.346
146.281
146.193
146.088
145.972
145.854
145.739
145.637
145.558
145.512
145.512
145.562
145.661
145.799
145.96
146.122
146.265
146.377
146.449
146.48
146.473
146.429
146.354
146.25
146.122
145.978
145.825
145.673
145.528
145.394
145.274
145.165
145.061
144.947
144.793
144.564
144.225
143.747
143.114
142.318
141.377
140.198
)
;

boundaryField
{
    bottomwall
    {
        type            opaque;
        refValue        uniform 0;
        refGradient     uniform 0;
        valueFraction   uniform 0;
        source          uniform 0;
        value           nonuniform List<scalar> 
60
(
139.162
139.258
139.234
139.242
139.245
139.212
139.183
139.196
139.285
139.521
139.978
140.65
141.442
142.227
142.92
143.5
143.989
144.418
144.807
145.165
145.488
145.769
146
146.176
146.296
146.364
146.385
146.367
146.315
146.237
146.138
146.026
145.908
145.791
145.684
145.595
145.535
145.515
145.541
145.614
145.731
145.877
146.036
146.189
146.319
146.414
146.468
146.48
146.453
146.391
146.298
146.181
146.044
145.895
145.743
145.593