/*--------------------------------*- C++ -*----------------------------------*\
| =========                 |                                                 |
| \\      /  F ield         | OpenFOAM: The Open Source CFD Toolbox           |
|  \\    /   O peration     | Version:  2406                                  |
|   \\  /    A nd           | Website:  www.openfoam.com                      |
|    \\/     M anipulation  |                                                 |
\*---------------------------------------------------------------------------*/
FoamFile
{
    version     2.0;
    format      ascii;
    arch        "LSB;label=32;scalar=64";
    class       volScalarField;
    location    "5000";
    object      ILambda_3_0;
}
// * * * * * * * * * * * * * * * * * * * * * * * * * * * * * * * * * * * * * //

dimensions      [1 0 -3 0 0 0 0];

internalField   nonuniform List<scalar> 
3600
(
140.24
142.808
144.943
146.474
147.469
148.075
148.436
148.659
148.811
148.931
149.039
149.144
149.247
149.348
149.447
149.541
149.634
149.725
149.817
149.91
150.005
150.102
150.198
150.291
150.378
150.459
150.537
150.616
150.705
150.804
150.904
150.976
150.985
150.903
150.745
150.59
150.6
151.001
152.04
153.914
156.708
160.345
164.58
169.033
173.257
176.833
179.447
180.923
181.217
180.381
178.518
175.766
172.292
168.299
164.026
159.733
155.66
151.958
148.839
144.687
138.906
139.524
141.007
142.872
144.677
146.164
147.252
147.977
148.426
148.694
148.857
148.97
149.064
149.157
149.252
149.348
149.446
149.541
149.635
149.728
149.821
149.915
150.01
150.106
150.2
150.292
150.378
150.46
150.54
150.623
150.715
150.812
150.901
150.955
150.944
150.856
150.718
150.625
150.735
151.258
152.411
154.357
157.154
160.713
164.8
169.062
173.097
176.526
179.056
180.509
180.821
180.019
178.191
175.475
172.046
168.114
163.934
159.657
156.051
150.428
139.009
138.806
139.059
139.946
141.353
143.012
144.642
146.047
147.133
147.899
148.397
148.701
148.883
149
149.09
149.174
149.261
149.353
149.447
149.542
149.637
149.731
149.825
149.92
150.015
150.11
150.204
150.293
150.378
150.46
150.543
150.632
150.729
150.828
150.908
150.941
150.901
150.784
150.634
150.558
150.725
151.338
152.598
154.642
157.502
161.071
165.106
169.269
173.184
176.5
178.945
180.346
180.631
179.813
177.975
175.245
171.839
167.814
164.202
157.686
139.151
138.985
138.794
138.826
139.292
140.248
141.592
143.128
144.646
145.984
147.053
147.835
148.363
148.696
148.898
149.023
149.113
149.193
149.273
149.359
149.45
149.543
149.638
149.733
149.828
149.924
150.02
150.114
150.206
150.294
150.379
150.463
150.55
150.646
150.748
150.842
150.904
150.906
150.826
150.675
150.514
150.464
150.699
151.415
152.793
154.945
157.874
161.455
165.445
169.517
173.321
176.53
178.888
180.226
180.467
179.608
177.772
174.894
172.056
165.671
139.21
139.163
139.025
138.835
138.74
138.919
139.494
140.477
141.774
143.227
144.664
145.948
146.996
147.784
148.331
148.686
148.905
149.04
149.133
149.21
149.286
149.367
149.454
149.546
149.64
149.735
149.832
149.928
150.024
150.118
150.208
150.296
150.381
150.468
150.562
150.662
150.763
150.846
150.884
150.85
150.732
150.556
150.397
150.385
150.697
151.519
153.011
155.259
158.245
161.83
165.772
169.76
173.463
176.572
178.846
180.107
180.325
179.296
177.953
173.008
139.283
139.251
139.199
139.084
138.908
138.75
138.745
139.026
139.668
140.663
141.924
143.315
144.69
145.929
146.955
147.742
148.302
148.674
148.908
149.053
149.15
149.226
149.299
149.376
149.459
149.549
149.642
149.738
149.835
149.932
150.027
150.12
150.21
150.297
150.385
150.476
150.575
150.678
150.774
150.841
150.851
150.782
150.632
150.439
150.291
150.327
150.719
151.644
153.24
155.573
158.604
162.188
166.083
169.993
173.603
176.611
178.827
179.914
180.447
178.12
139.389
139.339
139.299
139.248
139.152
138.997
138.818
138.707
138.778
139.134
139.822
140.822
142.053
143.394
144.719
145.919
146.926
147.709
148.276
148.661
148.908
149.062
149.164
149.24
149.311
149.385
149.466
149.553
149.645
149.741
149.838
149.935
150.03
150.123
150.212
150.3
150.391
150.487
150.589
150.692
150.78
150.828
150.809
150.706
150.529
150.327
150.199
150.287
150.761
151.784
153.476
155.883
158.951
162.528
166.38
170.211
173.751
176.616
178.881
179.763
139.467
139.431
139.391
139.351
139.303
139.223
139.091
138.917
138.754
138.69
138.825
139.238
139.959
140.962
142.167
143.468
144.751
145.917
146.904
147.681
148.253
148.648
148.906
149.069
149.175
149.253
149.323
149.394
149.473
149.558
149.649
149.744
149.841
149.938
150.032
150.124
150.214
150.304
150.398
150.499
150.605
150.705
150.781
150.806
150.758
150.624
150.425
150.221
150.119
150.264
150.82
151.935
153.715
156.186
159.286
162.853
166.665
170.437
173.752
177.55
139.453
139.466
139.456
139.43
139.398
139.357
139.292
139.184
139.028
138.85
138.709
138.691
138.88
139.339
140.085
141.087
142.271
143.537
144.783
145.92
146.888
147.658
148.233
148.636
148.903
149.074
149.185
149.265
149.334
149.404
149.48
149.563
149.653
149.748
149.844
149.94
150.034
150.126
150.217
150.31
150.408
150.513
150.62
150.714
150.776
150.778
150.699
150.538
150.323
150.123
150.053
150.257
150.892
152.096
153.956
156.486
159.6
163.226
166.624
172.193
139.344
139.405
139.444
139.458
139.452
139.434
139.404
139.354
139.269
139.138
138.968
138.794
138.679
138.703
138.939
139.435
140.201
141.202
142.366
143.603
144.817
145.927
146.877
147.64
148.215
148.624
148.899
149.077
149.193
149.276
149.345
149.413
149.487
149.569
149.658
149.751
149.847
149.942
150.036
150.128
150.221
150.318
150.42
150.528
150.634
150.72
150.764
150.741
150.635
150.449
150.222
150.033
149.999
150.264
150.977
152.268
154.179
156.869
159.51
165.291
139.201
139.276
139.346
139.402
139.438
139.454
139.453
139.438
139.405
139.343
139.239
139.089
138.912
138.748
138.661
138.724
139
139.528
140.309
141.308
142.454
143.665
144.85
145.936
146.87
147.625
148.2
148.613
148.895
149.079
149.2
149.285
149.355
149.423
149.495
149.576
149.663
149.755
149.849
149.944
150.037
150.131
150.226
150.327
150.434
150.544
150.646
150.722
150.747
150.698
150.565
150.358
150.125
149.952
149.956
150.289
151.05
152.536
154.033
158.687
139.097
139.148
139.212
139.282
139.347
139.399
139.434
139.453
139.456
139.441
139.401
139.324
139.203
139.041
138.862
138.712
138.653
138.751
139.063
139.618
140.411
141.406
142.537
143.724
144.884
145.948
146.866
147.613
148.187
148.603
148.89
149.081
149.206
149.294
149.364
149.432
149.503
149.582
149.668
149.759
149.852
149.946
150.039
150.134
150.233
150.338
150.449
150.559
150.656
150.719
150.724
150.65
150.491
150.267
150.031
149.884
149.905
150.399
150.865
153.739
139.06
139.075
139.107
139.158
139.22
139.286
139.347
139.397
139.433
139.454
139.458
139.44
139.391
139.3
139.165
138.994
138.817
138.683
138.651
138.783
139.126
139.704
140.508
141.499
142.616
143.78
144.917
145.961
146.864
147.604
148.175
148.594
148.886
149.081
149.211
149.301
149.373
149.44
149.511
149.588
149.673
149.762
149.854
149.947
150.042
150.139
150.241
150.35
150.464
150.573
150.663
150.711
150.694
150.596
150.413
150.181
149.929
149.869
149.724
150.922
139.074
139.063
139.064
139.081
139.116
139.166
139.227
139.29
139.348
139.398
139.434
139.457
139.46
139.436
139.377
139.273
139.125
138.949
138.778
138.661
138.656
138.818
139.189
139.787
140.599
141.587
142.69
143.835
144.951
145.975
146.865
147.596
148.165
148.586
148.882
149.082
149.215
149.308
149.382
149.449
149.519
149.595
149.678
149.765
149.856
149.949
150.045
150.145
150.251
150.364
150.479
150.586
150.667
150.699
150.659
150.539
150.326
150.114
149.795
149.899
139.102
139.086
139.071
139.063
139.068
139.087
139.124
139.174
139.232
139.293
139.35
139.399
139.437
139.459
139.46
139.429
139.358
139.242
139.085
138.907
138.744
138.646
138.666
138.856
139.252
139.867
140.687
141.671
142.761
143.888
144.984
145.991
146.867
147.591
148.157
148.579
148.878
149.082
149.219
149.315
149.39
149.457
149.526
149.601
149.682
149.769
149.859
149.952
150.049
150.153
150.263
150.379
150.494
150.597
150.666
150.682
150.617
150.48
150.257
149.928
139.122
139.112
139.098
139.082
139.069
139.064
139.071
139.093
139.131
139.18
139.237
139.297
139.353
139.403
139.441
139.462
139.457
139.418
139.337
139.21
139.046
138.868
138.715
138.635
138.679
138.896
139.315
139.945
140.77
141.75
142.828
143.939
145.017
146.007
146.871
147.587
148.15
148.572
148.874
149.081
149.222
149.321
149.397
149.465
149.534
149.607
149.687
149.772
149.861
149.955
150.055
150.161
150.275
150.394
150.508
150.605
150.663
150.654
150.603
150.294
139.131
139.127
139.12
139.108
139.094
139.079
139.068
139.066
139.075
139.099
139.137
139.186
139.242
139.301
139.357
139.407
139.444
139.463
139.453
139.405
139.313
139.176
139.008
138.833
138.69
138.628
138.696
138.937
139.377
140.021
140.851
141.827
142.894
143.988
145.049
146.024
146.876
147.584
148.144
148.566
148.87
149.081
149.225
149.326
149.404
149.473
149.541
149.613
149.691
149.775
149.864
149.959
150.061
150.171
150.289
150.408
150.523
150.605
150.676
150.568
139.139
139.135
139.131
139.125
139.117
139.105
139.09
139.077
139.068
139.067
139.079
139.104
139.143
139.191
139.247
139.305
139.362
139.411
139.448
139.462
139.446
139.389
139.287
139.142
138.971
138.8
138.669
138.626
138.716
138.98
139.438
140.095
140.929
141.901
142.956
144.036
145.081
146.042
146.882
147.583
148.139
148.561
148.867
149.081
149.228
149.332
149.411
149.48
149.547
149.619
149.695
149.778
149.868
149.964
150.069
150.182
150.304
150.421
150.539
150.616
139.159
139.148
139.14
139.135
139.13
139.124
139.114
139.101
139.087
139.075
139.068
139.069
139.083
139.109
139.148
139.197
139.252
139.311
139.367
139.416
139.451
139.461
139.437
139.371
139.259
139.108
138.935
138.77
138.651
138.626
138.739
139.023
139.499
140.166
141.004
141.971
143.017
144.083
145.113
146.06
146.889
147.582
148.135
148.556
148.864
149.081
149.231
149.337
149.417
149.486
149.554
149.624
149.7
149.782
149.872
149.97
150.078
150.195
150.31
150.483
139.2
139.177
139.16
139.149
139.141
139.135
139.129
139.122
139.111
139.098
139.085
139.073
139.068
139.071
139.087
139.114
139.153
139.202
139.258
139.317
139.373
139.421
139.453
139.457
139.426
139.351
139.231
139.075
138.902
138.742
138.637
138.63
138.763
139.067
139.559
140.237
141.077
142.04
143.076
144.129
145.144
146.078
146.897
147.583
148.132
148.553
148.861
149.08
149.233
149.341
149.423
149.493
149.559
149.629
149.704
149.786
149.876
149.98
150.075
150.268
139.264
139.229
139.2
139.178
139.161
139.149
139.141
139.135
139.128
139.119
139.108
139.095
139.082
139.072
139.068
139.074
139.09
139.118
139.158
139.208
139.264
139.323
139.379
139.426
139.453
139.452
139.413
139.329
139.202
139.042
138.87
138.718
138.626
138.637
138.789
139.112
139.619
140.305
141.147
142.106
143.133
144.173
145.175
146.097
146.905
147.584
148.13
148.549
148.859
149.08
149.235
149.345
149.428
149.499
149.565
149.634
149.707
149.794
149.868
150.043
139.343
139.302
139.263
139.229
139.201
139.178
139.162
139.15
139.142
139.134
139.127
139.117
139.106
139.093
139.08
139.071
139.069
139.076
139.093
139.123
139.163
139.214
139.27
139.33
139.385
139.43
139.453
139.446
139.398
139.306
139.173
139.01
138.84
138.696
138.617
138.645
138.817
139.157
139.677
140.372
141.216
142.171
143.188
144.217
145.206
146.115
146.914
147.587
148.128
148.546
148.857
149.08
149.237
149.349
149.434
149.504
149.569
149.642
149.7
149.844
139.424
139.383
139.341
139.3
139.262
139.229
139.201
139.179
139.162
139.151
139.142
139.134
139.125
139.115
139.103
139.09
139.079
139.071
139.07
139.078
139.097
139.127
139.169
139.22
139.277
139.337
139.391
139.433
139.452
139.437
139.382
139.283
139.143
138.978
138.812
138.676
138.611
138.656
138.845
139.202
139.736
140.437
141.283
142.233
143.242
144.259
145.236
146.134
146.924
147.589
148.127
148.544
148.855
149.08
149.239
149.353
149.438
149.512
149.565
149.682
139.485
139.456
139.42
139.381
139.339
139.299
139.261
139.229
139.201
139.179
139.163
139.151
139.141
139.133
139.124
139.113
139.1
139.088
139.077
139.07
139.071
139.08
139.1
139.132
139.174
139.226
139.284
139.344
139.397
139.435
139.449
139.428
139.365
139.258
139.114
138.948
138.785
138.659
138.608
138.669
138.875
139.248
139.793
140.501
141.348
142.294
143.295
144.301
145.266
146.153
146.934
147.593
148.127
148.543
148.854
149.08
149.24
149.358
149.434
149.548
139.513
139.502
139.482
139.453
139.418
139.378
139.338
139.298
139.261
139.228
139.201
139.18
139.164
139.151
139.141
139.132
139.122
139.111
139.098
139.086
139.076
139.07
139.071
139.082
139.103
139.136
139.18
139.233
139.292
139.35
139.402
139.437
139.445
139.417
139.346
139.233
139.085
138.919
138.761
138.644
138.606
138.684
138.907
139.294
139.85
140.564
141.412
142.354
143.346
144.342
145.296
146.172
146.944
147.597
148.127
148.541
148.852
149.082
149.233
149.402
139.498
139.509
139.51
139.5
139.479
139.45
139.415
139.376
139.336
139.296
139.26
139.228
139.202
139.18
139.164
139.151
139.141
139.131
139.12
139.108
139.096
139.084
139.074
139.07
139.072
139.084
139.107
139.141
139.186
139.24
139.299
139.357
139.406
139.437
139.44
139.404
139.327
139.208
139.056
138.891
138.738
138.631
138.607
138.7
138.938
139.339
139.906
140.626
141.474
142.412
143.396
144.382
145.325
146.191
146.955
147.602
148.128
148.543
148.837
149.157
139.442
139.474
139.496
139.508
139.508
139.497
139.477
139.448
139.413
139.374
139.334
139.295
139.26
139.228
139.202
139.181
139.164
139.151
139.14
139.13
139.118
139.106
139.094
139.082
139.073
139.07
139.073
139.086
139.11
139.146
139.192
139.247
139.306
139.364
139.41
139.437
139.433
139.391
139.307
139.182
139.028
138.864
138.717
138.62
138.609
138.717
138.971
139.385
139.961
140.687
141.534
142.468
143.445
144.421
145.354
146.211
146.965
147.612
148.102
148.685
139.359
139.404
139.443
139.474
139.496
139.507
139.506
139.495
139.474
139.445
139.41
139.372
139.333
139.294
139.259
139.228
139.202
139.181
139.165
139.151
139.14
139.128
139.117
139.104
139.092
139.081
139.072
139.07
139.074
139.089
139.114
139.151
139.199
139.255
139.314
139.37
139.413
139.435
139.426
139.377
139.286
139.156
139
138.838
138.697
138.611
138.613
138.736
139.005
139.431
140.016
140.746
141.594
142.524
143.493
144.46
145.381
146.24
146.929
147.855
139.263
139.313
139.361
139.406
139.444
139.475
139.496
139.506
139.505
139.493
139.472
139.443
139.408
139.37
139.331
139.293
139.258
139.228
139.202
139.182
139.165
139.151
139.139
139.127
139.115
139.102
139.09
139.079
139.071
139.07
139.076
139.091
139.118
139.157
139.206
139.262
139.321
139.375
139.416
139.433
139.417
139.361
139.264
139.131
138.973
138.813
138.679
138.603
138.619
138.756
139.038
139.477
140.071
140.805
141.652
142.579
143.537
144.513
145.338
146.601
139.173
139.219
139.267
139.316
139.364
139.408
139.445
139.475
139.495
139.504
139.503
139.491
139.469
139.44
139.406
139.368
139.329
139.292
139.258
139.228
139.203
139.182
139.165
139.151
139.138
139.126
139.113
139.1
139.088
139.077
139.071
139.07
139.077
139.094
139.123
139.163
139.213
139.27
139.328
139.38
139.417
139.429
139.407
139.345
139.243
139.105
138.947
138.79
138.663
138.597
138.626
138.777
139.073
139.523
140.124
140.863
141.705
142.652
143.49
144.972
139.101
139.136
139.177
139.222
139.27
139.319
139.366
139.409
139.447
139.475
139.495
139.503
139.501
139.489
139.467
139.438
139.403
139.366
139.328
139.291
139.257
139.228
139.203
139.182
139.165
139.15
139.137
139.124
139.111
139.098
139.086
139.076
139.07
139.07
139.079
139.097
139.127
139.169
139.22
139.277
139.335
139.385
139.418
139.425
139.397
139.328
139.22
139.08
138.922
138.768
138.648
138.593
138.634
138.799
139.108
139.57
140.172
140.944
141.657
143.152
139.052
139.075
139.104
139.139
139.18
139.225
139.273
139.322
139.368
139.411
139.448
139.476
139.494
139.502
139.499
139.486
139.465
139.435
139.401
139.364
139.327
139.29
139.257
139.228
139.203
139.182
139.165
139.15
139.136
139.123
139.11
139.096
139.084
139.075
139.069
139.07
139.08
139.1
139.132
139.175
139.227
139.285
139.341
139.389
139.418
139.42
139.385
139.311
139.198
139.055
138.897
138.747
138.635
138.59
138.644
138.824
139.137
139.64
140.124
141.404
139.027
139.037
139.054
139.077
139.106
139.142
139.183
139.228
139.276
139.324
139.371
139.413
139.448
139.476
139.494
139.501
139.497
139.484
139.462
139.433
139.399
139.362
139.325
139.289
139.257
139.228
139.203
139.182
139.164
139.149
139.135
139.121
139.108
139.095
139.083
139.073
139.069
139.071
139.082
139.104
139.137
139.181
139.234
139.292
139.347
139.392
139.417
139.413
139.373
139.293
139.175
139.03
138.873
138.728
138.622
138.59
138.649
138.868
139.092
139.988
139.021
139.022
139.027
139.038
139.055
139.079
139.108
139.145
139.186
139.231
139.279
139.327
139.373
139.414
139.449
139.476
139.493
139.5
139.496
139.482
139.46
139.431
139.397
139.361
139.324
139.289
139.256
139.228
139.203
139.182
139.164
139.148
139.134
139.12
139.106
139.093
139.081
139.072
139.068
139.072
139.084
139.108
139.142
139.188
139.242
139.299
139.353
139.395
139.416
139.406
139.36
139.274
139.153
139.006
138.849
138.71
138.607
138.605
138.609
139.066
139.029
139.024
139.021
139.022
139.028
139.039
139.057
139.08
139.111
139.147
139.189
139.235
139.282
139.33
139.375
139.416
139.45
139.476
139.492
139.498
139.494
139.48
139.458
139.429
139.395
139.359
139.323
139.288
139.256
139.227
139.203
139.182
139.164
139.148
139.133
139.118
139.104
139.091
139.079
139.071
139.068
139.073
139.087
139.111
139.148
139.195
139.249
139.306
139.358
139.397
139.413
139.398
139.346
139.256
139.13
138.982
138.825
138.701
138.576
138.656
139.046
139.037
139.029
139.023
139.021
139.022
139.028
139.04
139.058
139.082
139.113
139.15
139.192
139.238
139.285
139.332
139.377
139.417
139.451
139.476
139.492
139.497
139.492
139.478
139.455
139.426
139.393
139.357
139.321
139.287
139.255
139.227
139.203
139.182
139.163
139.147
139.132
139.117
139.103
139.089
139.078
139.07
139.068
139.074
139.089
139.116
139.154
139.202
139.256
139.313
139.363
139.398
139.41
139.39
139.332
139.237
139.107
138.961
138.804
138.65
139.069
139.057
139.046
139.036
139.028
139.022
139.02
139.022
139.029
139.041
139.059
139.084
139.116
139.153
139.195
139.241
139.288
139.335
139.379
139.419
139.452
139.476
139.491
139.496
139.49
139.476
139.453
139.424
139.391
139.356
139.32
139.286
139.255
139.227
139.203
139.181
139.163
139.146
139.13
139.115
139.101
139.087
139.076
139.069
139.068
139.075
139.092
139.12
139.16
139.209
139.264
139.319
139.367
139.399
139.406
139.38
139.317
139.215
139.098
138.867
139.095
139.081
139.068
139.056
139.045
139.035
139.027
139.022
139.02
139.022
139.029
139.042
139.061
139.086
139.118
139.156
139.198
139.244
139.291
139.337
139.381
139.42
139.452
139.476
139.49
139.494
139.489
139.474
139.451
139.422
139.389
139.354
139.319
139.286
139.255
139.227
139.202
139.181
139.162
139.145
139.129
139.114
139.099
139.086
139.075
139.069
139.068
139.077
139.095
139.125
139.166
139.216
139.271
139.325
139.371
139.399
139.402
139.366
139.319
139.129
139.125
139.109
139.095
139.081
139.067
139.055
139.044
139.034
139.027
139.021
139.02
139.022
139.03
139.043
139.062
139.088
139.121
139.158
139.201
139.247
139.294
139.34
139.383
139.422
139.453
139.476
139.49
139.493
139.487
139.472
139.449
139.42
139.387
139.353
139.318
139.285
139.254
139.226
139.202
139.181
139.162
139.144
139.128
139.112
139.097
139.084
139.074
139.068
139.069
139.078
139.098
139.13
139.172
139.223
139.278
139.331
139.375
139.395
139.408
139.318
139.158
139.141
139.124
139.109
139.094
139.08
139.067
139.054
139.043
139.033
139.026
139.021
139.02
139.022
139.03
139.044
139.064
139.09
139.123
139.161
139.204
139.249
139.296
139.342
139.385
139.423
139.454
139.476
139.489
139.492
139.485
139.47
139.447
139.418
139.386
139.351
139.317
139.284
139.254
139.226
139.202
139.18
139.161
139.143
139.126
139.11
139.096
139.082
139.073
139.068
139.069
139.08
139.102
139.135
139.178
139.229
139.285
139.334
139.382
139.388
139.194
139.175
139.157
139.14
139.124
139.108
139.093
139.079
139.066
139.053
139.042
139.033
139.025
139.021
139.019
139.023
139.031
139.045
139.066
139.093
139.126
139.164
139.207
139.252
139.299
139.345
139.387
139.424
139.454
139.476
139.488
139.49
139.483
139.468
139.445
139.416
139.384
139.35
139.316
139.283
139.253
139.226
139.201
139.18
139.16
139.142
139.125
139.109
139.094
139.081
139.071
139.067
139.07
139.083
139.106
139.14
139.185
139.236
139.289
139.356
139.233
139.213
139.194
139.175
139.157
139.14
139.123
139.107
139.093
139.078
139.065
139.053
139.041
139.032
139.025
139.02
139.019
139.023
139.032
139.046
139.067
139.095
139.128
139.167
139.21
139.255
139.302
139.347
139.389
139.425
139.455
139.476
139.487
139.489
139.482
139.466
139.443
139.414
139.382
139.349
139.315
139.283
139.253
139.225
139.201
139.179
139.159
139.141
139.123
139.107
139.092
139.079
139.07
139.067
139.071
139.085
139.11
139.147
139.186
139.269
139.271
139.251
139.232
139.212
139.193
139.174
139.156
139.139
139.122
139.107
139.092
139.078
139.064
139.052
139.041
139.031
139.024
139.02
139.019
139.023
139.032
139.048
139.069
139.097
139.131
139.169
139.213
139.258
139.304
139.349
139.39
139.426
139.455
139.475
139.486
139.488
139.48
139.464
139.441
139.412
139.381
139.347
139.314
139.282
139.252
139.225
139.201
139.178
139.158
139.14
139.122
139.105
139.09
139.078
139.069
139.067
139.072
139.089
139.108
139.175
139.307
139.289
139.27
139.251
139.231
139.211
139.192
139.174
139.156
139.138
139.122
139.106
139.091
139.077
139.063
139.051
139.04
139.03
139.023
139.019
139.019
139.023
139.033
139.049
139.071
139.099
139.133
139.172
139.215
139.261
139.307
139.351
139.392
139.427
139.455
139.475
139.485
139.486
139.478
139.462
139.439
139.411
139.379
139.346
139.313
139.281
139.252
139.224
139.2
139.178
139.157
139.138
139.12
139.104
139.089
139.077
139.068
139.068
139.069
139.106
139.338
139.323
139.306
139.288
139.269
139.25
139.23
139.211
139.191
139.173
139.155
139.138
139.121
139.105
139.09
139.076
139.063
139.05
139.039
139.03
139.023
139.019
139.019
139.024
139.034
139.05
139.073
139.101
139.136
139.175
139.218
139.264
139.309
139.353
139.394
139.428
139.456
139.475
139.485
139.485
139.477
139.46
139.437
139.409
139.378
139.345
139.312
139.28
139.251
139.224
139.199
139.177
139.156
139.137
139.119
139.102
139.087
139.076
139.066
139.073
139.36
139.35
139.337
139.322
139.306
139.287
139.269
139.249
139.229
139.21
139.191
139.172
139.154
139.137
139.121
139.105
139.09
139.075
139.062
139.049
139.038
139.029
139.022
139.019
139.019
139.024
139.035
139.051
139.074
139.103
139.138
139.178
139.221
139.266
139.312
139.355
139.395
139.429
139.456
139.475
139.484
139.484
139.475
139.458
139.435
139.407
139.376
139.343
139.311
139.28
139.25
139.223
139.199
139.176
139.155
139.136
139.117
139.1
139.085
139.072
139.372
139.367
139.359
139.349
139.336
139.321
139.305
139.287
139.268
139.248
139.229
139.209
139.19
139.172
139.154
139.136
139.12
139.104
139.089
139.074
139.061
139.048
139.037
139.028
139.022
139.018
139.019
139.025
139.036
139.053
139.076
139.106
139.141
139.181
139.224
139.269
139.314
139.357
139.397
139.43
139.456
139.474
139.483
139.482
139.473
139.456
139.433
139.405
139.375
139.342
139.31
139.279
139.25
139.223
139.198
139.175
139.154
139.134
139.117
139.092
139.374
139.374
139.372
139.367
139.359
139.348
139.336
139.321
139.304
139.286
139.267
139.248
139.228
139.209
139.189
139.171
139.153
139.136
139.119
139.103
139.088
139.074
139.06
139.047
139.036
139.027
139.021
139.018
139.019
139.025
139.037
139.054
139.078
139.108
139.143
139.183
139.227
139.272
139.317
139.359
139.398
139.431
139.457
139.474
139.482
139.481
139.472
139.455
139.432
139.404
139.373
139.341
139.309
139.278
139.249
139.222
139.197
139.174
139.155
139.124
139.37
139.372
139.374
139.374
139.371
139.366
139.358
139.348
139.335
139.32
139.303
139.285
139.266
139.247
139.227
139.208
139.189
139.17
139.152
139.135
139.119
139.103
139.087
139.073
139.059
139.047
139.036
139.027
139.021
139.018
139.019
139.026
139.038
139.056
139.08
139.11
139.146
139.186
139.229
139.274
139.319
139.361
139.4
139.432
139.457
139.473
139.481
139.48
139.47
139.453
139.43
139.402
139.372
139.34
139.308
139.277
139.249
139.221
139.199
139.163
139.364
139.367
139.37
139.373
139.374
139.373
139.371
139.365
139.357
139.347
139.334
139.319
139.302
139.284
139.265
139.246
139.226
139.207
139.188
139.17
139.152
139.134
139.118
139.102
139.087
139.072
139.058
139.046
139.035
139.026
139.02
139.018
139.019
139.026
139.039
139.057
139.082
139.112
139.148
139.189
139.232
139.277
139.321
139.363
139.401
139.433
139.457
139.473
139.48
139.478
139.468
139.451
139.428
139.401
139.37
139.339
139.307
139.276
139.251
139.209
139.358
139.361
139.365
139.368
139.371
139.373
139.374
139.373
139.37
139.365
139.357
139.346
139.333
139.318
139.301
139.283
139.265
139.245
139.226
139.206
139.187
139.169
139.151
139.134
139.117
139.101
139.086
139.071
139.057
139.045
139.034
139.025
139.02
139.017
139.02
139.027
139.04
139.059
139.084
139.115
139.151
139.191
139.235
139.279
139.324
139.365
139.402
139.433
139.457
139.473
139.479
139.477
139.467
139.45
139.426
139.399
139.369
139.337
139.309
139.262
139.348
139.354
139.358
139.362
139.365
139.369
139.371
139.373
139.374
139.373
139.37
139.364
139.356
139.345
139.332
139.317
139.301
139.283
139.264
139.244
139.225
139.206
139.187
139.168
139.15
139.133
139.116
139.1
139.085
139.07
139.057
139.044
139.033
139.025
139.019
139.017
139.02
139.027
139.041
139.06
139.086
139.117
139.153
139.194
139.237
139.282
139.326
139.367
139.404
139.434
139.457
139.472
139.478
139.476
139.465
139.448
139.425
139.397
139.371
139.321
139.326
139.338
139.347
139.354
139.359
139.363
139.366
139.369
139.372
139.374
139.374
139.373
139.37
139.364
139.355
139.345
139.332
139.316
139.3
139.282
139.263
139.244
139.224
139.205
139.186
139.168
139.15
139.132
139.116
139.1
139.084
139.069
139.056
139.043
139.033
139.024
139.019
139.017
139.02
139.028
139.042
139.062
139.088
139.119
139.156
139.197
139.24
139.284
139.328
139.369
139.405
139.435
139.457
139.472
139.477
139.474
139.464
139.445
139.427
139.381
139.286
139.308
139.325
139.338
139.347
139.354
139.359
139.363
139.367
139.37
139.372
139.374
139.374
139.373
139.369
139.363
139.355
139.344
139.331
139.316
139.299
139.281
139.262
139.243
139.224
139.204
139.185
139.167
139.149
139.132
139.115
139.099
139.083
139.069
139.055
139.042
139.032
139.024
139.018
139.017
139.02
139.029
139.043
139.063
139.09
139.122
139.159
139.199
139.243
139.287
139.33
139.37
139.406
139.435
139.457
139.471
139.477
139.472
139.465
139.433
139.231
139.26
139.286
139.308
139.325
139.338
139.347
139.354
139.359
139.364
139.367
139.37
139.373
139.374
139.374
139.373
139.369
139.363
139.354
139.343
139.33
139.315
139.298
139.28
139.261
139.242
139.223
139.204
139.185
139.166
139.148
139.131
139.114
139.098
139.082
139.068
139.054
139.042
139.031
139.023
139.018
139.017
139.021
139.03
139.044
139.065
139.092
139.124
139.161
139.202
139.245
139.289
139.332
139.372
139.407
139.436
139.458
139.47
139.477
139.465
139.168
139.201
139.232
139.261
139.286
139.307
139.324
139.337
139.347
139.354
139.36
139.364
139.368
139.371
139.373
139.374
139.374
139.372
139.368
139.362
139.353
139.342
139.329
139.314
139.297
139.279
139.261
139.241
139.222
139.203
139.184
139.166
139.148
139.13
139.113
139.097
139.082
139.067
139.053
139.041
139.03
139.022
139.018
139.017
139.021
139.03
139.046
139.067
139.094
139.126
139.164
139.205
139.248
139.292
139.334
139.374
139.408
139.436
139.458
139.471
139.105
139.137
139.17
139.203
139.234
139.262
139.287
139.308
139.325
139.338
139.348
139.355
139.361
139.365
139.369
139.372
139.374
139.375
139.374
139.372
139.368
139.362
139.353
139.342
139.328
139.313
139.297
139.279
139.26
139.241
139.221
139.202
139.183
139.165
139.147
139.129
139.113
139.096
139.08
139.066
139.052
139.04
139.029
139.022
139.017
139.017
139.021
139.031
139.047
139.068
139.096
139.128
139.166
139.207
139.25
139.294
139.336
139.375
139.408
139.446
139.039
139.073
139.106
139.138
139.171
139.202
139.233
139.26
139.285
139.305
139.322
139.335
139.345
139.353
139.359
139.364
139.367
139.371
139.373
139.374
139.374
139.371
139.367
139.361
139.352
139.341
139.328
139.312
139.296
139.278
139.259
139.24
139.221
139.202
139.183
139.165
139.147
139.13
139.113
139.097
139.081
139.066
139.052
139.04
139.03
139.022
139.018
139.018
139.023
139.033
139.049
139.071
139.098
139.131
139.169
139.21
139.253
139.296
139.334
139.391
138.964
139.007
139.046
139.083
139.118
139.151
139.184
139.215
139.244
139.271
139.295
139.315
139.331
139.343
139.353
139.36
139.365
139.369
139.372
139.374
139.376
139.376
139.375
139.373
139.368
139.361
139.351
139.34
139.326
139.31
139.293
139.275
139.256
139.236
139.216
139.197
139.178
139.159
139.141
139.124
139.107
139.09
139.075
139.06
139.046
139.034
139.024
139.017
139.014
139.014
139.02
139.031
139.048
139.072
139.101
139.135
139.174
139.218
139.257
139.326
138.844
138.883
138.922
138.962
139
139.038
139.074
139.109
139.143
139.176
139.207
139.236
139.262
139.285
139.304
139.32
139.334
139.344
139.352
139.359
139.364
139.369
139.372
139.373
139.374
139.373
139.37
139.365
139.357
139.348
139.337
139.323
139.308
139.292
139.274
139.256
139.238
139.219
139.2
139.181
139.163
139.145
139.127
139.11
139.094
139.078
139.064
139.05
139.039
139.029
139.023
139.02
139.022
139.028
139.04
139.058
139.08
139.11
139.138
139.2
)
;

boundaryField
{
    bottomwall
    {
        type            opaque;
        refValue        nonuniform List<scalar> 
60
(
143.312
145.501
146.741
147.505
148.003
148.343
148.585
148.768
148.912
149.034
149.145
149.25
149.35
149.447
149.541
149.631
149.722
149.814
149.907
150.003
150.1
150.197
150.291
150.378
150.459
150.534
150.611
150.698
150.8
150.908
150.993
151.014
150.932
150.751
150.547
150.487
150.815
151.8
153.663
156.498
160.224
164.578
169.15
173.468
177.088
179.691
181.121
181.363
180.486
178.602
175.838
172.347
168.323
164.009
159.674
155.578
151.904
148.71
145.812
142.59
)
;
        refGradient     uniform 0;
        valueFraction   uniform 1;