/*--------------------------------*- C++ -*----------------------------------*\
| =========                 |                                                 |
| \\      /  F ield         | OpenFOAM: The Open Source CFD Toolbox           |
|  \\    /   O peration     | Version:  2406                                  |
|   \\  /    A nd           | Website:  www.openfoam.com                      |
|    \\/     M anipulation  |                                                 |
\*---------------------------------------------------------------------------*/
FoamFile
{
    version     2.0;
    format      ascii;
    arch        "LSB;label=32;scalar=64";
    class       volScalarField;
    location    "5000";
    object      ILambda_5_0;
}
// * * * * * * * * * * * * * * * * * * * * * * * * * * * * * * * * * * * * * //

dimensions      [1 0 -3 0 0 0 0];

internalField   nonuniform List<scalar> 
3600
(
138.994
139.004
139.014
139.024
139.033
139.043
139.052
139.061
139.069
139.077
139.085
139.092
139.099
139.106
139.113
139.12
139.127
139.135
139.142
139.15
139.159
139.168
139.178
139.189
139.2
139.212
139.225
139.238
139.252
139.266
139.28
139.294
139.309
139.323
139.337
139.35
139.362
139.374
139.384
139.394
139.402
139.408
139.413
139.417
139.419
139.419
139.417
139.414
139.409
139.403
139.396
139.387
139.376
139.365
139.353
139.34
139.326
139.312
139.299
139.275
139.091
139.1
139.109
139.117
139.125
139.131
139.138
139.144
139.15
139.156
139.162
139.168
139.176
139.183
139.192
139.202
139.212
139.224
139.236
139.249
139.263
139.278
139.294
139.309
139.325
139.341
139.357
139.372
139.386
139.4
139.412
139.423
139.432
139.439
139.445
139.448
139.45
139.449
139.447
139.442
139.435
139.427
139.416
139.404
139.391
139.376
139.36
139.343
139.326
139.308
139.29
139.271
139.253
139.235
139.218
139.201
139.185
139.169
139.157
139.136
139.138
139.143
139.148
139.152
139.157
139.163
139.169
139.176
139.184
139.193
139.203
139.214
139.227
139.24
139.254
139.269
139.285
139.301
139.317
139.334
139.35
139.365
139.38
139.394
139.406
139.417
139.426
139.434
139.439
139.443
139.444
139.443
139.44
139.435
139.428
139.419
139.408
139.396
139.382
139.368
139.352
139.335
139.318
139.3
139.282
139.264
139.247
139.229
139.213
139.197
139.182
139.168
139.155
139.143
139.132
139.122
139.113
139.106
139.1
139.092
139.171
139.177
139.185
139.193
139.203
139.214
139.226
139.239
139.254
139.269
139.285
139.302
139.319
139.336
139.352
139.369
139.384
139.398
139.411
139.423
139.433
139.44
139.446
139.45
139.451
139.45
139.447
139.441
139.434
139.424
139.413
139.4
139.385
139.37
139.353
139.336
139.317
139.299
139.281
139.262
139.244
139.226
139.209
139.193
139.178
139.163
139.15
139.138
139.127
139.117
139.109
139.101
139.095
139.09
139.086
139.083
139.081
139.079
139.078
139.079
139.223
139.236
139.251
139.266
139.283
139.3
139.318
139.335
139.353
139.37
139.386
139.401
139.415
139.427
139.437
139.445
139.451
139.455
139.456
139.455
139.451
139.445
139.437
139.427
139.415
139.401
139.385
139.369
139.351
139.333
139.314
139.295
139.276
139.257
139.238
139.22
139.203
139.186
139.171
139.156
139.143
139.131
139.121
139.111
139.103
139.096
139.09
139.086
139.082
139.08
139.078
139.077
139.077
139.077
139.078
139.08
139.082
139.084
139.086
139.089
139.316
139.335
139.353
139.372
139.389
139.405
139.419
139.432
139.443
139.451
139.457
139.461
139.462
139.46
139.456
139.45
139.441
139.43
139.417
139.402
139.386
139.369
139.35
139.331
139.311
139.291
139.271
139.252
139.233
139.214
139.196
139.18
139.164
139.15
139.137
139.125
139.115
139.106
139.098
139.091
139.086
139.082
139.079
139.077
139.076
139.075
139.076
139.077
139.078
139.08
139.082
139.084
139.087
139.09
139.092
139.095
139.097
139.1
139.102
139.106
139.424
139.438
139.449
139.458
139.464
139.468
139.469
139.467
139.462
139.455
139.446
139.434
139.42
139.404
139.387
139.368
139.349
139.328
139.308
139.287
139.266
139.246
139.226
139.207
139.19
139.173
139.157
139.143
139.13
139.119
139.108
139.1
139.092
139.086
139.082
139.078
139.076
139.074
139.074
139.074
139.075
139.076
139.078
139.08
139.083
139.085
139.088
139.091
139.094
139.096
139.099
139.102
139.104
139.106
139.109
139.111
139.113
139.114
139.116
139.119
139.477
139.474
139.469
139.461
139.451
139.438
139.423
139.406
139.387
139.367
139.347
139.325
139.304
139.282
139.261
139.24
139.22
139.2
139.182
139.165
139.15
139.136
139.123
139.112
139.102
139.094
139.087
139.082
139.078
139.075
139.073
139.072
139.072
139.072
139.074
139.076
139.078
139.08
139.083
139.086
139.089
139.092
139.095
139.098
139.101
139.104
139.106
139.108
139.111
139.113
139.114
139.116
139.118
139.12
139.121
139.123
139.125
139.127
139.128
139.133
139.426
139.407
139.387
139.366
139.344
139.322
139.299
139.277
139.254
139.233
139.212
139.193
139.174
139.157
139.142
139.128
139.116
139.105
139.096
139.088
139.082
139.077
139.073
139.071
139.07
139.07
139.07
139.071
139.073
139.076
139.078
139.081
139.084
139.088
139.091
139.094
139.097
139.1
139.103
139.106
139.108
139.111
139.113
139.115
139.116
139.118
139.12
139.121
139.123
139.124
139.126
139.128
139.13
139.132
139.135
139.138
139.141
139.145
139.149
139.157
139.294
139.27
139.247
139.225
139.204
139.184
139.166
139.149
139.134
139.12
139.108
139.098
139.089
139.082
139.076
139.072
139.069
139.068
139.067
139.068
139.069
139.071
139.073
139.076
139.079
139.082
139.086
139.089
139.093
139.096
139.099
139.102
139.105
139.108
139.11
139.113
139.115
139.116
139.118
139.12
139.121
139.123
139.124
139.126
139.127
139.129
139.131
139.133
139.136
139.139
139.142
139.146
139.15
139.155
139.16
139.166
139.172
139.18
139.186
139.199
139.157
139.14
139.125
139.112
139.1
139.09
139.082
139.076
139.071
139.068
139.066
139.065
139.065
139.066
139.068
139.07
139.073
139.076
139.08
139.083
139.087
139.091
139.095
139.098
139.101
139.105
139.107
139.11
139.113
139.115
139.117
139.118
139.12
139.122
139.123
139.124
139.126
139.127
139.129
139.13
139.132
139.135
139.137
139.14
139.143
139.147
139.151
139.156
139.161
139.167
139.174
139.181
139.188
139.196
139.205
139.214
139.224
139.235
139.244
139.262
139.076
139.07
139.066
139.064
139.062
139.062
139.063
139.065
139.067
139.07
139.073
139.077
139.081
139.085
139.089
139.093
139.097
139.1
139.104
139.107
139.11
139.112
139.115
139.117
139.119
139.12
139.122
139.123
139.124
139.126
139.127
139.128
139.13
139.131
139.133
139.136
139.138
139.141
139.144
139.148
139.152
139.157
139.162
139.168
139.175
139.182
139.19
139.198
139.207
139.216
139.226
139.236
139.247
139.258
139.27
139.282
139.294
139.307
139.318
139.338
139.061
139.064
139.067
139.07
139.074
139.078
139.083
139.087
139.091
139.095
139.099
139.103
139.106
139.109
139.112
139.115
139.117
139.119
139.121
139.122
139.124
139.125
139.126
139.127
139.128
139.13
139.131
139.133
139.134
139.137
139.139
139.142
139.145
139.149
139.153
139.158
139.163
139.169
139.176
139.183
139.191
139.199
139.208
139.218
139.228
139.238
139.249
139.26
139.272
139.284
139.297
139.309
139.322
139.335
139.347
139.36
139.373
139.385
139.396
139.414
139.084
139.089
139.093
139.098
139.102
139.105
139.109
139.112
139.115
139.117
139.119
139.121
139.123
139.124
139.125
139.126
139.127
139.128
139.13
139.131
139.132
139.134
139.135
139.137
139.14
139.143
139.146
139.15
139.154
139.159
139.164
139.17
139.177
139.184
139.192
139.201
139.21
139.219
139.229
139.24
139.251
139.262
139.274
139.287
139.299
139.312
139.324
139.337
139.35
139.363
139.375
139.388
139.4
139.412
139.423
139.434
139.444
139.453
139.461
139.474
139.111
139.114
139.117
139.119
139.121
139.123
139.125
139.126
139.127
139.128
139.129
139.13
139.131
139.132
139.133
139.135
139.136
139.138
139.141
139.144
139.147
139.151
139.155
139.16
139.165
139.172
139.178
139.186
139.193
139.202
139.211
139.221
139.231
139.242
139.253
139.265
139.276
139.289
139.301
139.314
139.327
139.34
139.353
139.366
139.378
139.391
139.403
139.414
139.426
139.436
139.446
139.456
139.465
139.472
139.48
139.486
139.491
139.495
139.499
139.502
139.126
139.127
139.128
139.129
139.13
139.131
139.132
139.133
139.134
139.135
139.137
139.139
139.142
139.144
139.148
139.152
139.156
139.161
139.166
139.173
139.179
139.187
139.195
139.203
139.213
139.222
139.233
139.244
139.255
139.267
139.279
139.291
139.304
139.317
139.329
139.342
139.355
139.368
139.381
139.393
139.405
139.417
139.428
139.439
139.449
139.458
139.467
139.475
139.482
139.488
139.493
139.497
139.5
139.503
139.504
139.504
139.503
139.501
139.499
139.491
139.133
139.134
139.135
139.136
139.138
139.14
139.142
139.145
139.149
139.152
139.157
139.162
139.167
139.174
139.181
139.188
139.196
139.205
139.214
139.224
139.234
139.245
139.257
139.269
139.281
139.293
139.306
139.319
139.332
139.345
139.358
139.371
139.384
139.396
139.408
139.42
139.431
139.442
139.452
139.461
139.47
139.477
139.484
139.49
139.495
139.499
139.502
139.504
139.505
139.505
139.504
139.501
139.498
139.494
139.489
139.482
139.475
139.467
139.46
139.444
139.143
139.146
139.149
139.153
139.158
139.163
139.169
139.175
139.182
139.189
139.197
139.206
139.216
139.226
139.236
139.247
139.259
139.271
139.283
139.296
139.308
139.321
139.335
139.348
139.361
139.374
139.386
139.399
139.411
139.423
139.434
139.444
139.454
139.464
139.472
139.48
139.486
139.492
139.497
139.501
139.504
139.505
139.506
139.506
139.504
139.502
139.498
139.494
139.488
139.482
139.475
139.466
139.457
139.447
139.437
139.426
139.414
139.401
139.39
139.369
139.169
139.176
139.183
139.191
139.199
139.208
139.217
139.227
139.238
139.249
139.261
139.273
139.285
139.298
139.311
139.324
139.337
139.35
139.363
139.376
139.389
139.402
139.414
139.426
139.437
139.447
139.457
139.466
139.475
139.482
139.489
139.494
139.499
139.502
139.505
139.507
139.507
139.506
139.505
139.502
139.498
139.494
139.488
139.481
139.474
139.465
139.456
139.446
139.435
139.423
139.411
139.399
139.386
139.372
139.359
139.345
139.33
139.316
139.303
139.28
139.219
139.229
139.24
139.251
139.263
139.275
139.287
139.3
139.313
139.326
139.34
139.353
139.366
139.379
139.392
139.405
139.417
139.428
139.439
139.45
139.46
139.469
139.477
139.484
139.491
139.496
139.501
139.504
139.507
139.508
139.508
139.507
139.505
139.502
139.498
139.493
139.487
139.48
139.472
139.464
139.454
139.444
139.433
139.421
139.409
139.396
139.383
139.369
139.355
139.341
139.327
139.312
139.298
139.283
139.269
139.254
139.24
139.226
139.214
139.193
139.289
139.302
139.316
139.329
139.342
139.356
139.369
139.382
139.395
139.407
139.42
139.431
139.442
139.453
139.462
139.471
139.479
139.487
139.493
139.498
139.503
139.506
139.508
139.509
139.509
139.508
139.506
139.503
139.498
139.493
139.487
139.48
139.471
139.462
139.453
139.442
139.431
139.419
139.406
139.393
139.38
139.366
139.352
139.338
139.323
139.308
139.294
139.279
139.265
139.25
139.236
139.222
139.209
139.195
139.182
139.17
139.158
139.146
139.136
139.119
139.372
139.385
139.398
139.41
139.422
139.434
139.445
139.455
139.465
139.474
139.482
139.489
139.495
139.5
139.505
139.508
139.51
139.51
139.51
139.509
139.506
139.503
139.498
139.493
139.486
139.479
139.47
139.461
139.451
139.44
139.428
139.416
139.404
139.39
139.377
139.363
139.348
139.334
139.319
139.305
139.29
139.275
139.261
139.246
139.232
139.218
139.204
139.191
139.178
139.166
139.154
139.142
139.131
139.121
139.111
139.102
139.093
139.084
139.077
139.067
139.448
139.458
139.468
139.477
139.484
139.491
139.497
139.502
139.506
139.509
139.511
139.512
139.511
139.51
139.507
139.503
139.498
139.492
139.486
139.478
139.469
139.459
139.449
139.438
139.426
139.414
139.401
139.387
139.374
139.359
139.345
139.33
139.316
139.301
139.286
139.271
139.257
139.242
139.228
139.214
139.2
139.187
139.174
139.162
139.15
139.139
139.128
139.117
139.108
139.098
139.09
139.082
139.074
139.067
139.061
139.055
139.05
139.045
139.041
139.036
139.5
139.505
139.508
139.511
139.512
139.513
139.512
139.51
139.507
139.503
139.498
139.492
139.485
139.477
139.468
139.458
139.447
139.436
139.424
139.411
139.398
139.384
139.37
139.356
139.341
139.327
139.312
139.297
139.282
139.267
139.252
139.238
139.224
139.21
139.196
139.183
139.17
139.158
139.146
139.135
139.124
139.114
139.104
139.095
139.087
139.079
139.071
139.065
139.058
139.053
139.048
139.043
139.039
139.036
139.033
139.03
139.028
139.026
139.025
139.024
139.513
139.511
139.508
139.503
139.498
139.491
139.484
139.476
139.466
139.456
139.445
139.434
139.421
139.409
139.395
139.381
139.367
139.353
139.338
139.323
139.308
139.293
139.278
139.263
139.248
139.234
139.22
139.206
139.192
139.179
139.166
139.154
139.142
139.131
139.12
139.11
139.101
139.092
139.084
139.076
139.069
139.062
139.056
139.051
139.046
139.041
139.037
139.034
139.031
139.029
139.027
139.026
139.025
139.024
139.024
139.024
139.024
139.025
139.026
139.028
139.483
139.475
139.465
139.455
139.443
139.431
139.419
139.406
139.392
139.378
139.364
139.349
139.334
139.319
139.304
139.289
139.274
139.259
139.244
139.23
139.215
139.202
139.188
139.175
139.162
139.15
139.139
139.127
139.117
139.107
139.098
139.089
139.081
139.073
139.066
139.06
139.054
139.048
139.044
139.04
139.036
139.033
139.03
139.028
139.026
139.025
139.024
139.024
139.023
139.024
139.024
139.025
139.026
139.027
139.029
139.031
139.033
139.035
139.037
139.042
139.416
139.403
139.389
139.375
139.36
139.345
139.33
139.315
139.3
139.285
139.27
139.255
139.24
139.225
139.211
139.197
139.184
139.171
139.158
139.146
139.135
139.124
139.113
139.104
139.094
139.086
139.078
139.07
139.063
139.057
139.051
139.046
139.042
139.038
139.034
139.031
139.029
139.027
139.025
139.024
139.023
139.023
139.023
139.023
139.024
139.025
139.026
139.028
139.03
139.031
139.034
139.036
139.039
139.041
139.044
139.047
139.05
139.054
139.057
139.063
139.327
139.311
139.296
139.281
139.266
139.251
139.236
139.221
139.207
139.193
139.18
139.167
139.154
139.142
139.131
139.12
139.11
139.1
139.091
139.083
139.075
139.067
139.061
139.055
139.049
139.044
139.04
139.036
139.033
139.03
139.028
139.026
139.025
139.024
139.023
139.023
139.023
139.023
139.024
139.025
139.027
139.028
139.03
139.032
139.034
139.037
139.039
139.042
139.045
139.048
139.052
139.055
139.058
139.062
139.066
139.07
139.074
139.078
139.081
139.088
139.231
139.217
139.203
139.189
139.176
139.163
139.15
139.138
139.127
139.116
139.106
139.097
139.088
139.08
139.072
139.065
139.058
139.052
139.047
139.042
139.038
139.035
139.031
139.029
139.027
139.025
139.024
139.023
139.023
139.022
139.023
139.023
139.024
139.025
139.027
139.029
139.031
139.033
139.035
139.038
139.04
139.043
139.046
139.049
139.053
139.056
139.06
139.063
139.067
139.071
139.075
139.079
139.083
139.088
139.092
139.096
139.101
139.106
139.11
139.118
139.146
139.135
139.123
139.113
139.103
139.093
139.085
139.077
139.069
139.062
139.056
139.05
139.045
139.04
139.037
139.033
139.03
139.028
139.026
139.024
139.023
139.022
139.022
139.022
139.023
139.023
139.024
139.026
139.027
139.029
139.031
139.033
139.036
139.038
139.041
139.044
139.047
139.05
139.054
139.057
139.061
139.064
139.068
139.072
139.076
139.08
139.085
139.089
139.093
139.098
139.102
139.107
139.112
139.117
139.122
139.127
139.132
139.137
139.142
139.151
139.081
139.074
139.066
139.06
139.053
139.048
139.043
139.039
139.035
139.032
139.029
139.027
139.025
139.023
139.022
139.022
139.022
139.022
139.023
139.023
139.025
139.026
139.028
139.03
139.032
139.034
139.036
139.039
139.042
139.045
139.048
139.051
139.055
139.058
139.062
139.066
139.07
139.073
139.078
139.082
139.086
139.09
139.095
139.099
139.104
139.109
139.113
139.118
139.123
139.128
139.134
139.139
139.144
139.15
139.155
139.161
139.167
139.173
139.178
139.187
139.041
139.037
139.033
139.03
139.028
139.025
139.024
139.023
139.022
139.022
139.022
139.022
139.023
139.024
139.025
139.026
139.028
139.03
139.032
139.035
139.037
139.04
139.043
139.046
139.049
139.052
139.056
139.059
139.063
139.067
139.071
139.075
139.079
139.083
139.087
139.092
139.096
139.101
139.105
139.11
139.115
139.12
139.125
139.13
139.135
139.14
139.146
139.151
139.157
139.163
139.168
139.174
139.18
139.186
139.192
139.198
139.204
139.21
139.216
139.226
139.023
139.022
139.021
139.021
139.021
139.022
139.023
139.024
139.025
139.027
139.029
139.031
139.033
139.035
139.038
139.041
139.044
139.047
139.05
139.054
139.057
139.061
139.064
139.068
139.072
139.076
139.08
139.084
139.089
139.093
139.098
139.102
139.107
139.112
139.116
139.121
139.126
139.131
139.137
139.142
139.147
139.153
139.158
139.164
139.17
139.176
139.182
139.188
139.194
139.2
139.206
139.212
139.218
139.224
139.231
139.237
139.243
139.249
139.255
139.265
139.023
139.024
139.025
139.027
139.029
139.031
139.034
139.036
139.039
139.042
139.045
139.048
139.051
139.055
139.058
139.062
139.066
139.069
139.073
139.077
139.082
139.086
139.09
139.094
139.099
139.104
139.108
139.113
139.118
139.123
139.128
139.133
139.138
139.144
139.149
139.154
139.16
139.166
139.172
139.177
139.183
139.189
139.195
139.201
139.207
139.214
139.22
139.226
139.232
139.238
139.245
139.251
139.257
139.263
139.269
139.275
139.281
139.287
139.292
139.301
139.034
139.037
139.04
139.043
139.046
139.049
139.052
139.056
139.059
139.063
139.067
139.071
139.075
139.079
139.083
139.087
139.091
139.096
139.1
139.105
139.11
139.114
139.119
139.124
139.129
139.135
139.14
139.145
139.151
139.156
139.162
139.167
139.173
139.179
139.185
139.191
139.197
139.203
139.209
139.215
139.221
139.228
139.234
139.24
139.246
139.253
139.259
139.265
139.271
139.277
139.283
139.288
139.294
139.3
139.305
139.31
139.315
139.32
139.324
139.331
139.053
139.057
139.061
139.064
139.068
139.072
139.076
139.08
139.084
139.088
139.093
139.097
139.102
139.106
139.111
139.116
139.121
139.126
139.131
139.136
139.141
139.147
139.152
139.158
139.163
139.169
139.175
139.181
139.187
139.193
139.199
139.205
139.211
139.217
139.223
139.229
139.236
139.242
139.248
139.254
139.26
139.266
139.272
139.278
139.284
139.29
139.296
139.301
139.306
139.312
139.317
139.321
139.326
139.33
139.335
139.339
139.342
139.346
139.349
139.353
139.077
139.081
139.086
139.09
139.094
139.099
139.103
139.108
139.113
139.117
139.122
139.127
139.132
139.138
139.143
139.148
139.154
139.159
139.165
139.171
139.176
139.182
139.188
139.194
139.2
139.206
139.212
139.219
139.225
139.231
139.237
139.243
139.25
139.256
139.262
139.268
139.274
139.28
139.286
139.292
139.297
139.303
139.308
139.313
139.318
139.323
139.327
139.332
139.336
139.34
139.344
139.347
139.35
139.353
139.356
139.358
139.361
139.363
139.364
139.367
139.105
139.109
139.114
139.119
139.124
139.129
139.134
139.139
139.144
139.15
139.155
139.161
139.167
139.172
139.178
139.184
139.19
139.196
139.202
139.208
139.214
139.22
139.226
139.233
139.239
139.245
139.251
139.258
139.264
139.27
139.276
139.282
139.288
139.293
139.299
139.304
139.31
139.315
139.32
139.324
139.329
139.333
139.337
139.341
139.345
139.348
139.351
139.354
139.357
139.359
139.362
139.364
139.365
139.367
139.368
139.369
139.37
139.371
139.372
139.373
139.136
139.141
139.146
139.151
139.157
139.163
139.168
139.174
139.18
139.186
139.191
139.197
139.204
139.21
139.216
139.222
139.228
139.234
139.241
139.247
139.253
139.259
139.265
139.271
139.277
139.283
139.289
139.295
139.3
139.306
139.311
139.316
139.321
139.326
139.33
139.335
139.339
139.343
139.346
139.35
139.353
139.355
139.358
139.36
139.363
139.364
139.366
139.368
139.369
139.37
139.371
139.372
139.372
139.373
139.373
139.373
139.373
139.373
139.373
139.372
139.17
139.176
139.181
139.187
139.193
139.199
139.205
139.211
139.217
139.224
139.23
139.236
139.242
139.248
139.255
139.261
139.267
139.273
139.279
139.285
139.291
139.296
139.302
139.307
139.313
139.318
139.323
139.327
139.332
139.336
139.34
139.344
139.347
139.351
139.354
139.357
139.359
139.361
139.363
139.365
139.367
139.368
139.369
139.37
139.371
139.372
139.372
139.373
139.373
139.373
139.373
139.373
139.373
139.373
139.372
139.372
139.371
139.37
139.37
139.368
139.207
139.213
139.219
139.225
139.231
139.238
139.244
139.25
139.256
139.262
139.269
139.275
139.281
139.286
139.292
139.298
139.303
139.309
139.314
139.319
139.324
139.329
139.333
139.338
139.342
139.345
139.349
139.352
139.355
139.358
139.36
139.362
139.364
139.366
139.368
139.369
139.37
139.371
139.372
139.372
139.373
139.373
139.373
139.373
139.373
139.373
139.373
139.373
139.372
139.372
139.371
139.37
139.37
139.369
139.368
139.367
139.365
139.364
139.363
139.361
139.246
139.252
139.258
139.264
139.27
139.276
139.282
139.288
139.294
139.299
139.305
139.31
139.316
139.321
139.326
139.33
139.335
139.339
139.343
139.347
139.35
139.353
139.356
139.359
139.361
139.363
139.365
139.367
139.368
139.37
139.371
139.371
139.372
139.373
139.373
139.373
139.373
139.373
139.373
139.373
139.373
139.372
139.372
139.372
139.371
139.37
139.369
139.369
139.368
139.367
139.365
139.364
139.363
139.361
139.36
139.359
139.358
139.357
139.356
139.356
139.284
139.29
139.295
139.301
139.306
139.312
139.317
139.322
139.327
139.332
139.336
139.34
139.344
139.348
139.351
139.355
139.357
139.36
139.362
139.364
139.366
139.368
139.369
139.37
139.371
139.372
139.372
139.373
139.373
139.373
139.373
139.373
139.373
139.373
139.372
139.372
139.372
139.371
139.371
139.37
139.369
139.368
139.367
139.366
139.365
139.364
139.363
139.361
139.36
139.358
139.357
139.355
139.354
139.353
139.352
139.352
139.352
139.351
139.352
139.352
139.319
139.324
139.328
139.333
139.337
139.342
139.346
139.349
139.353
139.356
139.359
139.361
139.363
139.366
139.367
139.369
139.37
139.371
139.372
139.372
139.373
139.373
139.373
139.373
139.373
139.373
139.373
139.372
139.372
139.372
139.371
139.371
139.37
139.369
139.369
139.368
139.367
139.366
139.365
139.364
139.362
139.361
139.359
139.358
139.356
139.354
139.353
139.351
139.35
139.348
139.347
139.347
139.346
139.346
139.345
139.345
139.344
139.343
139.342
139.335
139.347
139.35
139.354
139.357
139.36
139.362
139.365
139.367
139.368
139.37
139.371
139.372
139.372
139.373
139.373
139.373
139.373
139.373
139.373
139.373
139.372
139.372
139.372
139.371
139.371
139.37
139.369
139.369
139.368
139.368
139.367
139.366
139.365
139.364
139.362
139.361
139.359
139.357
139.355
139.353
139.351
139.349
139.347
139.346
139.344
139.342
139.341
139.34
139.339
139.338
139.337
139.336
139.334
139.331
139.327
139.321
139.314
139.302
139.293
139.262
139.366
139.368
139.369
139.371
139.372
139.372
139.373
139.374
139.374
139.374
139.374
139.373
139.373
139.373
139.372
139.372
139.371
139.37
139.37
139.369
139.369
139.368
139.367
139.367
139.366
139.365
139.364
139.363
139.362
139.361
139.359
139.357
139.355
139.353
139.351
139.348
139.346
139.343
139.341
139.339
139.337
139.335
139.333
139.332
139.33
139.329
139.327
139.324
139.32
139.316
139.309
139.3
139.288
139.274
139.255
139.233
139.207
139.174
139.145
139.076
139.374
139.374
139.374
139.374
139.374
139.373
139.373
139.372
139.372
139.371
139.371
139.37
139.369
139.369
139.368
139.367
139.367
139.366
139.365
139.364
139.364
139.363
139.362
139.36
139.359
139.357
139.355
139.353
139.35
139.348
139.345
139.342
139.339
139.336
139.333
139.33
139.328
139.325
139.323
139.321
139.319
139.316
139.313
139.309
139.303
139.296
139.286
139.273
139.257
139.238
139.214
139.185
139.152
139.114
139.072
139.025
138.975
138.921
138.873
138.783
139.373
139.372
139.372
139.371
139.37
139.369
139.369
139.368
139.367
139.366
139.366
139.365
139.364
139.364
139.363
139.362
139.361
139.36
139.358
139.357
139.355
139.353
139.35
139.347
139.344
139.341
139.337
139.334
139.33
139.327
139.323
139.32
139.317
139.314
139.311
139.308
139.305
139.301
139.296
139.29
139.282
139.271
139.258
139.241
139.22
139.195
139.165
139.13
139.09
139.046
138.998
138.946
138.891
138.835
138.779
138.725
138.673
138.627
138.588
138.551
139.368
139.367
139.366
139.365
139.365
139.364
139.363
139.362
139.362
139.361
139.36
139.359
139.358
139.356
139.354
139.352
139.35
139.347
139.344
139.34
139.337
139.333
139.328
139.324
139.32
139.315
139.311
139.307
139.304
139.3
139.296
139.292
139.288
139.283
139.276
139.267
139.256
139.242
139.224
139.202
139.176
139.145
139.108
139.067
139.021
138.972
138.918
138.863
138.807
138.751
138.697
138.649
138.606
138.572
138.55
138.54
138.545
138.573
138.599
138.72
139.362
139.361
139.361
139.36
139.359
139.358
139.357
139.355
139.354
139.352
139.349
139.347
139.344
139.34
139.336
139.332
139.327
139.322
139.317
139.312
139.307
139.302
139.297
139.292
139.288
139.283
139.279
139.274
139.268
139.261
139.252
139.241
139.226
139.208
139.185
139.158
139.126
139.089
139.046
138.999
138.948
138.894
138.838
138.781
138.726
138.675
138.629
138.591
138.564
138.549
138.55
138.569
138.607
138.666
138.747
138.853
138.981
139.143
139.285
139.628
139.356
139.354
139.353
139.351
139.349
139.346
139.343
139.34
139.336
139.332
139.327
139.322
139.316
139.31
139.304
139.298
139.292
139.286
139.28
139.275
139.269
139.264
139.259
139.253
139.245
139.236
139.225
139.211
139.192
139.17
139.142
139.109
139.071
139.028
138.98
138.927
138.872
138.816
138.76
138.706
138.656
138.614
138.582
138.562
138.557
138.57
138.602
138.657
138.735
138.837
138.965
139.119
139.299
139.503
139.73
139.979
140.245
140.54
140.792
141.297
139.343
139.339
139.335
139.331
139.326
139.321
139.316
139.309
139.303
139.296
139.289
139.281
139.274
139.267
139.261
139.254
139.248
139.242
139.236
139.229
139.22
139.209
139.195
139.178
139.155
139.128
139.095
139.057
139.013
138.964
138.911
138.855
138.799
138.743
138.69
138.644
138.606
138.58
138.568
138.574
138.6
138.648
138.72
138.819
138.944
139.097
139.278
139.485
139.717
139.972
140.249
140.543
140.852
141.173
141.501
141.834
142.164
142.502
142.783
143.278
139.315
139.309
139.302
139.295
139.287
139.279
139.271
139.263
139.254
139.246
139.239
139.232
139.225
139.218
139.211
139.203
139.193
139.18
139.164
139.143
139.117
139.085
139.047
139.003
138.954
138.9
138.844
138.787
138.732
138.681
138.637
138.604
138.585
138.582
138.6
138.64
138.705
138.798
138.919
139.07
139.25
139.458
139.695
139.957
140.242
140.547
140.868
141.202
141.544
141.89
142.236
142.578
142.912
143.235
143.543
143.836
144.108
144.368
144.577
144.904
139.269
139.26
139.251
139.242
139.233
139.224
139.215
139.207
139.199
139.192
139.184
139.176
139.165
139.151
139.132
139.108
139.078
139.042
138.999
138.95
138.897
138.84
138.783
138.728
138.678
138.637
138.609
138.597
138.604
138.634
138.691
138.775
138.89
139.036
139.214
139.423
139.663
139.931
140.224
140.54
140.875
141.223
141.581
141.943
142.305
142.663
143.011
143.346
143.664
143.963
144.241
144.496
144.728
144.937
145.122
145.286
145.429
145.555
145.653
145.791
139.21
139.2
139.19
139.181
139.173
139.165
139.157
139.148
139.137
139.122
139.103
139.077
139.044
139.003
138.956
138.903
138.846
138.788
138.733
138.684
138.645
138.621
138.615
138.633
138.677
138.751
138.856
138.996
139.17
139.378
139.62
139.893
140.195
140.522
140.87
141.234
141.609
141.99
142.371
142.747
143.112
143.462
143.793
144.102
144.386
144.644
144.874
145.078
145.255
145.407
145.537
145.646
145.738
145.815
145.878
145.932
145.977
146.016
146.046
146.09
139.146
139.137
139.128
139.12
139.11
139.097
139.078
139.052
139.018
138.975
138.923
138.867
138.808
138.751
138.7
138.661
138.639
138.64
138.667
138.726
138.818
138.947
139.115
139.32
139.562
139.84
140.15
140.489
140.852
141.233
141.627
142.029
142.431
142.828
143.214
143.583
143.931
144.253
144.546
144.808
145.039
145.238
145.406
145.545
145.659
145.75
145.821
145.877
145.921
145.956
145.985
146.01
146.033
146.055
146.076
146.097
146.117
146.136
146.151
146.175
139.084
139.074
139.06
139.039
139.008
138.965
138.912
138.852
138.79
138.734
138.691
138.667
138.669
138.704
138.776
138.889
139.044
139.242
139.483
139.765
140.084
140.436
140.816
141.217
141.634
142.059
142.485
142.906
143.315
143.706
144.073
144.412
144.719
144.99
145.224
145.421
145.581
145.707
145.803
145.871
145.918
145.947
145.965
145.975
145.982
145.988
145.996
146.008
146.024
146.044
146.067
146.091
146.115
146.137
146.156
146.169
146.178
146.181
146.182
146.176
139.014
138.986
138.939
138.879
138.814
138.756
138.717
138.709
138.742
138.823
138.955
139.139
139.374
139.658
139.987
140.355
140.755
141.181
141.625
142.079
142.535
142.984
143.419
143.834
144.223
144.58
144.901
145.183
145.424
145.623
145.781
145.898
145.977
146.023
146.041
146.039
146.022
145.998
145.973
145.951
145.938
145.934
145.941
145.959
145.985
146.019
146.056
146.093
146.128
146.156
146.175
146.184
146.18
146.165
146.141
146.108
146.072
146.027
145.999
145.909
138.913
138.849
138.804
138.804
138.868
139.005
139.218
139.501
139.846
140.241
140.676
141.138
141.619
142.109
142.6
143.082
143.547
143.987
144.396
144.769
145.1
145.388
145.631
145.827
145.979
146.087
146.155
146.186
146.184
146.156
146.108
146.047
145.982
145.922
145.874
145.842
145.831
145.841
145.869
145.912
145.965
146.024
146.082
146.136
146.179
146.208
146.22
146.214
146.189
146.145
146.085
146.012
145.929
145.84
145.748
145.651
145.552
145.422
145.334
144.972
138.886
139.133
139.51
139.987
140.528
141.104
141.689
142.264
142.817
143.344
143.841
144.303
144.726
145.105
145.435
145.713
145.938
146.111
146.234
146.309
146.342
146.336
146.297
146.233
146.148
146.051
145.949
145.851
145.766
145.703
145.669
145.671
145.707
145.773
145.862
145.964
146.066
146.161
146.24
146.297
146.329
146.333
146.309
146.258
146.181
146.085
145.973
145.851
145.725
145.598
145.473
145.35
145.221
145.077
144.898
144.663
144.355
143.931
143.485
142.469
)
;

boundaryField
{
    bottomwall
    {
        type            opaque;
        refValue        uniform 0;
        refGradient     uniform 0;
        valueFraction   uniform 0;
        source          uniform 0;
        value           nonuniform List<scalar> 
60
(
138.994
139.004
139.014
139.024
139.033
139.043
139.052
139.061
139.069
139.077
139.085
139.092
139.099
139.106
139.113
139.12
139.127
139.135
139.142
139.15
139.159
139.168
139.178
139.189
139.2
139.212
139.225
139.238
139.252
139.266
139.28
139.294
139.309
139.323
139.337
139.35
139.362
139.374
139.384
139.394
139.402
139.408
139.413
139.417
139.419
139.419
139.417
139.414
139.409
139.403
139.396