/*--------------------------------*- C++ -*----------------------------------*\
| =========                 |                                                 |
| \\      /  F ield         | OpenFOAM: The Open Source CFD Toolbox           |
|  \\    /   O peration     | Version:  2406                                  |
|   \\  /    A nd           | Website:  www.openfoam.com                      |
|    \\/     M anipulation  |                                                 |
\*---------------------------------------------------------------------------*/
FoamFile
{
    version     2.0;
    format      ascii;
    arch        "LSB;label=32;scalar=64";
    class       volScalarField;
    location    "5000";
    object      ILambda_18_0;
}
// * * * * * * * * * * * * * * * * * * * * * * * * * * * * * * * * * * * * * //

dimensions      [1 0 -3 0 0 0 0];

internalField   nonuniform List<scalar> 
3600
(
143.666
145.887
146.964
147.648
148.1
148.411
148.636
148.807
148.945
149.063
149.172
149.276
149.375
149.471
149.564
149.654
149.745
149.837
149.932
150.028
150.125
150.221
150.314
150.399
150.478
150.553
150.632
150.724
150.829
150.934
151.006
151.001
150.888
150.689
150.502
150.519
150.996
152.194
154.308
157.388
161.306
165.754
170.3
174.469
177.848
180.158
181.282
181.23
180.086
177.964
174.999
171.352
167.232
162.89
158.598
154.604
151.08
148.023
145.033
141.157
144.391
146.551
147.338
147.896
148.269
148.532
148.727
148.879
149.006
149.119
149.225
149.327
149.425
149.519
149.61
149.701
149.792
149.885
149.981
150.078
150.175
150.269
150.358
150.44
150.516
150.593
150.678
150.778
150.886
150.978
151.012
150.948
150.781
150.571
150.464
150.692
151.519
153.179
155.797
159.332
163.56
168.103
172.497
176.294
179.143
180.852
181.37
180.75
179.094
176.524
173.19
169.278
165.017
160.677
156.527
152.789
149.525
146.464
143.058
139.464
145.098
147.087
147.638
148.103
148.413
148.637
148.808
148.946
149.065
149.174
149.278
149.377
149.473
149.565
149.656
149.747
149.839
149.934
150.03
150.127
150.223
150.315
150.4
150.479
150.554
150.635
150.729
150.836
150.939
151.004
150.988
150.866
150.661
150.48
150.516
151.023
152.26
154.41
157.516
161.443
165.881
170.398
174.53
177.872
180.152
181.252
181.181
180.018
177.878
174.897
171.242
167.122
162.791
158.527
154.587
151.103
147.932
144.658
141.218
138.896
145.752
147.505
147.88
148.276
148.535
148.729
148.882
149.009
149.122
149.227
149.329
149.426
149.52
149.612
149.702
149.794
149.887
149.983
150.08
150.177
150.271
150.359
150.44
150.517
150.595
150.682
150.784
150.892
150.98
151.006
150.933
150.757
150.544
150.447
150.695
151.552
153.247
155.895
159.451
163.684
168.214
172.584
176.35
179.171
180.855
181.352
180.711
179.034
176.446
173.096
169.175
164.916
160.593
156.484
152.782
149.459
146.212
142.825
139.924
138.885
146.331
147.825
148.079
148.422
148.64
148.811
148.949
149.067
149.176
149.28
149.379
149.474
149.567
149.658
149.749
149.841
149.936
150.032
150.129
150.225
150.316
150.401
150.479
150.556
150.638
150.734
150.842
150.943
151.003
150.978
150.845
150.635
150.457
150.507
151.04
152.308
154.491
157.623
161.563
165.997
170.497
174.603
177.916
180.171
181.249
181.157
179.973
177.813
174.814
171.145
167.02
162.7
158.467
154.564
151.06
147.767
144.42
141.241
139.232
139.119
146.825
148.068
148.245
148.545
148.732
148.884
149.011
149.124
149.23
149.331
149.428
149.522
149.613
149.704
149.796
149.889
149.985
150.082
150.179
150.272
150.36
150.441
150.518
150.597
150.686
150.79
150.898
150.982
151
150.917
150.733
150.519
150.43
150.698
151.585
153.312
155.99
159.565
163.802
168.322
172.669
176.408
179.202
180.863
181.339
180.678
178.98
176.371
173.005
169.074
164.819
160.519
156.445
152.748
149.35
146.01
142.712
140.086
139.018
139.418
147.237
148.255
148.386
148.651
148.812
148.951
149.07
149.178
149.282
149.381
149.476
149.569
149.659
149.75
149.843
149.938
150.034
150.131
150.227
150.317
150.402
150.48
150.557
150.641
150.739
150.848
150.947
151.001
150.967
150.825
150.609
150.435
150.499
151.057
152.357
154.571
157.729
161.681
166.112
170.595
174.675
177.961
180.19
181.247
181.134
179.929
177.748
174.73
171.048
166.921
162.615
158.414
154.529
150.986
147.608
144.259
141.262
139.404
139.109
139.686
147.574
148.402
148.51
148.743
148.885
149.013
149.126
149.232
149.332
149.43
149.523
149.615
149.706
149.797
149.891
149.987
150.084
150.18
150.274
150.361
150.442
150.519
150.599
150.691
150.796
150.903
150.983
150.994
150.901
150.709
150.494
150.414
150.703
151.618
153.377
156.085
159.678
163.92
168.429
172.754
176.466
179.234
180.871
181.326
180.644
178.925
176.296
172.914
168.975
164.726
160.452
156.403
152.693
149.231
145.847
142.639
140.189
139.134
139.341
139.858
147.848
148.522
148.618
148.824
148.952
149.072
149.181
149.283
149.382
149.478
149.57
149.661
149.752
149.845
149.94
150.036
150.133
150.228
150.319
150.402
150.481
150.559
150.645
150.745
150.854
150.951
150.998
150.955
150.804
150.584
150.413
150.493
151.076
152.407
154.653
157.834
161.798
166.225
170.691
174.746
178.005
180.21
181.244
181.11
179.884
177.682
174.646
170.951
166.824
162.536
158.361
154.481
150.898
147.463
144.137
141.279
139.527
139.155
139.588
139.914
148.071
148.623
148.713
148.896
149.014
149.129
149.234
149.334
149.431
149.525
149.617
149.707
149.799
149.893
149.989
150.086
150.182
150.275
150.362
150.442
150.52
150.602
150.695
150.802
150.909
150.984
150.987
150.884
150.685
150.469
150.399
150.708
151.652
153.444
156.179
159.791
164.037
168.535
172.839
176.524
179.266
180.879
181.313
180.61
178.869
176.22
172.822
168.877
164.638
160.387
156.354
152.625
149.111
145.709
142.585
140.265
139.231
139.33
139.769
139.874
148.253
148.711
148.798
148.962
149.073
149.183
149.285
149.384
149.479
149.572
149.663
149.754
149.847
149.942
150.038
150.135
150.23
150.32
150.403
150.481
150.561
150.649
150.75
150.86
150.954
150.995
150.943
150.783
150.558
150.392
150.487
151.095
152.458
154.735
157.94
161.914
166.338
170.787
174.817
178.05
180.229
181.241
181.086
179.839
177.616
174.56
170.855
166.73
162.46
158.306
154.424
150.802
147.33
144.038
141.291
139.621
139.204
139.542
139.852
139.78
148.403
148.789
148.875
149.023
149.129
149.236
149.336
149.433
149.527
149.618
149.709
149.801
149.895
149.991
150.088
150.184
150.276
150.363
150.443
150.521
150.604
150.7
150.808
150.914
150.984
150.979
150.867
150.661
150.445
150.385
150.714
151.688
153.511
156.275
159.904
164.153
168.64
172.922
176.581
179.297
180.887
181.299
180.575
178.813
176.143
172.729
168.78
164.554
160.323
156.299
152.548
148.994
145.589
142.541
140.323
139.31
139.332
139.71
139.845
139.68
148.529
148.86
148.945
149.081
149.183
149.288
149.386
149.481
149.573
149.665
149.756
149.849
149.944
150.041
150.137
150.232
150.321
150.404
150.482
150.563
150.652
150.756
150.866
150.957
150.992
150.93
150.762
150.533
150.372
150.482
151.116
152.51
154.817
158.046
162.03
166.45
170.882
174.888
178.094
180.248
181.238
181.061
179.793
177.548
174.474
170.759
166.639
162.387
158.248
154.358
150.702
147.208
143.955
141.301
139.695
139.248
139.509
139.8
139.783
139.606
148.637
148.926
149.01
149.136
149.237
149.338
149.435
149.528
149.62
149.711
149.803
149.897
149.993
150.09
150.186
150.278
150.363
150.444
150.522
150.607
150.705
150.814
150.918
150.984
150.971
150.849
150.637
150.421
150.371
150.722
151.724
153.58
156.37
160.016
164.268
168.745
173.006
176.638
179.328
180.895
181.285
180.539
178.755
176.065
172.637
168.686
164.472
160.259
156.238
152.464
148.88
145.483
142.504
140.369
139.374
139.338
139.662
139.813
139.703
139.57
148.731
148.988
149.07
149.19
149.288
149.388
149.482
149.575
149.666
149.758
149.851
149.946
150.043
150.139
150.233
150.322
150.404
150.483
150.565
150.656
150.762
150.871
150.96
150.988
150.917
150.74
150.508
150.352
150.479
151.138
152.563
154.901
158.151
162.146
166.561
170.977
174.958
178.138
180.267
181.234
181.036
179.745
177.479
174.388
170.665
166.551
162.314
158.186
154.286
150.602
147.095
143.882
141.308
139.756
139.286
139.486
139.755
139.773
139.636
139.563
148.814
149.046
149.128
149.242
149.339
149.437
149.53
149.622
149.713
149.805
149.899
149.995
150.092
150.188
150.279
150.364
150.444
150.524
150.61
150.71
150.82
150.923
150.984
150.962
150.831
150.612
150.397
150.358
150.731
151.762
153.649
156.466
160.129
164.383
168.848
173.088
176.695
179.359
180.902
181.27
180.502
178.696
175.987
172.546
168.595
164.392
160.193
156.172
152.376
148.77
145.388
142.472
140.408
139.427
139.345
139.624
139.782
139.712
139.593
139.567
148.889
149.102
149.183
149.293
149.389
149.484
149.577
149.668
149.759
149.853
149.948
150.045
150.141
150.235
150.323
150.405
150.484
150.567
150.661
150.767
150.877
150.962
150.983
150.903
150.718
150.483
150.333
150.476
151.161
152.617
154.984
158.257
162.261
166.671
171.07
175.028
178.181
180.286
181.23
181.01
179.697
177.41
174.302
170.573
166.465
162.242
158.121
154.209
150.501
146.989
143.817
141.314
139.806
139.319
139.469
139.717
139.761
139.653
139.572
139.568
148.957
149.155
149.237
149.343
149.437
149.532
149.623
149.714
149.807
149.901
149.997
150.094
150.189
150.28
150.365
150.445
150.526
150.614
150.715
150.826
150.927
150.983
150.952
150.813
150.588
150.374
150.347
150.74
151.801
153.718
156.562
160.241
164.497
168.951
173.17
176.752
179.39
180.909
181.254
180.465
178.637
175.908
172.456
168.505
164.313
160.125
156.102
152.286
148.664
145.301
142.444
140.439
139.473
139.353
139.594
139.756
139.715
139.609
139.565
139.556
149.02
149.208
149.289
149.392
149.485
149.578
149.67
149.761
149.855
149.95
150.047
150.143
150.236
150.324
150.406
150.485
150.569
150.665
150.773
150.882
150.964
150.978
150.889
150.696
150.458
150.314
150.474
151.186
152.672
155.069
158.363
162.376
166.781
171.163
175.097
178.225
180.305
181.225
180.983
179.648
177.34
174.217
170.482
166.381
162.17
158.053
154.128
150.401
146.89
143.758
141.318
139.849
139.348
139.456
139.686
139.749
139.665
139.583
139.558
139.532
149.08
149.259
149.339
149.441
149.533
149.625
149.716
149.809
149.903
149.999
150.096
150.191
150.281
150.366
150.446
150.527
150.617
150.72
150.832
150.931
150.981
150.942
150.794
150.564
150.351
150.336
150.751
151.841
153.789
156.659
160.353
164.611
169.054
173.252
176.808
179.421
180.915
181.238
180.426
178.576
175.829
172.366
168.416
164.235
160.056
156.027
152.195
148.562
145.22
142.417
140.466
139.511
139.362
139.571
139.732
139.716
139.623
139.567
139.545
139.498
149.137
149.309
149.389
149.489
149.58
149.671
149.763
149.857
149.952
150.049
150.145
150.238
150.325
150.407
150.487
150.572
150.669
150.779
150.887
150.965
150.972
150.874
150.674
150.434
150.296
150.473
151.211
152.728
155.153
158.468
162.49
166.89
171.256
175.166
178.268
180.323
181.22
180.955
179.598
177.269
174.131
170.392
166.297
162.097
157.982
154.045
150.302
146.797
143.705
141.32
139.885
139.373
139.448
139.661
139.737
139.673
139.592
139.554
139.524
139.462
149.192
149.359
149.438
149.536
149.626
149.718
149.811
149.905
150.001
150.098
150.193
150.282
150.367
150.447
150.529
150.621
150.726
150.838
150.934
150.979
150.932
150.775
150.539
150.329
150.325
150.763
151.882
153.86
156.755
160.464
164.724
169.155
173.333
176.864
179.451
180.921
181.221
180.386
178.515
175.75
172.278
168.33
164.157
159.984
155.95
152.102
148.464
145.146
142.393
140.488
139.545
139.371
139.552
139.712
139.714
139.632
139.57
139.539
139.494
139.427
149.245
149.408
149.486
149.582
149.673
149.765
149.859
149.954
150.051
150.147
150.239
150.326
150.407
150.488
150.575
150.674
150.785
150.892
150.966
150.965
150.859
150.651
150.409
150.279
150.474
151.237
152.785
155.238
158.574
162.603
166.999
171.348
175.235
178.31
180.34
181.214
180.926
179.547
177.198
174.046
170.304
166.215
162.023
157.907
153.959
150.205
146.709
143.655
141.321
139.916
139.396
139.442
139.639
139.725
139.678
139.599
139.553
139.517
139.462
139.398
149.296
149.456
149.533
149.629
149.72
149.813
149.907
150.003
150.1
150.194
150.284
150.367
150.448
150.531
150.625
150.731
150.843
150.938
150.976
150.921
150.755
150.515
150.307
150.316
150.776
151.924
153.932
156.852
160.575
164.836
169.256
173.413
176.919
179.481
180.927
181.203
180.346
178.453
175.671
172.19
168.244
164.08
159.911
155.87
152.009
148.37
145.076
142.369
140.507
139.574
139.379
139.536
139.693
139.71
139.64
139.574
139.534
139.49
139.429
139.375
149.347
149.503
149.58
149.675
149.767
149.861
149.956
150.053
150.148
150.24
150.327
150.408
150.49
150.578
150.679
150.791
150.897
150.967
150.959
150.843
150.628
150.385
150.263
150.475
151.265
152.843
155.324
158.679
162.717
167.106
171.439
175.303
178.353
180.358
181.208
180.897
179.495
177.127
173.962
170.217
166.134
161.947
157.831
153.872
150.109
146.625
143.609
141.321
139.942
139.416
139.438
139.621
139.713
139.68
139.606
139.552
139.511
139.459
139.401
139.359
149.396
149.55
149.627
149.722
149.814
149.909
150.006
150.102
150.196
150.285
150.368
150.449
150.534
150.629
150.737
150.849
150.941
150.973
150.909
150.735
150.491
150.286
150.308
150.79
151.967
154.005
156.949
160.686
164.948
169.356
173.493
176.974
179.511
180.932
181.185
180.305
178.391
175.592
172.104
168.16
164.002
159.835
155.788
151.917
148.278
145.01
142.347
140.522
139.6
139.388
139.524
139.677
139.706
139.645
139.577
139.53
139.485
139.429
139.378
139.348
149.445
149.596
149.674
149.769
149.862
149.958
150.055
150.15
150.241
150.327
150.409
150.491
150.581
150.684
150.796
150.902
150.967
150.951
150.827
150.605
150.361
150.247
150.477
151.293
152.901
155.41
158.785
162.829
167.213
171.529
175.37
178.395
180.375
181.201
180.866
179.442
177.055
173.879
170.13
166.052
161.871
157.752
153.783
150.016
146.545
143.565
141.32
139.965
139.435
139.435
139.605
139.702
139.681
139.61
139.552
139.507
139.457
139.402
139.361
139.339
149.493
149.643
149.721
149.817
149.911
150.008
150.104
150.197
150.286
150.369
150.45
150.536
150.633
150.742
150.855
150.943
150.97
150.897
150.715
150.466
150.265
150.3
150.805
152.01
154.078
157.047
160.797
165.059
169.456
173.572
177.029
179.54
180.937
181.166
180.263
178.328
175.513
172.018
168.076
163.923
159.758
155.704
151.824
148.19
144.947
142.326
140.536
139.622
139.396
139.514
139.663
139.7
139.648
139.58
139.528
139.481
139.428
139.38
139.349
139.331
149.54
149.689
149.768
149.865
149.96
150.057
150.152
150.243
150.328
150.41
150.493
150.584
150.689
150.802
150.906
150.967
150.943
150.811
150.582
150.338
150.232
150.481
151.323
152.96
155.497
158.89
162.942
167.32
171.62
175.437
178.437
180.392
181.193
180.835
179.389
176.983
173.796
170.045
165.971
161.794
157.672
153.694
149.924
146.468
143.523
141.317
139.986
139.451
139.434
139.592
139.692
139.68
139.614
139.552
139.504
139.454
139.403
139.363
139.339
139.32
149.587
149.736
149.816
149.914
150.009
150.106
150.199
150.287
150.37
150.452
150.539
150.637
150.748
150.86
150.945
150.966
150.885
150.695
150.442
150.245
150.294
150.821
152.055
154.152
157.144
160.907
165.17
169.555
173.651
177.084
179.569
180.941
181.146
180.22
178.264
175.435
171.934
167.992
163.844
159.679
155.619
151.733
148.104
144.887
142.305
140.547
139.643
139.404
139.506
139.65
139.695
139.65
139.582
139.526
139.478
139.427
139.381
139.349
139.329
139.306
149.634
149.783
149.864
149.963
150.059
150.153
150.244
150.329
150.411
150.495
150.588
150.694
150.808
150.91
150.966
150.935
150.794
150.559
150.315
150.217
150.485
151.353
153.021
155.584
158.996
163.054
167.426
171.709
175.504
178.478
180.408
181.185
180.803
179.335
176.911
173.713
169.961
165.89
161.715
157.59
153.605
149.834
146.395
143.483
141.314
140.004
139.467
139.433
139.58
139.682
139.679
139.617
139.552
139.501
139.452
139.403
139.364
139.338
139.317
139.289
149.681
149.831
149.913
150.012
150.107
150.2
150.288
150.371
150.453
150.541
150.642
150.754
150.865
150.947
150.961
150.872
150.674
150.418
150.225
150.288
150.839
152.101
154.227
157.242
161.017
165.28
169.653
173.73
177.138
179.597
180.945
181.126
180.176
178.2
175.357
171.85
167.909
163.765
159.599
155.532
151.642
148.021
144.83
142.284
140.556
139.661
139.412
139.499
139.638
139.689
139.651
139.584
139.525
139.475
139.426
139.382
139.35
139.328
139.303
139.271
149.728
149.879
149.962
150.061
150.155
150.245
150.33
150.412
150.497
150.592
150.699
150.814
150.914
150.965
150.926
150.776
150.536
150.292
150.204
150.49
151.385
153.081
155.671
159.101
163.165
167.531
171.798
175.57
178.52
180.424
181.176
180.771
179.281
176.84
173.631
169.877
165.809
161.635
157.506
153.515
149.745
146.323
143.444
141.31
140.019
139.481
139.434
139.57
139.673
139.676
139.619
139.553
139.499
139.45
139.403
139.365
139.338
139.316
139.287
139.253
149.776
149.928
150.011
150.11
150.201
150.289
150.372
150.455
150.544
150.646
150.759
150.87
150.949
150.956
150.858
150.653
150.394
150.206
150.283
150.857
152.148
154.302
157.339
161.127
165.389
169.751
173.808
177.191
179.626
180.948
181.104
180.132
178.136
175.279
171.766
167.827
163.684
159.517
155.445
151.551
147.94
144.775
142.264
140.564
139.677
139.419
139.493
139.628
139.683
139.651
139.586
139.524
139.473
139.425
139.383
139.351
139.327
139.301
139.27
139.238
149.824
149.977
150.06
150.157
150.246
150.331
150.413
150.499
150.595
150.705
150.82
150.918
150.963
150.917
150.759
150.513
150.269
150.191
150.496
151.417
153.143
155.759
159.206
163.276
167.636
171.886
175.636
178.56
180.439
181.166
180.737
179.226
176.768
173.55
169.794
165.728
161.555
157.421
153.426
149.658
146.255
143.407
141.306
140.033
139.494
139.434
139.561
139.664
139.674
139.62
139.554
139.497
139.448
139.403
139.366
139.338
139.314
139.286
139.254
139.226
149.872
150.027
150.108
150.203
150.289
150.373
150.456
150.547
150.651
150.765
150.875
150.95
150.951
150.845
150.632
150.37
150.187
150.279
150.876
152.195
154.378
157.437
161.237
165.498
169.849
173.885
177.244
179.653
180.95
181.082
180.087
178.072
175.202
171.683
167.744
163.603
159.435
155.357
151.462
147.861
144.722
142.245
140.57
139.692
139.427
139.489
139.618
139.677
139.651
139.587
139.524
139.471
139.424
139.383
139.351
139.325
139.3
139.269
139.239
139.218
149.921
150.075
150.155
150.248
150.332
150.415
150.501
150.599
150.71
150.825
150.921
150.961
150.907
150.741
150.489
150.247
150.179
150.503
151.451
153.206
155.847
159.312
163.387
167.74
171.974
175.702
178.601
180.454
181.156
180.703
179.17
176.696
173.469
169.711
165.646
161.473
157.336
153.336
149.573
146.188
143.372
141.301
140.045
139.505
139.436
139.553
139.656
139.67
139.621
139.554
139.496
139.447
139.403
139.366
139.338
139.312
139.284
139.254
139.228
139.211
149.97
150.124
150.201
150.291
150.373
150.458
150.55
150.656
150.771
150.88
150.951
150.945
150.83
150.611
150.347
150.169
150.276
150.896
152.244
154.454
157.535
161.346
165.607
169.945
173.962
177.297
179.681
180.952
181.06
180.042
178.008
175.125
171.601
167.662
163.522
159.351
155.269
151.373
147.784
144.671
142.225
140.576
139.705
139.433
139.485
139.61
139.671
139.65
139.588
139.524
139.47
139.423
139.383
139.351
139.324
139.298
139.268
139.24
139.218
139.203
150.019
150.171
150.246
150.333
150.416
150.504
150.603
150.715
150.831
150.924
150.959
150.897
150.722
150.466
150.225
150.167
150.511
151.485
153.269
155.935
159.417
163.497
167.843
172.062
175.767
178.64
180.468
181.145
180.668
179.115
176.625
173.389
169.628
165.564
161.39
157.249
153.247
149.489
146.124
143.337
141.295
140.056
139.516
139.437
139.546
139.648
139.667
139.621
139.555
139.495
139.445
139.402
139.366
139.337
139.311
139.283
139.254
139.228
139.21
139.194
150.067
150.216
150.289
150.375
150.46
150.554
150.661
150.777
150.885
150.952
150.938
150.816
150.589
150.323
150.152
150.273
150.917
152.293
154.531
157.633
161.455
165.715
170.042
174.038
177.35
179.707
180.953
181.036
179.996
177.944
175.049
171.519
167.579
163.439
159.266
155.18
151.286
147.709
144.622
142.206
140.58
139.718
139.44
139.482
139.602
139.665
139.648
139.588
139.523
139.469
139.423
139.383
139.351
139.324
139.297
139.268
139.24
139.219
139.202
139.182
150.114
150.26
150.331
150.418
150.506
150.608
150.721
150.836
150.927
150.956
150.886
150.704
150.443
150.204
150.156
150.52
151.521
153.332
156.024
159.522
163.607
167.946
172.148
175.831
178.68
180.482
181.134
180.633
179.059
176.553
173.309
169.545
165.481
161.306
157.162
153.158
149.407
146.061
143.303
141.289
140.066
139.527
139.439
139.54
139.641
139.663
139.621
139.555
139.494
139.444
139.402
139.366
139.337
139.31
139.282
139.254
139.229
139.21
139.192
139.168
150.16
150.303
150.373
150.462
150.557
150.666
150.783
150.889
150.952
150.932
150.801
150.568
150.3
150.135
150.272
150.939
152.343
154.608
157.731
161.564
165.823
170.137
174.114
177.402
179.734
180.954
181.012
179.949
177.879
174.972
171.437
167.497
163.356
159.18
155.091
151.199
147.636
144.573
142.187
140.583
139.729
139.446
139.479
139.595
139.659
139.646
139.588
139.523
139.468
139.422
139.383
139.351
139.323
139.295
139.267
139.241
139.219
139.201
139.18
139.152
150.205
150.345
150.416
150.51
150.612
150.727
150.842
150.93
150.953
150.875
150.685
150.419
150.182
150.146
150.53
151.557
153.397
156.113
159.626
163.717
168.049
172.235
175.895
178.719
180.495
181.121
180.597
179.002
176.482
173.23
169.463
165.399
161.222
157.074
153.069
149.326
146
143.27
141.282
140.074
139.536
139.441
139.535
139.634
139.659
139.62
139.555
139.494
139.443
139.401
139.366
139.336
139.309
139.281
139.253
139.23
139.21
139.191
139.166
139.137
150.249
150.387
150.461
150.561
150.671
150.788
150.893
150.952
150.924
150.785
150.546
150.276
150.118
150.271
150.963
152.394
154.686
157.83
161.673
165.93
170.232
174.19
177.453
179.759
180.954
180.987
179.902
177.815
174.896
171.356
167.414
163.272
159.094
155.003
151.113
147.564
144.526
142.168
140.585
139.739
139.452
139.477
139.588
139.654
139.644
139.588
139.523
139.467
139.421
139.383
139.35
139.322
139.294
139.267
139.241
139.219
139.2
139.178
139.152
139.124
150.292
150.431
150.509
150.617
150.732
150.847
150.932
150.949
150.863
150.666
150.396
150.162
150.137
150.541
151.594
153.462
156.202
159.731
163.826
168.151
172.321
175.959
178.757
180.507
181.108
180.561
178.946
176.411
173.15
169.381
165.315
161.136
156.986
152.981
149.247
145.941
143.238
141.275
140.082
139.545
139.443
139.53
139.627
139.655
139.619
139.555
139.493
139.442
139.401
139.366
139.336
139.308
139.28
139.253
139.23
139.21
139.189
139.165
139.137
139.113
150.335
150.476
150.562
150.677
150.794
150.897
150.951
150.916
150.769
150.524
150.254
150.102
150.271
150.987
152.446
154.764
157.928
161.781
166.037
170.327
174.265
177.504
179.784
180.953
180.962
179.855
177.75
174.82
171.275
167.331
163.188
159.006
154.914
151.029
147.494
144.481
142.15
140.587
139.748
139.458
139.476
139.582
139.648
139.642
139.588
139.523
139.466
139.42
139.382
139.35
139.321
139.293
139.266
139.241
139.219
139.199
139.177
139.151
139.125
139.105
150.379
150.525
150.618
150.739
150.852
150.934
150.945
150.851
150.646
150.373
150.141
150.128
150.553
151.633
153.528
156.292
159.836
163.934
168.253
172.406
176.022
178.795
180.519
181.095
180.524
178.889
176.34
173.071
169.298
165.231
161.05
156.897
152.893
149.168
145.882
143.206
141.268
140.089
139.553
139.445
139.526
139.621
139.651
139.618
139.555
139.493
139.442
139.4
139.365
139.335
139.307
139.279
139.253
139.23
139.209
139.188
139.164
139.137
139.114
139.098
150.424
150.578
150.679
150.8
150.901
150.95
150.908
150.753
150.502
150.231
150.087
150.272
151.012
152.498
154.843
158.027
161.889
166.143
170.421
174.339
177.554
179.809
180.952
180.936
179.807
177.685
174.744
171.193
167.248
163.103
158.919
154.825
150.945
147.425
144.436
142.132
140.588
139.757
139.464
139.474
139.577
139.643
139.639
139.588
139.523
139.466
139.42
139.382
139.349
139.32
139.293
139.266
139.241
139.219
139.199
139.176
139.15
139.125
139.105
139.093
150.472
150.636
150.741
150.857
150.935
150.94
150.839
150.626
150.349
150.121
150.121
150.566
151.672
153.595
156.381
159.941
164.043
168.354
172.491
176.084
178.832
180.53
181.081
180.486
178.832
176.269
172.992
169.216
165.147
160.964
156.809
152.806
149.091
145.826
143.176
141.261
140.095
139.561
139.447
139.522
139.615
139.647
139.616
139.555
139.493
139.441
139.399
139.365
139.334
139.306
139.279
139.253
139.23
139.209
139.187
139.163
139.137
139.114
139.098
139.09
150.523
150.697
150.803
150.905
150.949
150.9
150.737
150.479
150.208
150.072
150.274
151.037
152.552
154.922
158.125
161.997
166.249
170.515
174.413
177.604
179.833
180.95
180.91
179.76
177.621
174.669
171.112
167.164
163.017
158.831
154.736
150.862
147.358
144.393
142.113
140.589
139.764
139.469
139.473
139.571
139.638
139.637
139.587
139.523
139.465
139.419
139.381
139.349
139.32
139.292
139.266
139.241
139.219
139.198
139.175
139.149
139.125
139.105
139.093
139.093
150.578
150.761
150.859
150.937
150.935
150.826
150.606
150.326
150.102
150.114
150.579
151.712
153.662
156.472
160.045
164.151
168.454
172.575
176.147
178.869
180.541
181.066
180.448
178.775
176.199
172.913
169.133
165.062
160.877
156.719
152.719
149.016
145.77
143.145
141.253
140.1
139.568
139.449
139.519
139.61
139.643
139.615
139.555
139.493
139.441
139.399
139.364
139.334
139.305
139.278
139.253
139.23
139.208
139.186
139.162
139.136
139.114
139.097
139.092
139.106
150.637
150.823
150.905
150.948
150.89
150.72
150.457
150.186
150.058
150.277
151.064
152.606
155.002
158.224
162.104
166.354
170.608
174.487
177.654
179.856
180.947
180.883
179.711
177.556
174.594
171.031
167.08
162.931
158.742
154.647
150.78
147.292
144.35
142.095
140.589
139.771
139.474
139.472
139.567
139.633
139.634
139.586
139.523
139.465
139.418
139.381
139.348
139.319
139.291
139.265
139.241
139.219
139.197
139.174
139.149
139.124
139.104
139.092
139.097
139.126
150.698
150.879
150.935
150.93
150.812
150.586
150.303
150.083
150.107
150.594
151.752
153.729
156.562
160.15
164.259
168.555
172.659
176.208
178.905
180.551
181.051
180.41
178.718
176.128
172.835
169.051
164.977
160.789
156.63
152.633
148.941
145.716
143.115
141.245
140.105
139.575
139.451
139.516
139.605
139.639
139.613
139.555
139.493
139.44
139.398
139.364
139.333
139.305
139.278
139.253
139.23
139.208
139.185
139.161
139.136
139.112
139.096
139.093
139.11
139.148
150.76
150.924
150.942
150.882
150.702
150.435
150.164
150.045
150.281
151.092
152.661
155.082
158.323
162.212
166.459
170.701
174.56
177.702
179.879
180.944
180.855
179.663
177.491
174.518
170.95
166.996
162.844
158.653
154.559
150.699
147.227
144.308
142.077
140.588
139.778
139.479
139.472
139.562
139.628
139.631
139.586
139.523
139.465
139.418
139.38
139.348
139.318
139.291
139.265
139.241
139.218
139.196
139.173
139.148
139.123
139.103
139.093
139.1
139.128
139.164
150.818
150.951
150.921
150.799
150.565
150.28
150.064
150.101
150.609
151.793
153.797
156.652
160.254
164.366
168.654
172.742
176.27
178.942
180.561
181.035
180.372
178.661
176.058
172.757
168.968
164.892
160.701
156.541
152.548
148.867
145.662
143.086
141.237
140.109
139.581
139.453
139.513
139.6
139.635
139.611
139.554
139.493
139.44
139.398
139.363
139.332
139.304
139.277
139.252
139.229
139.207
139.185
139.16
139.135
139.111
139.096
139.095
139.114
139.146
139.169
150.867
150.955
150.868
150.686
150.413
150.144
150.034
150.288
151.124
152.72
155.165
158.424
162.321
166.565
170.793
174.632
177.75
179.9
180.938
180.824
179.611
177.423
174.44
170.866
166.909
162.755
158.562
154.469
150.618
147.163
144.267
142.059
140.587
139.784
139.483
139.471
139.558
139.624
139.628
139.585
139.523
139.464
139.417
139.379
139.347
139.318
139.29
139.264
139.24
139.218
139.196
139.172
139.147
139.122
139.102
139.094
139.104
139.131
139.159
139.162
150.905
150.93
150.782
150.544
150.254
150.041
150.089
150.615
151.823
153.853
156.729
160.346
164.463
168.747
172.822
176.33
178.98
180.576
181.028
180.344
178.616
176.001
172.692
168.898
164.818
160.624
156.461
152.47
148.8
145.612
143.059
141.229
140.112
139.587
139.455
139.511
139.596
139.632
139.61
139.554
139.492
139.439
139.397
139.362
139.332
139.304
139.277
139.252
139.229
139.207
139.184
139.159
139.133
139.11
139.096
139.098
139.117
139.147
139.164
139.146
150.918
150.865
150.662
150.392
150.131
150.04
150.323
151.193
152.825
155.302
158.58
162.482
166.715
170.919
174.724
177.802
179.911
180.909
180.76
179.517
177.307
174.31
170.729
166.768
162.614
158.424
154.34
150.505
147.077
144.213
142.035
140.584
139.79
139.488
139.472
139.554
139.619
139.624
139.583
139.522
139.464
139.416
139.378
139.346
139.317
139.289
139.264
139.24
139.217
139.195
139.171
139.146
139.121
139.102
139.096
139.107
139.132
139.157
139.157
139.119
150.926
150.794
150.536
150.235
150.001
150.026
150.528
151.714
153.725
156.592
160.207
164.333
168.636
172.739
176.283
178.972
180.607
181.094
180.44
178.737
176.139
172.841
169.053
164.97
160.766
156.587
152.575
148.882
145.675
143.104
141.258
140.128
139.592
139.453
139.506
139.591
139.631
139.611
139.557
139.495
139.441
139.398
139.363
139.333
139.304
139.278
139.253
139.23
139.208
139.185
139.159
139.133
139.11
139.096
139.098
139.119
139.149
139.166
139.148
139.083
150.84
150.574
150.294
150.071
150.073
150.511
151.587
153.452
156.152
159.608
163.609
167.845
171.953
175.573
178.4
180.217
180.912
180.471
178.969
176.547
173.391
169.704
165.685
161.511
157.339
153.312
149.58
146.302
143.624
141.645
140.371
139.708
139.48
139.488
139.566
139.618
139.613
139.568
139.508
139.452
139.406
139.37
139.338
139.31
139.283
139.258
139.234
139.211
139.188
139.164
139.138
139.115
139.101
139.1
139.116
139.141
139.158
139.146
139.09
138.992
)
;

boundaryField
{
    bottomwall
    {
        type            opaque;
        refValue        nonuniform List<scalar> 
60
(
143.312
145.501
146.741
147.505
148.003
148.343
148.585
148.768
148.912
149.034
149.145
149.25
149.351
149.447
149.541
149.631
149.722
149.814
149.907
150.003
150.1
150.197
150.291
150.378
150.459
150.534
150.611
150.698
150.8
150.908
150.993
151.014
150.932
150.751
150.547
150.487
150.815
151.8
153.663
156.498
160.224
164.578
169.15
173.468
177.088
179.691
181.121
181.363
180.486
178.602
175.838
172.347
168.323
164.009
159.674
155.578
151.904
148.71
145.812
142.59
)
;
        refGradient     uniform 0;