/*--------------------------------*- C++ -*----------------------------------*\
| =========                 |                                                 |
| \\      /  F ield         | OpenFOAM: The Open Source CFD Toolbox           |
|  \\    /   O peration     | Version:  2406                                  |
|   \\  /    A nd           | Website:  www.openfoam.com                      |
|    \\/     M anipulation  |                                                 |
\*---------------------------------------------------------------------------*/
FoamFile
{
    version     2.0;
    format      ascii;
    arch        "LSB;label=32;scalar=64";
    class       volScalarField;
    location    "5000";
    object      ILambda_11_0;
}
// * * * * * * * * * * * * * * * * * * * * * * * * * * * * * * * * * * * * * //

dimensions      [1 0 -3 0 0 0 0];

internalField   nonuniform List<scalar> 
3600
(
145.734
145.94
146.076
146.215
146.33
146.412
146.458
146.463
146.431
146.365
146.268
146.148
146.011
145.865
145.72
145.582
145.459
145.354
145.266
145.183
145.084
144.933
144.686
144.303
143.756
143.051
142.234
141.382
140.59
139.942
139.483
139.212
139.091
139.062
139.074
139.094
139.109
139.121
139.136
139.154
139.176
139.2
139.224
139.248
139.272
139.296
139.322
139.353
139.393
139.438
139.482
139.519
139.558
139.621
139.718
139.81
139.799
139.583
139.145
138.618
145.641
145.816
145.956
146.106
146.242
146.353
146.43
146.468
146.466
146.427
146.354
146.252
146.127
145.986
145.839
145.693
145.556
145.435
145.334
145.25
145.171
145.073
144.917
144.657
144.249
143.669
142.929
142.082
141.217
140.433
139.813
139.393
139.163
139.073
139.062
139.079
139.098
139.111
139.123
139.138
139.157
139.18
139.204
139.228
139.252
139.276
139.3
139.325
139.358
139.4
139.448
139.491
139.522
139.557
139.625
139.742
139.851
139.83
139.562
139.005
145.606
145.755
145.89
146.039
146.182
146.304
146.396
146.452
146.468
146.445
146.387
146.298
146.182
146.049
145.904
145.757
145.616
145.487
145.376
145.283
145.2
145.109
144.979
144.768
144.43
143.931
143.265
142.465
141.604
140.778
140.078
139.566
139.252
139.104
139.062
139.071
139.091
139.106
139.118
139.131
139.148
139.17
139.193
139.217
139.242
139.266
139.29
139.315
139.343
139.38
139.426
139.475
139.514
139.545
139.587
139.672
139.785
139.837
139.701
139.339
145.57
145.687
145.815
145.961
146.109
146.244
146.354
146.429
146.466
146.464
146.423
146.349
146.247
146.122
145.981
145.834
145.689
145.552
145.431
145.33
145.243
145.161
145.058
144.898
144.634
144.224
143.643
142.904
142.059
141.197
140.417
139.801
139.386
139.16
139.073
139.064
139.081
139.099
139.112
139.123
139.138
139.158
139.181
139.205
139.229
139.253
139.278
139.302
139.327
139.359
139.4
139.45
139.496
139.529
139.559
139.617
139.726
139.837
139.816
139.543
145.548
145.631
145.747
145.885
146.034
146.178
146.302
146.395
146.452
146.47
146.448
146.391
146.302
146.187
146.054
145.909
145.762
145.62
145.49
145.378
145.284
145.201
145.111
144.985
144.781
144.451
143.961
143.3
142.5
141.633
140.797
140.088
139.568
139.251
139.102
139.062
139.072
139.092
139.106
139.117
139.13
139.147
139.169
139.193
139.217
139.241
139.266
139.29
139.314
139.341
139.377
139.424
139.475
139.517
139.544
139.577
139.654
139.78
139.862
139.738
145.536
145.584
145.685
145.811
145.958
146.106
146.242
146.352
146.428
146.466
146.464
146.425
146.351
146.249
146.124
145.984
145.837
145.691
145.554
145.432
145.329
145.241
145.158
145.056
144.898
144.639
144.235
143.661
142.926
142.081
141.214
140.427
139.804
139.385
139.158
139.073
139.064
139.083
139.1
139.112
139.123
139.138
139.158
139.181
139.204
139.228
139.253
139.278
139.302
139.327
139.357
139.398
139.449
139.499
139.534
139.557
139.601
139.703
139.836
139.862
145.537
145.548
145.631
145.742
145.881
146.031
146.175
146.3
146.394
146.452
146.47
146.449
146.393
146.305
146.191
146.057
145.913
145.765
145.622
145.492
145.379
145.283
145.199
145.11
144.986
144.786
144.463
143.979
143.323
142.524
141.654
140.811
140.095
139.569
139.25
139.101
139.063
139.073
139.093
139.107
139.117
139.129
139.147
139.169
139.192
139.216
139.24
139.265
139.29
139.314
139.34
139.375
139.421
139.475
139.521
139.548
139.571
139.634
139.764
139.897
145.549
145.524
145.588
145.679
145.808
145.954
146.103
146.24
146.351
146.428
146.466
146.465
146.426
146.354
146.252
146.128
145.988
145.84
145.694
145.556
145.434
145.329
145.24
145.156
145.054
144.899
144.646
144.249
143.682
142.95
142.104
141.232
140.437
139.808
139.385
139.157
139.072
139.065
139.084
139.101
139.112
139.122
139.137
139.157
139.18
139.204
139.228
139.253
139.278
139.302
139.326
139.355
139.395
139.447
139.501
139.54
139.559
139.588
139.682
139.848
145.572
145.513
145.555
145.625
145.739
145.878
146.028
146.172
146.298
146.393
146.452
146.471
146.451
146.395
146.307
146.194
146.061
145.916
145.768
145.625
145.494
145.38
145.283
145.198
145.108
144.986
144.79
144.473
143.997
143.346
142.549
141.675
140.826
140.102
139.57
139.248
139.1
139.063
139.075
139.094
139.107
139.116
139.128
139.146
139.169
139.192
139.215
139.24
139.265
139.29
139.314
139.34
139.372
139.418
139.474
139.525
139.554
139.569
139.617
139.755
145.604
145.514
145.534
145.582
145.677
145.804
145.95
146.1
146.237
146.349
146.427
146.466
146.466
146.428
146.356
146.255
146.131
145.991
145.844
145.697
145.559
145.435
145.329
145.239
145.154
145.053
144.901
144.653
144.263
143.703
142.975
142.128
141.25
140.448
139.811
139.384
139.155
139.072
139.067
139.085
139.102
139.111
139.121
139.136
139.157
139.18
139.203
139.227
139.252
139.278
139.302
139.326
139.354
139.392
139.444
139.502
139.546
139.564
139.582
139.662
145.645
145.528
145.525
145.549
145.623
145.735
145.874
146.024
146.17
146.296
146.392
146.451
146.471
146.452
146.397
146.31
146.197
146.064
145.92
145.771
145.628
145.496
145.38
145.282
145.196
145.106
144.986
144.794
144.483
144.014
143.369
142.574
141.697
140.841
140.108
139.571
139.246
139.099
139.064
139.076
139.095
139.107
139.115
139.128
139.146
139.168
139.192
139.215
139.239
139.265
139.29
139.315
139.339
139.37
139.415
139.472
139.528
139.562
139.571
139.598
145.693
145.552
145.529
145.529
145.58
145.673
145.8
145.947
146.097
146.235
146.347
146.426
146.466
146.467
146.429
146.358
146.257
146.134
145.994
145.847
145.7
145.561
145.437
145.329
145.238
145.152
145.051
144.902
144.659
144.277
143.723
143
142.152
141.269
140.459
139.815
139.383
139.153
139.072
139.068
139.087
139.102
139.111
139.12
139.136
139.157
139.18
139.203
139.226
139.251
139.277
139.303
139.327
139.353
139.389
139.441
139.502
139.552
139.571
139.571
145.746
145.586
145.544
145.521
145.548
145.62
145.731
145.87
146.021
146.167
146.294
146.391
146.451
146.471
146.453
146.399
146.312
146.2
146.067
145.923
145.775
145.631
145.498
145.381
145.282
145.195
145.105
144.985
144.797
144.493
144.031
143.393
142.599
141.72
140.856
140.115
139.572
139.245
139.098
139.064
139.078
139.096
139.107
139.115
139.127
139.145
139.168
139.191
139.214
139.238
139.264
139.29
139.315
139.339
139.368
139.411
139.47
139.53
139.569
139.57
145.803
145.629
145.57
145.525
145.528
145.577
145.67
145.796
145.943
146.094
146.232
146.346
146.425
146.466
146.467
146.431
146.36
146.26
146.137
145.998
145.85
145.703
145.564
145.438
145.33
145.237
145.15
145.05
144.903
144.665
144.29
143.744
143.025
142.177
141.289
140.47
139.818
139.382
139.151
139.071
139.069
139.089
139.103
139.111
139.119
139.135
139.156
139.18
139.203
139.226
139.251
139.277
139.303
139.327
139.352
139.386
139.437
139.5
139.555
139.576
145.863
145.679
145.605
145.541
145.521
145.546
145.617
145.728
145.866
146.017
146.164
146.292
146.39
146.451
146.472
146.454
146.4
146.315
146.203
146.071
145.926
145.778
145.633
145.5
145.382
145.282
145.193
145.103
144.984
144.8
144.502
144.048
143.416
142.625
141.742
140.872
140.122
139.572
139.242
139.096
139.065
139.079
139.098
139.107
139.114
139.126
139.145
139.168
139.191
139.214
139.237
139.263
139.29
139.316
139.339
139.367
139.407
139.466
139.53
139.575
145.924
145.735
145.648
145.567
145.526
145.527
145.575
145.666
145.793
145.939
146.091
146.23
146.344
146.425
146.466
146.468
146.432
146.362
146.263
146.14
146.001
145.854
145.706
145.566
145.44
145.33
145.236
145.149
145.048
144.904
144.671
144.303
143.764
143.05
142.202
141.308
140.481
139.821
139.38
139.149
139.071
139.071
139.091
139.104
139.11
139.118
139.134
139.156
139.18
139.202
139.225
139.25
139.277
139.304
139.328
139.351
139.384
139.433
139.497
139.56
145.985
145.795
145.698
145.603
145.542
145.52
145.544
145.614
145.724
145.863
146.014
146.161
146.29
146.388
146.45
146.472
146.455
146.402
146.317
146.206
146.074
145.93
145.781
145.636
145.502
145.383
145.282
145.192
145.101
144.984
144.803
144.511
144.065
143.439
142.651
141.766
140.887
140.129
139.572
139.24
139.095
139.066
139.081
139.099
139.108
139.113
139.125
139.144
139.168
139.191
139.213
139.236
139.263
139.29
139.316
139.339
139.365
139.404
139.462
139.532
146.044
145.857
145.753
145.647
145.569
145.526
145.526
145.572
145.663
145.789
145.936
146.087
146.227
146.343
146.424
146.466
146.469
146.434
146.365
146.266
146.143
146.004
145.857
145.709
145.568
145.441
145.331
145.235
145.147
145.047
144.904
144.676
144.316
143.784
143.075
142.228
141.329
140.493
139.824
139.378
139.147
139.071
139.072
139.092
139.105
139.11
139.117
139.133
139.156
139.18
139.202
139.224
139.249
139.276
139.304
139.328
139.351
139.381
139.429
139.496
146.101
145.92
145.812
145.698
145.606
145.543
145.52
145.542
145.611
145.72
145.859
146.01
146.158
146.288
146.387
146.45
146.473
146.457
146.404
146.32
146.209
146.077
145.933
145.784
145.639
145.504
145.384
145.282
145.191
145.099
144.983
144.805
144.52
144.081
143.463
142.677
141.789
140.904
140.136
139.572
139.237
139.094
139.067
139.084
139.101
139.108
139.112
139.124
139.144
139.168
139.191
139.213
139.235
139.262
139.29
139.317
139.34
139.364
139.401
139.459
146.155
145.983
145.873
145.754
145.65
145.57
145.526
145.524
145.57
145.66
145.785
145.932
146.084
146.225
146.341
146.423
146.466
146.47
146.435
146.367
146.268
146.146
146.008
145.86
145.712
145.571
145.443
145.331
145.235
145.145
145.045
144.904
144.681
144.328
143.804
143.101
142.254
141.349
140.504
139.827
139.376
139.145
139.07
139.074
139.095
139.106
139.109
139.116
139.133
139.156
139.18
139.202
139.223
139.248
139.276
139.304
139.329
139.351
139.379
139.425
146.204
146.045
145.935
145.813
145.701
145.608
145.544
145.519
145.54
145.608
145.717
145.855
146.007
146.155
146.286
146.386
146.449
146.473
146.458
146.406
146.322
146.211
146.08
145.936
145.787
145.641
145.506
145.386
145.282
145.19
145.097
144.982
144.807
144.528
144.097
143.486
142.704
141.814
140.92
140.143
139.572
139.234
139.092
139.068
139.086
139.102
139.108
139.111
139.123
139.144
139.168
139.191
139.212
139.234
139.261
139.29
139.318
139.341
139.363
139.397
146.248
146.104
145.996
145.875
145.757
145.652
145.572
145.526
145.523
145.567
145.656
145.781
145.928
146.081
146.222
146.339
146.422
146.466
146.471
146.437
146.369
146.271
146.15
146.011
145.863
145.715
145.573
145.445
145.332
145.234
145.144
145.043
144.904
144.686
144.339
143.824
143.127
142.28
141.37
140.516
139.83
139.374
139.142
139.07
139.076
139.097
139.106
139.109
139.115
139.132
139.156
139.18
139.202
139.222
139.246
139.275
139.305
139.33
139.351
139.376
146.286
146.16
146.056
145.937
145.816
145.704
145.609
145.545
145.519
145.539
145.605
145.713
145.851
146.003
146.153
146.284
146.385
146.449
146.473
146.459
146.408
146.325
146.214
146.084
145.94
145.79
145.644
145.508
145.387
145.282
145.189
145.095
144.98
144.809
144.535
144.112
143.509
142.731
141.839
140.937
140.15
139.571
139.231
139.09
139.069
139.088
139.104
139.108
139.11
139.122
139.143
139.168
139.191
139.212
139.233
139.26
139.29
139.319
139.341
139.361
146.317
146.212
146.112
145.998
145.878
145.76
145.655
145.573
145.526
145.522
145.565
145.653
145.777
145.925
146.078
146.22
146.338
146.421
146.466
146.471
146.438
146.371
146.274
146.153
146.014
145.867
145.718
145.576
145.446
145.333
145.234
145.142
145.042
144.904
144.69
144.351
143.844
143.153
142.307
141.392
140.528
139.832
139.371
139.139
139.07
139.078
139.099
139.107
139.108
139.114
139.131
139.155
139.18
139.202
139.222
139.245
139.274
139.305
139.331
139.35
146.34
146.259
146.166
146.059
145.94
145.819
145.707
145.612
145.545
145.518
145.537
145.602
145.709
145.847
146
146.15
146.282
146.384
146.448
146.474
146.46
146.41
146.327
146.217
146.087
145.943
145.794
145.647
145.51
145.388
145.282
145.188
145.094
144.979
144.81
144.542
144.128
143.532
142.759
141.864
140.955
140.157
139.57
139.228
139.089
139.07
139.091
139.106
139.108
139.109
139.121
139.143
139.168
139.191
139.211
139.232
139.258
139.289
139.319
139.341
146.355
146.3
146.215
146.116
146.001
145.881
145.763
145.657
145.575
145.527
145.521
145.562
145.649
145.774
145.921
146.074
146.217
146.336
146.42
146.466
146.472
146.44
146.373
146.277
146.156
146.018
145.87
145.721
145.578
145.448
145.334
145.234
145.141
145.04
144.904
144.693
144.361
143.863
143.179
142.335
141.415
140.541
139.834
139.368
139.136
139.07
139.081
139.102
139.108
139.107
139.113
139.13
139.155
139.18
139.202
139.221
139.244
139.273
139.305
139.332
146.361
146.334
146.258
146.17
146.061
145.943
145.823
145.709
145.614
145.546
145.518
145.535
145.599
145.706
145.843
145.996
146.147
146.279
146.382
146.448
146.474
146.461
146.411
146.33
146.22
146.09
145.946
145.797
145.65
145.512
145.39
145.282
145.187
145.092
144.978
144.811
144.549
144.142
143.555
142.787
141.891
140.973
140.164
139.569
139.224
139.087
139.072
139.094
139.108
139.107
139.108
139.119
139.142
139.168
139.192
139.211
139.231
139.257
139.289
139.32
146.356
146.36
146.296
146.219
146.118
146.004
145.884
145.766
145.66
145.577
145.527
145.52
145.56
145.646
145.77
145.917
146.071
146.215
146.334
146.42
146.466
146.473
146.441
146.375
146.279
146.159
146.021
145.873
145.724
145.581
145.45
145.335
145.234
145.14
145.039
144.903
144.697
144.371
143.882
143.205
142.363
141.438
140.553
139.837
139.364
139.132
139.07
139.084
139.104
139.109
139.106
139.111
139.129
139.155
139.181
139.202
139.22
139.242
139.271
139.306
146.341
146.379
146.326
146.264
146.171
146.064
145.946
145.826
145.712
145.616
145.547
145.517
145.533
145.596
145.702
145.839
145.993
146.144
146.277
146.381
146.448
146.474
146.462
146.413
146.332
146.223
146.093
145.95
145.8
145.653
145.515
145.391
145.283
145.186
145.091
144.977
144.812
144.555
144.156
143.578
142.815
141.918
140.991
140.171
139.567
139.219
139.085
139.074
139.097
139.109
139.107
139.106
139.118
139.142
139.168
139.192
139.211
139.23
139.255
139.289
146.314
146.388
146.349
146.302
146.22
146.121
146.007
145.887
145.769
145.662
145.578
145.527
145.519
145.558
145.643
145.766
145.913
146.068
146.212
146.333
146.419
146.466
146.473
146.443
146.377
146.282
146.162
146.024
145.877
145.727
145.583
145.452
145.335
145.234
145.139
145.037
144.903
144.699
144.381
143.9
143.231
142.392
141.462
140.567
139.838
139.36
139.129
139.071
139.087
139.107
139.109
139.105
139.11
139.128
139.155
139.181
139.202
139.22
139.241
139.27
146.275
146.387
146.363
146.333
146.264
146.174
146.067
145.949
145.829
145.715
145.618
145.548
145.517
145.531
145.593
145.698
145.836
145.989
146.141
146.275
146.38
146.447
146.475
146.463
146.415
146.334
146.226
146.097
145.953
145.803
145.655
145.517
145.392
145.283
145.186
145.09
144.975
144.813
144.56
144.17
143.601
142.844
141.945
141.011
140.178
139.565
139.214
139.083
139.076
139.101
139.111
139.107
139.105
139.117
139.141
139.168
139.192
139.211
139.229
139.253
146.223
146.375
146.368
146.356
146.302
146.223
146.123
146.01
145.89
145.772
145.665
145.58
145.528
145.518
145.555
145.639
145.762
145.909
146.064
146.21
146.331
146.418
146.466
146.474
146.444
146.379
146.285
146.165
146.028
145.88
145.73
145.586
145.453
145.336
145.234
145.138
145.036
144.902
144.702
144.39
143.918
143.258
142.422
141.487
140.58
139.84
139.355
139.125
139.071
139.091
139.11
139.11
139.104
139.108
139.128
139.155
139.181
139.203
139.22
139.238
146.157
146.351
146.363
146.371
146.333
146.267
146.177
146.069
145.952
145.832
145.718
145.62
145.55
145.517
145.53
145.59
145.695
145.832
145.985
146.138
146.273
146.378
146.447
146.475
146.464
146.417
146.337
146.229
146.1
145.956
145.806
145.658
145.519
145.394
145.284
145.186
145.088
144.974
144.813
144.565
144.183
143.623
142.873
141.974
141.031
140.185
139.562
139.209
139.081
139.079
139.105
139.113
139.106
139.103
139.116
139.14
139.168
139.193
139.212
139.227
146.077
146.315
146.347
146.377
146.355
146.304
146.225
146.126
146.013
145.893
145.775
145.668
145.582
145.528
145.517
145.553
145.636
145.758
145.906
146.061
146.207
146.329
146.417
146.466
146.475
146.445
146.381
146.287
146.168
146.031
145.883
145.733
145.588
145.455
145.337
145.234
145.137
145.034
144.901
144.704
144.398
143.936
143.284
142.452
141.512
140.594
139.841
139.349
139.12
139.072
139.095
139.113
139.11
139.102
139.107
139.127
139.154
139.182
139.203
139.219
145.984
146.265
146.319
146.372
146.37
146.335
146.269
146.179
146.072
145.955
145.835
145.721
145.622
145.551
145.517
145.528
145.587
145.691
145.828
145.982
146.135
146.271
146.377
146.446
146.475
146.465
146.418
146.339
146.232
146.103
145.96
145.81
145.661
145.521
145.395
145.284
145.185
145.087
144.973
144.813
144.57
144.195
143.645
142.903
142.004
141.052
140.193
139.558
139.202
139.08
139.082
139.109
139.115
139.105
139.102
139.115
139.14
139.168
139.193
139.212
145.876
146.202
146.278
146.356
146.374
146.357
146.306
146.227
146.129
146.016
145.896
145.778
145.67
145.583
145.529
145.516
145.551
145.633
145.754
145.902
146.058
146.205
146.327
146.416
146.466
146.475
146.447
146.383
146.29
146.171
146.034
145.887
145.736
145.591
145.457
145.338
145.234
145.137
145.033
144.9
144.706
144.406
143.953
143.311
142.483
141.539
140.608
139.842
139.343
139.115
139.073
139.099
139.117
139.11
139.101
139.106
139.126
139.154
139.182
139.204
145.754
146.124
146.224
146.328
146.369
146.371
146.336
146.271
146.181
146.075
145.958
145.838
145.724
145.625
145.552
145.516
145.526
145.585
145.687
145.824
145.978
146.132
146.269
146.376
146.446
146.475
146.466
146.42
146.341
146.235
146.106
145.963
145.813
145.664
145.523
145.397
145.285
145.185
145.087
144.972
144.813
144.574
144.207
143.667
142.933
142.034
141.073
140.2
139.554
139.195
139.078
139.086
139.114
139.116
139.104
139.1
139.114
139.139
139.168
139.194
145.619
146.032
146.157
146.288
146.353
146.376
146.358
146.307
146.23
146.131
146.019
145.899
145.781
145.673
145.585
145.529
145.515
145.548
145.629
145.75
145.898
146.054
146.202
146.326
146.415
146.465
146.476
146.448
146.386
146.293
146.175
146.038
145.89
145.739
145.593
145.459
145.34
145.234
145.136
145.032
144.9
144.707
144.413
143.969
143.337
142.515
141.567
140.623
139.842
139.335
139.11
139.075
139.104
139.12
139.11
139.099
139.105
139.125
139.153
139.182
145.471
145.925
146.076
146.235
146.324
146.37
146.372
146.337
146.273
146.184
146.078
145.961
145.841
145.726
145.627
145.553
145.516
145.525
145.582
145.683
145.82
145.974
146.129
146.267
146.374
146.445
146.476
146.467
146.422
146.344
146.238
146.11
145.966
145.816
145.667
145.526
145.398
145.286
145.185
145.086
144.971
144.813
144.577
144.217
143.688
142.963
142.066
141.096
140.207
139.548
139.188
139.076
139.09
139.119
139.118
139.102
139.099
139.113
139.138
139.168
145.31
145.804
145.979
146.168
146.284
146.353
146.376
146.359
146.309
146.232
146.134
146.022
145.903
145.784
145.675
145.587
145.53
145.514
145.546
145.626
145.746
145.894
146.051
146.199
146.324
146.414
146.465
146.476
146.449
146.388
146.295
146.178
146.041
145.893
145.742
145.596
145.461
145.341
145.234
145.136
145.031
144.899
144.708
144.419
143.984
143.363
142.548
141.596
140.639
139.842
139.327
139.105
139.077
139.11
139.123
139.109
139.097
139.104
139.125
139.152
145.138
145.669
145.869
146.086
146.23
146.324
146.37
146.373
146.339
146.274
146.186
146.08
145.964
145.844
145.729
145.629
145.554
145.516
145.523
145.579
145.68
145.816
145.971
146.126
146.264
146.373
146.445
146.476
146.468
146.423
146.346
146.241
146.113
145.97
145.819
145.67
145.528
145.4
145.286
145.185
145.085
144.97
144.813
144.58
144.227
143.708
142.993
142.099
141.12
140.214
139.542
139.179
139.074
139.096
139.124
139.118
139.101
139.098
139.113
139.137
144.956
145.521
145.744
145.99
146.162
146.283
146.352
146.376
146.36
146.311
146.234
146.136
146.025
145.906
145.787
145.678
145.589
145.531
145.513
145.544
145.622
145.742
145.89
146.048
146.197
146.322
146.413
146.465
146.477
146.451
146.389
146.298
146.181
146.044
145.897
145.745
145.599
145.463
145.342
145.235
145.136
145.031
144.898
144.709
144.424
143.998
143.388
142.581
141.627
140.656
139.841
139.317
139.098
139.08
139.117
139.127
139.108
139.096
139.104
139.124
144.764
145.361
145.605
145.88
146.08
146.229
146.323
146.37
146.373
146.34
146.276
146.189
146.083
145.967
145.847
145.732
145.632
145.556
145.516
145.522
145.576
145.676
145.812
145.967
146.123
146.262
146.372
146.444
146.476
146.469
146.425
146.348
146.244
146.116
145.973
145.823
145.673
145.53
145.401
145.287
145.185
145.085
144.969
144.813
144.582
144.236
143.728
143.024
142.134
141.146
140.222
139.534
139.168
139.073
139.102
139.13
139.119
139.098
139.097
139.113
144.561
145.191
145.453
145.755
145.983
146.161
146.282
146.352
146.377
146.362
146.313
146.236
146.139
146.027
145.909
145.79
145.681
145.591
145.531
145.513
145.541
145.619
145.738
145.886
146.044
146.194
146.32
146.412
146.465
146.477
146.452
146.391
146.3
146.184
146.048
145.9
145.749
145.601
145.465
145.343
145.235
145.135
145.03
144.898
144.71
144.429
144.011
143.414
142.616
141.66
140.673
139.839
139.305
139.092
139.084
139.125
139.129
139.106
139.094
139.104
144.349
145.01
145.29
145.616
145.871
146.078
146.227
146.323
146.37
146.374
146.342
146.278
146.191
146.086
145.97
145.85
145.735
145.634
145.557
145.516
145.52
145.573
145.672
145.808
145.963
146.12
146.26
146.37
146.443
146.476
146.47
146.427
146.351
146.246
146.119
145.977
145.826
145.675
145.533
145.403
145.288
145.185
145.084
144.969
144.813
144.585
144.244
143.746
143.054
142.17
141.174
140.23
139.524
139.157
139.072
139.111
139.136
139.118
139.095
139.097
144.127
144.821
145.115
145.465
145.746
145.981
146.158
146.28
146.352
146.377
146.363
146.314
146.238
146.141
146.03
145.912
145.793
145.684
145.593
145.532
145.512
145.539
145.616
145.734
145.882
146.041
146.191
146.319
146.411
146.465
146.478
146.453
146.393
146.303
146.187
146.051
145.903
145.752
145.604
145.467
145.344
145.235
145.135
145.03
144.898
144.711
144.433
144.023
143.438
142.651
141.695
140.693
139.836
139.291
139.084
139.09
139.135
139.132
139.102
139.092
143.893
144.623
144.93
145.301
145.606
145.869
146.075
146.225
146.322
146.37
146.375
146.343
146.28
146.193
146.088
145.973
145.854
145.738
145.636
145.559
145.516
145.519
145.57
145.668
145.804
145.959
146.117
146.258
146.369
146.443
146.476
146.47
146.428
146.353
146.249
146.123
145.98
145.829
145.678
145.535
145.404
145.288
145.185
145.084
144.969
144.813
144.587
144.251
143.763
143.084
142.208
141.204
140.238
139.513
139.143
139.072
139.121
139.143
139.115
139.09
143.647
144.417
144.736
145.127
145.454
145.742
145.977
146.156
146.279
146.351
146.377
146.364
146.316
146.24
146.144
146.033
145.915
145.796
145.686
145.595
145.533
145.511
145.537
145.612
145.73
145.878
146.037
146.189
146.317
146.41
146.464
146.478
146.454
146.395
146.306
146.19
146.054
145.907
145.755
145.607
145.469
145.345
145.236
145.135
145.03
144.898
144.712
144.437
144.034
143.461
142.687
141.732
140.714
139.833
139.274
139.076
139.097
139.146
139.133
139.095
143.385
144.201
144.533
144.943
145.289
145.602
145.864
146.072
146.223
146.321
146.37
146.376
146.344
146.282
146.196
146.091
145.976
145.857
145.741
145.639
145.56
145.516
145.517
145.567
145.665
145.799
145.955
146.113
146.256
146.368
146.442
146.476
146.471
146.43
146.355
146.252
146.126
145.983
145.832
145.681
145.537
145.406
145.289
145.185
145.084
144.969
144.814
144.589
144.257
143.779
143.114
142.247
141.236
140.247
139.498
139.127
139.073
139.134
139.15
139.109
143.107
143.974
144.321
144.75
145.114
145.449
145.737
145.974
146.153
146.278
146.351
146.378
146.365
146.318
146.243
146.146
146.036
145.918
145.799
145.689
145.597
145.534
145.511
145.535
145.609
145.726
145.874
146.034
146.186
146.315
146.41
146.464
146.479
146.455
146.397
146.308
146.193
146.058
145.91
145.758
145.61
145.471
145.346
145.236
145.134
145.029
144.899
144.713
144.44
144.043
143.483
142.723
141.772
140.737
139.827
139.254
139.067
139.108
139.157
139.131
142.811
143.733
144.1
144.548
144.929
145.284
145.596
145.861
146.069
146.221
146.32
146.369
146.376
146.346
146.284
146.198
146.094
145.979
145.86
145.744
145.641
145.562
145.517
145.516
145.564
145.661
145.795
145.952
146.11
146.253
146.366
146.442
146.477
146.472
146.431
146.357
146.255
146.129
145.987
145.836
145.684
145.54
145.408
145.29
145.185
145.083
144.969
144.815
144.591
144.262
143.793
143.143
142.288
141.273
140.257
139.48
139.108
139.076
139.149
139.154
142.496
143.478
143.868
144.337
144.736
145.108
145.442
145.733
145.97
146.151
146.276
146.35
146.378
146.366
146.319
146.245
146.149
146.039
145.921
145.803
145.692
145.599
145.535
145.51
145.533
145.605
145.722
145.87
146.03
146.183
146.313
146.409
146.464
146.479
146.457
146.399
146.311
146.196
146.061
145.913
145.761
145.612
145.473
145.348
145.236
145.134
145.029
144.899
144.715
144.443
144.051
143.502
142.759
141.816
140.764
139.82
139.228
139.058
139.122
139.169
142.16
143.204
143.623
144.116
144.534
144.922
145.276
145.591
145.857
146.067
146.22
146.319
146.369
146.377
146.347
146.286
146.2
146.096
145.982
145.863
145.747
145.644
145.563
145.517
145.514
145.562
145.657
145.791
145.948
146.107
146.251
146.365
146.441
146.477
146.473
146.433
146.36
146.258
146.132
145.99
145.839
145.687
145.542
145.409
145.291
145.184
145.083
144.969
144.817
144.593
144.267
143.804
143.169
142.332
141.315
140.268
139.456
139.085
139.084
139.168
141.806
142.909
143.364
143.883
144.323
144.728
145.1
145.436
145.728
145.967
146.149
146.275
146.349
146.378
146.367
146.321
146.247
146.151
146.041
145.924
145.806
145.695
145.601
145.536
145.509
145.531
145.602
145.718
145.866
146.026
146.181
146.311
146.408
146.464
146.48
146.458
146.401
146.313
146.199
146.064
145.917
145.764
145.615
145.475
145.349
145.236
145.134
145.029
144.9
144.717
144.447
144.058
143.519
142.794
141.865
140.797
139.81
139.194
139.052
139.148
141.436
142.591
143.09
143.637
144.103
144.526
144.914
145.269
145.585
145.853
146.064
146.218
146.318
146.369
146.378
146.349
146.288
146.202
146.099
145.984
145.866
145.75
145.647
145.565
145.517
145.513
145.559
145.653
145.787
145.944
146.104
146.249
146.364
146.44
146.477
146.474
146.434
146.362
146.261
146.136
145.993
145.842
145.69
145.545
145.411
145.291
145.184
145.082
144.969
144.818
144.597
144.271
143.813
143.193
142.376
141.364
140.282
139.423
139.058
139.111
141.055
142.246
142.797
143.376
143.871
144.315
144.72
145.092
145.43
145.723
145.964
146.146
146.273
146.349
146.379
146.368
146.323
146.249
146.154
146.044
145.927
145.809
145.698
145.603
145.537
145.509
145.529
145.599
145.714
145.861
146.023
146.178
146.31
146.407
146.463
146.48
146.459
146.403
146.316
146.202
146.068
145.92
145.767
145.618
145.478
145.35
145.237
145.133
145.028
144.901
144.72
144.451
144.063
143.532
142.827
141.919
140.84
139.795
139.146
139.064
140.672
141.873
142.485
143.097
143.626
144.095
144.517
144.906
145.262
145.58
145.849
146.061
146.216
146.317
146.369
146.378
146.35
146.29
146.205
146.101
145.987
145.869
145.753
145.649
145.567
145.518
145.512
145.556
145.649
145.783
145.94
146.101
146.246
146.362
146.44
146.477
146.474
146.435
146.364
146.263
146.139
145.997
145.845
145.693
145.548
145.413
145.292
145.184
145.081
144.969
144.82
144.601
144.276
143.82
143.211
142.421
141.425
140.305
139.371
139.029
140.3
141.475
142.151
142.8
143.366
143.863
144.307
144.711
145.084
145.423
145.719
145.96
146.144
146.272
146.348
146.379
146.369
146.324
146.251
146.156
146.047
145.93
145.812
145.701
145.606
145.538
145.508
145.526
145.595
145.71
145.857
146.019
146.175
146.308
146.406
146.463
146.48
146.46
146.404
146.318
146.205
146.071
145.923
145.77
145.621
145.48
145.352
145.237
145.132
145.027
144.901
144.723
144.456
144.069
143.541
142.853
141.978
140.903
139.776
139.057
139.954
141.054
141.796
142.482
143.088
143.619
144.087
144.509
144.897
145.255
145.575
145.845
146.058
146.214
146.316
146.369
146.379
146.352
146.292
146.207
146.104
145.99
145.872
145.756
145.652
145.568
145.518
145.51
145.553
145.645
145.778
145.935
146.097
146.244
146.361
146.439
146.477
146.475
146.437
146.366
146.266
146.142
146
145.848
145.696
145.55
145.415
145.293
145.184
145.08
144.968
144.822
144.605
144.283
143.828
143.223
142.458
141.504
140.355
139.241
139.651
140.618
141.42
142.144
142.791
143.359
143.857
144.299
144.703
145.077
145.418
145.715
145.958
146.143
146.271
146.349
146.38
146.371
146.327
146.254
146.159
146.05
145.933
145.815
145.703
145.608
145.538
145.507
145.523
145.59
145.704
145.852
146.015
146.173
146.307
146.405
146.464
146.482
146.461
146.407
146.322
146.209
146.075
145.927
145.773
145.623
145.482
145.353
145.237
145.131
145.026
144.902
144.727
144.465
144.081
143.552
142.869
142.029
141.011
139.716
)
;

boundaryField
{
    bottomwall
    {
        type            opaque;
        refValue        uniform 0;
        refGradient     uniform 0;
        valueFraction   uniform 0;
        source          uniform 0;
        value           nonuniform List<scalar> 
60
(
145.734
145.94
146.076
146.215
146.33
146.412
146.458
146.463
146.431
146.365
146.268
146.148
146.011
145.865
145.72
145.582
145.459
145.354
145.266
145.183
145.084
144.933
144.686
144.303
143.756
143.051
142.234
141.382
140.59
139.942
139.483
139.212
139.091
139.062
139.074
139.094
139.109
139.121
139.136
139.154
139.176
139.2
139.224
139.248
139.272
139.296
139.322
139.353
139.393
139.438
139.482
139.519
139.558
139.621
139.718
139.81