/*--------------------------------*- C++ -*----------------------------------*\
| =========                 |                                                 |
| \\      /  F ield         | OpenFOAM: The Open Source CFD Toolbox           |
|  \\    /   O peration     | Version:  2406                                  |
|   \\  /    A nd           | Website:  www.openfoam.com                      |
|    \\/     M anipulation  |                                                 |
\*---------------------------------------------------------------------------*/
FoamFile
{
    version     2.0;
    format      ascii;
    arch        "LSB;label=32;scalar=64";
    class       volScalarField;
    location    "5000";
    object      ILambda_8_0;
}
// * * * * * * * * * * * * * * * * * * * * * * * * * * * * * * * * * * * * * //

dimensions      [1 0 -3 0 0 0 0];

internalField   nonuniform List<scalar> 
3600
(
139.044
139.162
139.284
139.352
139.321
139.224
139.133
139.098
139.13
139.21
139.306
139.382
139.408
139.371
139.284
139.18
139.095
139.054
139.062
139.109
139.178
139.251
139.313
139.351
139.354
139.318
139.255
139.193
139.184
139.285
139.544
139.98
140.577
141.281
142.024
142.741
143.388
143.945
144.416
144.818
145.167
145.474
145.742
145.968
146.147
146.276
146.355
146.385
146.373
146.325
146.249
146.151
146.04
145.923
145.807
145.701
145.613
145.56
145.524
145.595
139.135
139.262
139.363
139.356
139.251
139.136
139.084
139.109
139.188
139.29
139.379
139.42
139.394
139.309
139.197
139.1
139.048
139.048
139.093
139.163
139.24
139.307
139.352
139.363
139.334
139.271
139.2
139.167
139.234
139.455
139.86
140.438
141.14
141.895
142.631
143.297
143.87
144.352
144.761
145.115
145.428
145.703
145.938
146.127
146.266
146.353
146.39
146.384
146.34
146.267
146.172
146.062
145.944
145.826
145.716
145.624
145.558
145.534
145.529
145.654
139.182
139.315
139.375
139.309
139.187
139.102
139.092
139.146
139.237
139.334
139.402
139.412
139.356
139.255
139.148
139.072
139.046
139.069
139.126
139.199
139.271
139.329
139.359
139.352
139.307
139.237
139.178
139.186
139.32
139.625
140.111
140.749
141.478
142.226
142.929
143.55
144.08
144.528
144.912
145.25
145.547
145.806
146.022
146.189
146.304
146.369
146.387
146.364
146.308
146.225
146.123
146.01
145.891
145.777
145.674
145.594
145.544
145.538
145.552
145.703
139.242
139.373
139.364
139.245
139.129
139.083
139.112
139.19
139.289
139.377
139.42
139.394
139.309
139.197
139.101
139.049
139.051
139.095
139.163
139.238
139.305
139.35
139.362
139.335
139.273
139.201
139.167
139.231
139.449
139.851
140.425
141.123
141.874
142.608
143.272
143.845
144.329
144.74
145.097
145.413
145.691
145.928
146.118
146.258
146.347
146.386
146.382
146.34
146.268
146.174
146.065
145.948
145.83
145.72
145.628
145.562
145.532
145.548
145.584
145.764
139.32
139.399
139.311
139.172
139.09
139.09
139.148
139.24
139.338
139.408
139.417
139.357
139.251
139.142
139.066
139.043
139.069
139.129
139.203
139.275
139.332
139.361
139.354
139.307
139.235
139.175
139.182
139.318
139.628
140.123
140.769
141.505
142.255
142.957
143.574
144.099
144.543
144.924
145.26
145.557
145.815
146.03
146.195
146.309
146.372
146.388
146.364
146.306
146.223
146.12
146.006
145.887
145.773
145.67
145.591
145.542
145.532
145.572
145.629
145.83
139.4
139.377
139.231
139.112
139.079
139.115
139.193
139.292
139.381
139.424
139.396
139.306
139.191
139.095
139.046
139.051
139.097
139.166
139.241
139.307
139.351
139.363
139.336
139.273
139.199
139.164
139.229
139.449
139.856
140.437
141.14
141.893
142.625
143.286
143.854
144.334
144.743
145.1
145.416
145.694
145.931
146.121
146.26
146.348
146.386
146.38
146.338
146.266
146.172
146.063
145.945
145.828
145.718
145.626
145.561
145.532
145.544
145.606
145.683
145.902
139.439
139.305
139.15
139.08
139.092
139.152
139.243
139.342
139.413
139.421
139.357
139.247
139.135
139.061
139.041
139.07
139.131
139.205
139.277
139.333
139.363
139.355
139.308
139.234
139.172
139.178
139.316
139.63
140.131
140.785
141.525
142.276
142.976
143.589
144.109
144.55
144.93
145.265
145.562
145.82
146.034
146.199
146.311
146.373
146.388
146.363
146.304
146.22
146.118
146.003
145.885
145.77
145.668
145.589
145.541
145.533
145.568
145.651
145.747
145.977
139.404
139.209
139.095
139.079
139.12
139.196
139.294
139.385
139.429
139.398
139.303
139.185
139.089
139.043
139.051
139.099
139.169
139.244
139.309
139.353
139.365
139.336
139.272
139.197
139.16
139.225
139.449
139.862
140.449
141.158
141.914
142.645
143.302
143.866
144.342
144.749
145.105
145.42
145.699
145.935
146.125
146.263
146.349
146.386
146.38
146.337
146.264
146.17
146.06
145.943
145.825
145.716
145.624
145.559
145.531
145.545
145.603
145.705
145.818
146.053
139.302
139.127
139.076
139.098
139.156
139.243
139.344
139.418
139.425
139.356
139.242
139.129
139.057
139.04
139.072
139.134
139.208
139.279
139.335
139.364
139.356
139.308
139.233
139.169
139.174
139.314
139.633
140.14
140.801
141.545
142.297
142.994
143.603
144.119
144.556
144.935
145.269
145.567
145.825
146.039
146.202
146.313
146.374
146.388
146.362
146.303
146.218
146.115
146.001
145.882
145.767
145.666
145.587
145.54
145.532
145.569
145.649
145.769
145.894
146.127
139.184
139.084
139.085
139.126
139.197
139.295
139.39
139.435
139.4
139.3
139.179
139.083
139.04
139.051
139.102
139.172
139.246
139.311
139.354
139.366
139.337
139.272
139.195
139.157
139.222
139.449
139.867
140.462
141.176
141.935
142.665
143.318
143.877
144.35
144.754
145.109
145.425
145.704
145.94
146.129
146.265
146.35
146.386
146.379
146.335
146.262
146.167
146.058
145.94
145.822
145.713
145.622
145.558
145.53
145.545
145.604
145.704
145.838
145.974
146.197
139.1
139.079
139.107
139.158
139.243
139.347
139.425
139.43
139.356
139.236
139.122
139.052
139.039
139.074
139.137
139.211
139.281
139.336
139.365
139.357
139.308
139.232
139.166
139.17
139.311
139.635
140.15
140.816
141.565
142.318
143.012
143.616
144.128
144.562
144.939
145.274
145.572
145.83
146.043
146.205
146.315
146.374
146.387
146.36
146.301
146.216
146.113
145.998
145.879
145.765
145.664
145.585
145.538
145.532
145.569
145.651
145.769
145.913
146.054
146.262
139.071
139.095
139.131
139.195
139.295
139.395
139.441
139.403
139.297
139.172
139.077
139.037
139.052
139.105
139.175
139.249
139.312
139.356
139.367
139.338
139.272
139.193
139.153
139.218
139.449
139.873
140.474
141.195
141.956
142.685
143.334
143.889
144.357
144.76
145.114
145.43
145.709
145.945
146.132
146.268
146.352
146.386
146.378
146.333
146.26
146.165
146.055
145.937
145.82
145.711
145.62
145.556
145.529
145.545
145.606
145.707
145.84
145.99
146.132
146.32
139.081
139.114
139.157
139.24
139.35
139.432
139.435
139.355
139.23
139.115
139.048
139.039
139.076
139.14
139.214
139.283
139.338
139.367
139.358
139.309
139.231
139.163
139.166
139.309
139.638
140.159
140.833
141.586
142.339
143.03
143.63
144.137
144.568
144.944
145.279
145.577
145.835
146.047
146.208
146.317
146.375
146.387
146.359
146.299
146.214
146.11
145.995
145.877
145.762
145.661
145.583
145.537
145.531
145.57
145.653
145.772
145.915
146.068
146.206
146.37
139.103
139.131
139.19
139.295
139.402
139.449
139.405
139.292
139.164
139.071
139.035
139.053
139.107
139.178
139.251
139.314
139.357
139.368
139.339
139.272
139.191
139.149
139.215
139.448
139.879
140.488
141.214
141.977
142.705
143.35
143.899
144.364
144.765
145.119
145.435
145.714
145.949
146.136
146.271
146.353
146.386
146.377
146.332
146.258
146.163
146.052
145.935
145.817
145.708
145.618
145.555
145.528
145.545
145.607
145.709
145.843
145.994
146.144
146.275
146.409
139.119
139.152
139.236
139.354
139.44
139.441
139.353
139.223
139.108
139.044
139.038
139.078
139.143
139.216
139.285
139.339
139.368
139.36
139.309
139.23
139.16
139.162
139.306
139.64
140.169
140.85
141.607
142.36
143.048
143.643
144.146
144.574
144.949
145.284
145.582
145.84
146.051
146.212
146.319
146.376
146.386
146.358
146.297
146.211
146.108
145.993
145.874
145.76
145.659
145.581
145.536
145.531
145.571
145.654
145.775
145.919
146.072
146.215
146.336
146.439
139.13
139.184
139.295
139.41
139.457
139.407
139.287
139.156
139.065
139.033
139.055
139.11
139.181
139.253
139.315
139.358
139.37
139.34
139.271
139.189
139.145
139.211
139.448
139.885
140.501
141.234
141.999
142.724
143.365
143.91
144.371
144.77
145.123
145.44
145.719
145.954
146.14
146.273
146.354
146.386
146.376
146.33
146.256
146.16
146.05
145.932
145.815
145.706
145.616
145.553
145.527
145.545
145.608
145.712
145.846
145.997
146.148
146.28
146.387
146.457
139.144
139.232
139.359
139.45
139.446
139.351
139.215
139.1
139.04
139.038
139.081
139.146
139.219
139.287
139.341
139.369
139.361
139.31
139.229
139.156
139.158
139.303
139.642
140.179
140.867
141.628
142.381
143.066
143.656
144.154
144.58
144.954
145.289
145.587
145.845
146.055
146.215
146.321
146.376
146.386
146.357
146.295
146.209
146.105
145.99
145.872
145.757
145.657
145.579
145.535
145.53
145.571
145.656
145.777
145.923
146.076
146.22
146.338
146.429
146.465
139.173
139.295
139.419
139.466
139.408
139.281
139.148
139.059
139.032
139.056
139.113
139.184
139.255
139.317
139.359
139.371
139.341
139.271
139.187
139.141
139.207
139.447
139.891
140.515
141.253
142.021
142.744
143.38
143.92
144.378
144.775
145.128
145.445
145.724
145.959
146.144
146.276
146.355
146.386
146.375
146.329
146.254
146.158
146.047
145.93
145.812
145.704
145.613
145.551
145.527
145.545
145.609
145.714
145.85
146.001
146.152
146.286
146.386
146.459
146.462
139.223
139.365
139.461
139.452
139.348
139.207
139.092
139.036
139.039
139.083
139.149
139.221
139.289
139.342
139.37
139.362
139.311
139.228
139.153
139.153
139.3
139.645
140.189
140.884
141.65
142.402
143.083
143.668
144.162
144.586
144.959
145.294
145.592
145.85
146.06
146.218
146.323
146.377
146.385
146.355
146.294
146.207
146.103
145.988
145.869
145.755
145.655
145.577
145.533
145.53
145.572
145.658
145.78
145.927
146.08
146.223
146.343
146.424
146.479
146.449
139.291
139.429
139.476
139.409
139.274
139.139
139.053
139.031
139.058
139.116
139.187
139.257
139.318
139.361
139.372
139.342
139.272
139.185
139.137
139.202
139.446
139.897
140.529
141.274
142.043
142.764
143.395
143.93
144.385
144.78
145.133
145.45
145.729
145.963
146.147
146.278
146.356
146.386
146.374
146.327
146.252
146.155
146.045
145.927
145.81
145.701
145.611
145.55
145.526
145.545
145.61
145.717
145.853
146.005
146.156
146.289
146.392
146.452
146.487
146.426
139.369
139.473
139.458
139.343
139.197
139.084
139.033
139.04
139.086
139.152
139.224
139.29
139.343
139.372
139.363
139.312
139.227
139.15
139.148
139.297
139.647
140.199
140.902
141.671
142.424
143.1
143.68
144.17
144.591
144.964
145.299
145.597
145.855
146.064
146.221
146.324
146.377
146.385
146.354
146.292
146.205
146.1
145.985
145.866
145.753
145.652
145.576
145.532
145.53
145.573
145.66
145.783
145.93
146.084
146.228
146.346
146.43
146.468
146.484
146.393
139.44
139.486
139.409
139.265
139.129
139.048
139.03
139.061
139.119
139.189
139.259
139.32
139.362
139.373
139.343
139.272
139.183
139.133
139.198
139.445
139.903
140.544
141.294
142.065
142.783
143.41
143.94
144.391
144.785
145.138
145.455
145.734
145.968
146.151
146.28
146.357
146.386
146.373
146.326
146.25
146.153
146.042
145.924
145.807
145.699
145.609
145.548
145.525
145.546
145.612
145.719
145.857
146.01
146.16
146.293
146.393
146.457
146.473
146.47
146.353
139.489
139.463
139.337
139.187
139.077
139.031
139.041
139.089
139.155
139.226
139.292
139.344
139.373
139.365
139.313
139.226
139.147
139.143
139.294
139.65
140.21
140.92
141.694
142.445
143.118
143.692
144.178
144.597
144.968
145.304
145.603
145.86
146.068
146.224
146.326
146.378
146.384
146.353
146.29
146.203
146.098
145.982
145.864
145.75
145.65
145.574
145.531
145.529
145.573
145.662
145.787
145.934
146.088
146.232
146.349
146.431
146.473
146.468
146.447
146.305
139.503
139.408
139.255
139.12
139.043
139.03
139.063
139.122
139.192
139.261
139.321
139.363
139.375
139.345
139.272
139.181
139.128
139.193
139.444
139.91
140.559
141.316
142.088
142.803
143.424
143.949
144.397
144.79
145.143
145.461
145.739
145.973
146.155
146.283
146.358
146.386
146.372
146.324
146.248
146.151
146.04
145.922
145.805
145.697
145.607
145.547
145.524
145.546
145.613
145.722
145.86
146.014
146.164
146.296
146.396
146.457
146.478
146.453
146.414
146.25
139.476
139.331
139.176
139.069
139.029
139.043
139.092
139.158
139.228
139.294
139.346
139.374
139.366
139.314
139.226
139.143
139.138
139.29
139.652
140.221
140.939
141.716
142.466
143.134
143.703
144.185
144.602
144.973
145.309
145.608
145.865
146.072
146.227
146.328
146.378
146.384
146.351
146.288
146.2
146.095
145.98
145.861
145.748
145.648
145.572
145.53
145.529
145.574
145.664
145.79
145.938
146.093
146.235
146.352
146.433
146.473
146.473
146.427
146.373
146.189
139.415
139.246
139.11
139.039
139.031
139.066
139.125
139.194
139.263
139.323
139.364
139.376
139.346
139.273
139.179
139.124
139.188
139.443
139.916
140.575
141.337
142.111
142.822
143.438
143.958
144.403
144.795
145.148
145.466
145.745
145.977
146.158
146.285
146.359
146.386
146.371
146.322
146.246
146.148
146.037
145.919
145.802
145.694
145.605
145.545
145.523
145.546
145.614
145.724
145.864
146.018
146.169
146.3
146.399
146.459
146.477
146.457
146.393
146.324
146.123
139.331
139.167
139.063
139.028
139.045
139.095
139.16
139.23
139.295
139.347
139.375
139.367
139.315
139.225
139.14
139.133
139.286
139.654
140.232
140.959
141.739
142.488
143.151
143.715
144.192
144.607
144.978
145.314
145.614
145.87
146.077
146.23
146.329
146.378
146.383
146.35
146.286
146.198
146.093
145.977
145.859
145.745
145.646
145.57
145.528
145.529
145.575
145.666
145.793
145.942
146.097
146.239
146.356
146.435
146.474
146.471
146.431
146.351
146.268
146.053
139.24
139.102
139.036
139.032
139.069
139.127
139.196
139.265
139.324
139.365
139.377
139.347
139.273
139.177
139.119
139.182
139.441
139.923
140.591
141.359
142.134
142.842
143.452
143.967
144.409
144.8
145.153
145.472
145.75
145.982
146.162
146.287
146.36
146.386
146.37
146.321
146.244
146.146
146.035
145.917
145.799
145.692
145.603
145.544
145.522
145.546
145.616
145.727
145.867
146.022
146.173
146.303
146.402
146.46
146.478
146.455
146.397
146.301
146.206
145.98
139.157
139.058
139.028
139.048
139.097
139.162
139.232
139.297
139.348
139.376
139.368
139.316
139.225
139.137
139.127
139.282
139.656
140.244
140.979
141.763
142.51
143.167
143.725
144.199
144.612
144.983
145.32
145.619
145.875
146.081
146.232
146.331
146.379
146.383
146.349
146.284
146.196
146.09
145.975
145.856
145.743
145.643
145.568
145.527
145.528
145.576
145.668
145.796
145.946
146.101
146.243
146.359
146.437
146.475
146.471
146.429
146.354
146.245
146.139
145.905
139.091
139.034
139.034
139.071
139.13
139.198
139.267
139.326
139.366
139.378
139.349
139.274
139.176
139.114
139.176
139.44
139.93
140.607
141.382
142.157
142.861
143.465
143.975
144.415
144.805
145.159
145.477
145.756
145.987
146.165
146.289
146.361
146.386
146.369
146.319
146.241
146.144
146.032
145.914
145.797
145.689
145.601
145.542
145.522
145.546
145.617
145.729
145.871
146.026
146.177
146.307
146.404
146.462
146.478
146.454
146.394
146.304
146.182
146.068
145.828
139.049
139.028
139.051
139.1
139.164
139.234
139.299
139.349
139.376
139.37
139.317
139.225
139.133
139.121
139.277
139.659
140.256
140.999
141.787
142.531
143.183
143.736
144.206
144.617
144.989
145.325
145.625
145.88
146.085
146.235
146.332
146.379
146.382
146.347
146.282
146.194
146.088
145.972
145.854
145.74
145.641
145.566
145.526
145.528
145.577
145.67
145.799
145.95
146.105
146.247
146.362
146.439
146.475
146.471
146.428
146.351
146.247
146.115
145.993
145.752
139.028
139.036
139.074
139.132
139.2
139.269
139.327
139.367
139.378
139.35
139.275
139.174
139.109
139.17
139.438
139.937
140.625
141.405
142.18
142.879
143.477
143.983
144.42
144.81
145.164
145.483
145.761
145.991
146.169
146.291
146.362
146.385
146.368
146.317
146.239
146.141
146.029
145.911
145.794
145.687
145.599
145.541
145.521
145.546
145.619
145.732
145.875
146.03
146.181
146.311
146.407
146.463
146.478
146.453
146.392
146.3
146.184
146.044
145.916
145.675
139.025
139.052
139.102
139.166
139.236
139.301
139.35
139.377
139.371
139.319
139.225
139.13
139.114
139.272
139.661
140.269
141.021
141.811
142.552
143.199
143.745
144.212
144.623
144.994
145.331
145.63
145.885
146.089
146.238
146.333
146.379
146.381
146.346
146.28
146.191
146.085
145.969
145.851
145.738
145.639
145.565
145.525
145.528
145.577
145.672
145.802
145.954
146.11
146.251
146.365
146.441
146.476
146.47
146.426
146.349
146.243
146.117
145.97
145.838
145.601
139.034
139.075
139.133
139.202
139.271
139.329
139.367
139.379
139.351
139.277
139.173
139.103
139.163
139.435
139.945
140.643
141.429
142.204
142.898
143.49
143.991
144.426
144.815
145.169
145.489
145.767
145.996
146.172
146.293
146.363
146.385
146.367
146.316
146.237
146.139
146.027
145.909
145.792
145.685
145.597
145.539
145.52
145.547
145.62
145.735
145.878
146.035
146.185
146.314
146.409
146.465
146.478
146.452
146.391
146.298
146.181
146.045
145.893
145.759
145.528
139.052
139.103
139.167
139.238
139.303
139.352
139.377
139.371
139.321
139.226
139.127
139.107
139.266
139.663
140.282
141.043
141.836
142.574
143.214
143.755
144.218
144.628
144.999
145.337
145.636
145.89
146.093
146.241
146.335
146.38
146.381
146.345
146.279
146.189
146.083
145.967
145.848
145.735
145.637
145.563
145.524
145.527
145.578
145.674
145.806
145.958
146.114
146.255
146.368
146.443
146.477
146.47
146.425
146.347
146.241
146.113
145.971
145.816
145.682
145.459
139.075
139.134
139.203
139.273
139.331
139.368
139.379
139.353
139.278
139.172
139.098
139.155
139.432
139.953
140.661
141.454
142.227
142.916
143.502
143.998
144.431
144.82
145.175
145.495
145.772
146.001
146.175
146.295
146.363
146.385
146.366
146.314
146.235
146.136
146.024
145.906
145.789
145.682
145.595
145.537
145.519
145.547
145.622
145.737
145.882
146.039
146.19
146.318
146.412
146.466
146.478
146.451
146.389
146.296
146.178
146.041
145.894
145.738
145.606
145.392
139.102
139.168
139.24
139.305
139.353
139.378
139.372
139.323
139.227
139.123
139.1
139.26
139.665
140.296
141.066
141.861
142.595
143.228
143.764
144.224
144.633
145.005
145.343
145.642
145.896
146.097
146.243
146.336
146.38
146.38
146.343
146.277
146.187
146.08
145.964
145.846
145.733
145.635
145.561
145.522
145.527
145.579
145.676
145.809
145.962
146.118
146.259
146.371
146.445
146.477
146.469
146.424
146.345
146.239
146.11
145.966
145.816
145.661
145.533
145.328
139.133
139.205
139.276
139.333
139.369
139.379
139.354
139.28
139.171
139.092
139.147
139.429
139.961
140.681
141.479
142.251
142.934
143.513
144.005
144.436
144.826
145.181
145.5
145.778
146.005
146.179
146.297
146.364
146.385
146.365
146.312
146.233
146.134
146.022
145.904
145.787
145.68
145.593
145.536
145.519
145.547
145.623
145.74
145.886
146.043
146.194
146.321
146.414
146.467
146.478
146.451
146.387
146.294
146.175
146.038
145.889
145.739
145.586
145.464
145.267
139.168
139.242
139.308
139.354
139.377
139.372
139.325
139.228
139.12
139.092
139.253
139.667
140.311
141.089
141.886
142.616
143.242
143.772
144.23
144.638
145.01
145.348
145.648
145.901
146.101
146.246
146.337
146.38
146.379
146.342
146.275
146.184
146.078
145.962
145.843
145.73
145.632
145.559
145.521
145.527
145.58
145.678
145.812
145.966
146.123
146.263
146.374
146.447
146.478
146.469
146.422
146.343
146.236
146.107
145.963
145.812
145.662
145.513
145.398
145.209
139.205
139.278
139.335
139.369
139.379
139.355
139.283
139.171
139.086
139.138
139.426
139.969
140.701
141.505
142.275
142.951
143.523
144.012
144.442
144.831
145.187
145.506
145.783
146.01
146.182
146.299
146.365
146.384
146.364
146.311
146.231
146.132
146.019
145.901
145.784
145.678
145.591
145.534
145.518
145.547
145.625
145.743
145.89
146.048
146.198
146.325
146.417
146.468
146.478
146.45
146.386
146.292
146.173
146.035
145.887
145.734
145.587
145.443
145.336
145.151
139.243
139.311
139.356
139.377
139.372
139.327
139.231
139.117
139.083
139.245
139.669
140.326
141.114
141.912
142.636
143.256
143.781
144.236
144.643
145.016
145.354
145.654
145.906
146.105
146.249
146.339
146.38
146.378
146.34
146.273
146.182
146.075
145.959
145.841
145.728
145.63
145.557
145.52
145.526
145.581
145.68
145.816
145.971
146.127
146.267
146.377
146.448
146.479
146.468
146.421
146.341
146.234
146.104
145.96
145.809
145.657
145.515
145.376
145.279
145.093
139.281
139.338
139.369
139.378
139.356
139.286
139.172
139.08
139.129
139.422
139.978
140.723
141.532
142.298
142.967
143.534
144.018
144.447
144.837
145.193
145.512
145.789
146.014
146.185
146.301
146.365
146.384
146.363
146.309
146.229
146.129
146.017
145.898
145.782
145.675
145.589
145.533
145.517
145.548
145.626
145.746
145.894
146.052
146.202
146.328
146.419
146.469
146.478
146.449
146.384
146.289
146.17
146.032
145.883
145.731
145.582
145.446
145.313
145.224
145.033
139.315
139.357
139.375
139.371
139.33
139.234
139.115
139.074
139.236
139.671
140.343
141.14
141.938
142.656
143.269
143.788
144.241
144.649
145.022
145.361
145.66
145.911
146.109
146.251
146.34
146.38
146.378
146.339
146.271
146.18
146.073
145.956
145.838
145.726
145.628
145.556
145.519
145.526
145.582
145.683
145.819
145.975
146.131
146.271
146.38
146.45
146.479
146.468
146.42
146.339
146.231
146.101
145.957
145.805
145.654
145.51
145.38
145.252
145.173
144.968
139.342
139.369
139.376
139.357
139.29
139.173
139.073
139.118
139.417
139.988
140.746
141.559
142.322
142.983
143.543
144.025
144.453
144.842
145.199
145.518
145.794
146.019
146.188
146.303
146.366
146.384
146.362
146.307
146.227
146.127
146.014
145.896
145.779
145.673
145.587
145.531
145.516
145.548
145.628
145.749
145.898
146.056
146.206
146.332
146.421
146.47
146.478
146.448
146.382
146.287
146.167
146.029
145.88
145.727
145.58
145.44
145.318
145.195
145.123
144.895
139.361
139.374
139.37
139.333
139.238
139.113
139.064
139.226
139.672
140.36
141.167
141.965
142.676
143.281
143.796
144.247
144.655
145.028
145.367
145.665
145.916
146.113
146.254
146.341
146.38
146.377
146.338
146.269
146.178
146.07
145.954
145.836
145.723
145.626
145.554
145.518
145.526
145.583
145.685
145.822
145.979
146.136
146.275
146.383
146.452
146.479
146.467
146.418
146.337
146.229
146.099
145.954
145.802
145.651
145.507
145.374
145.26
145.139
145.072
144.81
139.371
139.373
139.358
139.295
139.175
139.066
139.105
139.411
139.998
140.77
141.588
142.345
142.998
143.552
144.031
144.458
144.848
145.205
145.525
145.8
146.024
146.192
146.305
146.366
146.383
146.361
146.306
146.225
146.124
146.012
145.893
145.777
145.671
145.585
145.53
145.515
145.548
145.629
145.752
145.902
146.061
146.211
146.335
146.424
146.471
146.478
146.446
146.381
146.285
146.165
146.026
145.876
145.724
145.576
145.438
145.312
145.204
145.083
145.018
144.71
139.373
139.368
139.336
139.243
139.111
139.052
139.215
139.674
140.379
141.196
141.992
142.695
143.292
143.803
144.253
144.66
145.034
145.373
145.671
145.921
146.116
146.256
146.342
146.38
146.376
146.336
146.267
146.175
146.068
145.951
145.833
145.721
145.624
145.552
145.516
145.526
145.584
145.687
145.826
145.983
146.14
146.279
146.386
146.453
146.48
146.466
146.417
146.335
146.226
146.096
145.95
145.798
145.647
145.504
145.373
145.253
145.15
145.025
144.956
144.59
139.371
139.358
139.301
139.179
139.059
139.091
139.404
140.009
140.796
141.617
142.368
143.013
143.561
144.037
144.464
144.854
145.211
145.531
145.806
146.028
146.195
146.306
146.367
146.383
146.36
146.304
146.223
146.122
146.009
145.891
145.774
145.669
145.583
145.528
145.515
145.549
145.631
145.755
145.906
146.065
146.215
146.339
146.426
146.472
146.478
146.445
146.379
146.283
146.162
146.023
145.873
145.721
145.573
145.435
145.311
145.197
145.097
144.962
144.884
144.445
139.366
139.34
139.25
139.11
139.039
139.201
139.676
140.4
141.226
142.018
142.712
143.302
143.81
144.259
144.666
145.04
145.379
145.677
145.926
146.12
146.258
146.343
146.38
146.375
146.335
146.265
146.173
146.065
145.949
145.831
145.718
145.622
145.55
145.515
145.525
145.585
145.69
145.83
145.988
146.145
146.283
146.389
146.455
146.48
146.466
146.415
146.333
146.224
146.093
145.947
145.795
145.644
145.501
145.37
145.252
145.143
145.041
144.892
144.797
144.272
139.359
139.308
139.184
139.052
139.074
139.396
140.022
140.825
141.647
142.39
143.026
143.569
144.044
144.47
144.86
145.217
145.537
145.811
146.033
146.198
146.308
146.367
146.382
146.359
146.303
146.221
146.119
146.006
145.888
145.772
145.666
145.581
145.527
145.514
145.549
145.633
145.758
145.91
146.07
146.219
146.342
146.428
146.473
146.478
146.444
146.377
146.281
146.159
146.02
145.87
145.717
145.57
145.432
145.308
145.196
145.089
144.981
144.809
144.69
144.066
139.344
139.259
139.111
139.025
139.185
139.678
140.424
141.258
142.045
142.729
143.312
143.817
144.265
144.672
145.046
145.385
145.683
145.931
146.124
146.261
146.344
146.38
146.375
146.334
146.263
146.171
146.063
145.946
145.828
145.716
145.619
145.549
145.514
145.525
145.586
145.692
145.833
145.992
146.149
146.287
146.391
146.457
146.48
146.465
146.414
146.331
146.221
146.09
145.944
145.791
145.641
145.498
145.367
145.249
145.142
145.033
144.913
144.711
144.558
143.823
139.316
139.192
139.045
139.055
139.386
140.037
140.856
141.678
142.41
143.038
143.577
144.05
144.476
144.866
145.223
145.543
145.817
146.037
146.201
146.309
146.368
146.382
146.358
146.301
146.218
146.117
146.004
145.885
145.77
145.664
145.579
145.525
145.513
145.549
145.634
145.761
145.914
146.074
146.224
146.345
146.43
146.474
146.477
146.443
146.376
146.278
146.157
146.017
145.866
145.714
145.566
145.429
145.305
145.193
145.088
144.973
144.833
144.593
144.396
143.542
139.271
139.116
139.009
139.165
139.68
140.45
141.291
142.07
142.744
143.321
143.824
144.271
144.678
145.052
145.391
145.689
145.937
146.128
146.263
146.345
146.38
146.374
146.332
146.261
146.168
146.06
145.943
145.825
145.714
145.617
145.547
145.513
145.525
145.587
145.694
145.837
145.997
146.154
146.291
146.394
146.458
146.481
146.464
146.413
146.329
146.219
146.087
145.94
145.788
145.637
145.495
145.364
145.247
145.139
145.033
144.905
144.736
144.45
144.199
143.221
139.207
139.042
139.031
139.373
140.054
140.89
141.708
142.429
143.048
143.584
144.057
144.483
144.872
145.229
145.549
145.822
146.042
146.204
146.311
146.368
146.381
146.356
146.299
146.216
146.115
146.001
145.883
145.767
145.662
145.577
145.524
145.512
145.55
145.636
145.764
145.918
146.079
146.228
146.349
146.432
146.475
146.477
146.442
146.374
146.276
146.154
146.013
145.863
145.71
145.563
145.426
145.302
145.191
145.086
144.972
144.825
144.618
144.279
143.961
142.861
139.132
138.993
139.139
139.682
140.482
141.327
142.094
142.757
143.33
143.831
144.278
144.684
145.058
145.397
145.695
145.942
146.132
146.265
146.346
146.38
146.373
146.331
146.259
146.166
146.058
145.941
145.823
145.711
145.615
145.545
145.512
145.525
145.587
145.697
145.84
146.001
146.158
146.294
146.397
146.459
146.481
146.463
146.411
146.327
146.216
146.084
145.937
145.784
145.634
145.491
145.361
145.244
145.137
145.03
144.904
144.729
144.474
144.075
143.68
142.464
139.052
138.999
139.356
140.077
140.93
141.738
142.446
143.058
143.592
144.064
144.489
144.878
145.235
145.555
145.828
146.046
146.206
146.312
146.368
146.381
146.355
146.297
146.214
146.112
145.998
145.88
145.765
145.66
145.575
145.522
145.512
145.55
145.638
145.767
145.922
146.083
146.232
146.352
146.434
146.475
146.477
146.441
146.372
146.274
146.151
146.01
145.859
145.707
145.56
145.423
145.3
145.188
145.084
144.97
144.824
144.611
144.3
143.835
143.35
142.038
138.98
139.1
139.687
140.522
141.364
142.115
142.768
143.338
143.839
144.285
144.69
145.064
145.404
145.701
145.947
146.135
146.267
146.346
146.38
146.372
146.329
146.257
146.164
146.055
145.938
145.82
145.709
145.613
145.543
145.511
145.524
145.588
145.699
145.844
146.005
146.163
146.298
146.4
146.461
146.481
146.463
146.41
146.325
146.214
146.081
145.934
145.781
145.63
145.488
145.358
145.242
145.135
145.028
144.903
144.728
144.467
144.091
143.556
142.97
141.593
138.947
139.331
140.111
140.974
141.765
142.459
143.068
143.601
144.072
144.495
144.884
145.241
145.562
145.834
146.05
146.209
146.313
146.369
146.38
146.354
146.296
146.212
146.109
145.996
145.878
145.762
145.657
145.573
145.521
145.511
145.55
145.639
145.77
145.926
146.088
146.236
146.355
146.436
146.476
146.476
146.44
146.37
146.272
146.148
146.007
145.856
145.703
145.556
145.42
145.297
145.186
145.081
144.969
144.823
144.609
144.293
143.845
143.235
142.541
141.145
139.011
139.704
140.575
141.399
142.132
142.779
143.348
143.848
144.292
144.696
145.07
145.41
145.708
145.952
146.139
146.269
146.347
146.38
146.371
146.328
146.256
146.161
146.052
145.935
145.818
145.706
145.611
145.541
145.509
145.524
145.589
145.701
145.848
146.01
146.167
146.302
146.402
146.462
146.481
146.462
146.408
146.323
146.211
146.078
145.93
145.777
145.627
145.485
145.356
145.239
145.132
145.027
144.901
144.726
144.465
144.084
143.559
142.872
142.068
140.713
139.265
140.171
141.021
141.786
142.472
143.08
143.612
144.08
144.502
144.89
145.249
145.569
145.841
146.056
146.213
146.316
146.37
146.381
146.354
146.294
146.21
146.107
145.993
145.875
145.759
145.654
145.57
145.518
145.509
145.55
145.64
145.773
145.931
146.093
146.241
146.36
146.439
146.478
146.476
146.439
146.369
146.27
146.146
146.004
145.852
145.699
145.553
145.417
145.294
145.184
145.08
144.968
144.823
144.61
144.292
143.84
143.235
142.468
141.559
140.32
)
;

boundaryField
{
    bottomwall
    {
        type            opaque;
        refValue        uniform 0;
        refGradient     uniform 0;
        valueFraction   uniform 0;
        source          uniform 0;
        value           nonuniform List<scalar> 
60
(
139.044
139.162
139.284
139.352
139.321
139.224
139.133
139.098
139.13
139.21
139.306
139.382
139.408
139.371
139.284
139.18
139.095
139.054
139.062
139.109
139.178
139.251
139.313
139.351
139.354
139.318
139.255
139.193
139.184
139.285
139.544
139.98
140.577
141.281
142.024
142.741
143.388
143.945
144.416
144.818
145.167
145.474
145.742
145.968
146.147
146.276
146.355
146.385
146.373
146.325
146.249
146.151
146.04
145.923