/*--------------------------------*- C++ -*----------------------------------*\
| =========                 |                                                 |
| \\      /  F ield         | OpenFOAM: The Open Source CFD Toolbox           |
|  \\    /   O peration     | Version:  2406                                  |
|   \\  /    A nd           | Website:  www.openfoam.com                      |
|    \\/     M anipulation  |                                                 |
\*---------------------------------------------------------------------------*/
FoamFile
{
    version     2.0;
    format      ascii;
    arch        "LSB;label=32;scalar=64";
    class       volScalarField;
    location    "5000";
    object      ILambda_17_0;
}
// * * * * * * * * * * * * * * * * * * * * * * * * * * * * * * * * * * * * * //

dimensions      [1 0 -3 0 0 0 0];

internalField   nonuniform List<scalar> 
3600
(
144.024
146.211
147.145
147.769
148.182
148.47
148.68
148.842
148.974
149.09
149.198
149.3
149.399
149.494
149.586
149.677
149.768
149.86
149.955
150.052
150.149
150.244
150.335
150.419
150.496
150.571
150.654
150.751
150.859
150.959
151.012
150.976
150.832
150.621
150.467
150.581
151.225
152.65
155.014
158.324
162.402
166.904
171.382
175.373
178.496
180.514
181.343
181.016
179.622
177.28
174.131
170.348
166.154
161.812
157.601
153.748
150.34
147.229
144.019
140.349
145.378
147.246
147.734
148.173
148.463
148.675
148.839
148.973
149.09
149.198
149.3
149.399
149.494
149.586
149.677
149.768
149.861
149.956
150.052
150.149
150.244
150.334
150.417
150.495
150.572
150.658
150.757
150.864
150.958
151.001
150.954
150.803
150.595
150.458
150.603
151.284
152.742
155.125
158.432
162.484
166.941
171.366
175.312
178.406
180.414
181.246
180.924
179.535
177.198
174.055
170.286
166.119
161.821
157.66
153.828
150.356
147.089
143.826
140.721
138.642
146.503
147.908
148.141
148.468
148.675
148.839
148.973
149.09
149.198
149.3
149.398
149.493
149.586
149.677
149.768
149.861
149.956
150.053
150.149
150.244
150.333
150.416
150.494
150.573
150.661
150.761
150.868
150.957
150.993
150.937
150.781
150.574
150.448
150.61
151.311
152.786
155.179
158.483
162.521
166.955
171.357
175.283
178.369
180.378
181.214
180.896
179.507
177.168
174.025
170.262
166.113
161.841
157.7
153.856
150.322
146.981
143.753
140.872
138.984
138.668
147.339
148.311
148.432
148.684
148.839
148.974
149.091
149.198
149.3
149.398
149.493
149.586
149.677
149.768
149.861
149.956
150.053
150.149
150.243
150.332
150.415
150.494
150.574
150.664
150.765
150.871
150.956
150.985
150.922
150.761
150.557
150.439
150.616
151.335
152.824
155.222
158.521
162.544
166.959
171.341
175.256
178.339
180.352
181.196
180.882
179.494
177.152
174.008
170.252
166.118
161.866
157.734
153.868
150.283
146.902
143.718
140.978
139.171
138.641
139.06
147.916
148.565
148.65
148.849
148.973
149.092
149.199
149.3
149.398
149.493
149.586
149.677
149.768
149.861
149.956
150.053
150.149
150.243
150.331
150.414
150.494
150.576
150.667
150.769
150.873
150.954
150.976
150.906
150.742
150.54
150.432
150.624
151.359
152.86
155.262
158.556
162.564
166.959
171.324
175.227
178.309
180.328
181.18
180.871
179.483
177.139
173.996
170.248
166.129
161.892
157.762
153.874
150.248
146.844
143.701
141.057
139.302
138.676
138.933
139.413
148.304
148.743
148.823
148.983
149.091
149.2
149.3
149.398
149.493
149.586
149.677
149.768
149.862
149.957
150.053
150.149
150.242
150.33
150.413
150.494
150.577
150.67
150.773
150.875
150.952
150.967
150.891
150.723
150.523
150.425
150.631
151.382
152.896
155.302
158.59
162.583
166.96
171.306
175.199
178.278
180.303
181.163
180.86
179.473
177.128
173.986
170.246
166.14
161.916
157.785
153.875
150.217
146.802
143.694
141.12
139.402
138.719
138.871
139.335
139.669
148.569
148.883
148.964
149.098
149.198
149.301
149.398
149.493
149.585
149.677
149.769
149.862
149.957
150.053
150.149
150.242
150.33
150.413
150.494
150.579
150.673
150.777
150.877
150.95
150.958
150.876
150.705
150.507
150.418
150.639
151.405
152.931
155.341
158.623
162.602
166.96
171.29
175.171
178.249
180.278
181.145
180.847
179.462
177.118
173.978
170.246
166.153
161.938
157.804
153.875
150.192
146.769
143.692
141.172
139.482
138.761
138.836
139.271
139.649
139.843
148.76
149.004
149.086
149.203
149.3
149.399
149.493
149.585
149.677
149.769
149.862
149.957
150.053
150.149
150.241
150.329
150.412
150.494
150.581
150.676
150.78
150.879
150.947
150.949
150.86
150.687
150.492
150.412
150.647
151.428
152.965
155.379
158.656
162.621
166.961
171.274
175.145
178.219
180.253
181.126
180.834
179.451
177.108
173.971
170.247
166.165
161.957
157.819
153.873
150.17
146.745
143.694
141.217
139.549
138.8
138.817
139.219
139.619
139.841
139.922
148.909
149.114
149.195
149.303
149.398
149.493
149.585
149.677
149.769
149.862
149.957
150.053
150.148
150.24
150.328
150.412
150.495
150.583
150.68
150.783
150.88
150.944
150.94
150.846
150.669
150.477
150.406
150.655
151.451
152.999
155.417
158.688
162.64
166.962
171.259
175.119
178.19
180.227
181.107
180.82
179.44
177.098
173.966
170.249
166.177
161.975
157.832
153.87
150.151
146.726
143.698
141.257
139.607
138.837
138.806
139.177
139.586
139.835
139.918
139.902
149.035
149.217
149.297
149.4
149.492
149.586
149.677
149.769
149.863
149.958
150.053
150.148
150.24
150.327
150.411
150.495
150.585
150.683
150.786
150.881
150.94
150.931
150.831
150.652
150.463
150.401
150.663
151.474
153.032
155.454
158.719
162.658
166.963
171.244
175.094
178.162
180.202
181.087
180.806
179.429
177.089
173.961
170.252
166.188
161.99
157.843
153.868
150.136
146.711
143.705
141.293
139.658
138.871
138.801
139.141
139.552
139.822
139.918
139.898
139.814
149.147
149.316
149.395
149.494
149.585
149.677
149.769
149.863
149.958
150.053
150.148
150.239
150.327
150.411
150.496
150.587
150.686
150.789
150.882
150.937
150.921
150.816
150.636
150.45
150.396
150.671
151.496
153.065
155.49
158.75
162.676
166.965
171.23
175.069
178.134
180.176
181.067
180.791
179.417
177.081
173.957
170.255
166.199
162.004
157.852
153.865
150.123
146.7
143.712
141.326
139.704
138.903
138.8
139.112
139.519
139.806
139.917
139.899
139.815
139.704
149.251
149.411
149.49
149.586
149.677
149.77
149.863
149.958
150.053
150.148
150.239
150.326
150.411
150.497
150.589
150.689
150.792
150.882
150.933
150.912
150.802
150.619
150.437
150.392
150.68
151.518
153.097
155.526
158.781
162.694
166.967
171.216
175.045
178.106
180.15
181.047
180.775
179.406
177.073
173.954
170.258
166.209
162.017
157.859
153.862
150.112
146.692
143.721
141.357
139.745
138.932
138.8
139.087
139.488
139.787
139.913
139.9
139.817
139.711
139.616
149.35
149.505
149.582
149.678
149.77
149.863
149.958
150.053
150.147
150.238
150.325
150.411
150.498
150.591
150.692
150.795
150.883
150.929
150.902
150.788
150.603
150.424
150.388
150.689
151.54
153.129
155.56
158.811
162.712
166.969
171.203
175.022
178.079
180.125
181.025
180.759
179.394
177.065
173.951
170.262
166.218
162.028
157.866
153.86
150.103
146.687
143.73
141.385
139.783
138.96
138.803
139.065
139.459
139.767
139.906
139.901
139.819
139.714
139.624
139.569
149.445
149.597
149.675
149.771
149.863
149.958
150.053
150.147
150.238
150.325
150.411
150.499
150.593
150.694
150.797
150.883
150.924
150.893
150.774
150.588
150.412
150.385
150.697
151.562
153.161
155.595
158.84
162.73
166.971
171.191
174.999
178.052
180.099
181.004
180.743
179.383
177.058
173.949
170.266
166.227
162.038
157.872
153.858
150.096
146.683
143.74
141.412
139.817
138.986
138.807
139.047
139.431
139.746
139.898
139.902
139.822
139.718
139.629
139.575
139.561
149.539
149.689
149.767
149.864
149.958
150.053
150.147
150.237
150.324
150.411
150.5
150.595
150.697
150.799
150.882
150.92
150.883
150.76
150.573
150.4
150.381
150.706
151.583
153.191
155.629
158.869
162.747
166.973
171.179
174.977
178.025
180.073
180.982
180.726
179.371
177.051
173.947
170.27
166.236
162.048
157.877
153.856
150.09
146.681
143.751
141.437
139.85
139.01
138.811
139.031
139.405
139.724
139.888
139.902
139.825
139.722
139.633
139.579
139.562
139.571
149.631
149.781
149.861
149.959
150.053
150.146
150.236
150.324
150.411
150.501
150.597
150.7
150.801
150.882
150.915
150.873
150.746
150.558
150.389
150.379
150.715
151.604
153.222
155.662
158.897
162.764
166.976
171.167
174.955
177.999
180.047
180.96
180.71
179.359
177.044
173.946
170.274
166.244
162.056
157.882
153.855
150.086
146.68
143.762
141.461
139.88
139.033
138.816
139.016
139.381
139.703
139.877
139.901
139.829
139.726
139.637
139.582
139.563
139.568
139.579
149.724
149.875
149.956
150.054
150.146
150.236
150.324
150.411
150.502
150.599
150.703
150.803
150.881
150.91
150.864
150.732
150.543
150.378
150.376
150.724
151.625
153.252
155.694
158.925
162.781
166.979
171.156
174.934
177.973
180.021
180.938
180.693
179.348
177.038
173.945
170.278
166.251
162.064
157.886
153.854
150.082
146.681
143.773
141.484
139.908
139.055
138.822
139.004
139.358
139.682
139.865
139.899
139.832
139.731
139.642
139.585
139.564
139.567
139.575
139.573
149.818
149.97
150.05
150.146
150.235
150.323
150.411
150.503
150.601
150.705
150.805
150.88
150.905
150.854
150.719
150.529
150.368
150.374
150.733
151.646
153.281
155.727
158.953
162.798
166.982
171.146
174.913
177.947
179.995
180.916
180.675
179.336
177.031
173.944
170.282
166.258
162.071
157.89
153.854
150.08
146.682
143.784
141.506
139.935
139.076
138.827
138.992
139.337
139.661
139.853
139.896
139.836
139.736
139.646
139.588
139.566
139.566
139.573
139.57
139.55
149.912
150.064
150.142
150.236
150.323
150.412
150.504
150.604
150.708
150.806
150.879
150.9
150.844
150.705
150.515
150.358
150.372
150.743
151.667
153.31
155.758
158.98
162.815
166.985
171.135
174.892
177.921
179.97
180.894
180.658
179.324
177.025
173.943
170.286
166.265
162.078
157.894
153.854
150.078
146.685
143.796
141.528
139.96
139.096
138.833
138.982
139.317
139.641
139.84
139.892
139.838
139.741
139.651
139.591
139.567
139.566
139.571
139.568
139.549
139.517
150.006
150.156
150.232
150.323
150.412
150.506
150.606
150.71
150.808
150.878
150.895
150.834
150.692
150.502
150.348
150.37
150.752
151.688
153.339
155.789
159.007
162.832
166.988
171.125
174.872
177.896
179.944
180.871
180.641
179.312
177.019
173.942
170.29
166.271
162.084
157.897
153.854
150.078
146.688
143.808
141.548
139.985
139.114
138.839
138.973
139.298
139.621
139.827
139.888
139.841
139.746
139.655
139.594
139.568
139.565
139.569
139.566
139.548
139.517
139.478
150.098
150.245
150.32
150.413
150.507
150.608
150.712
150.809
150.877
150.889
150.824
150.679
150.489
150.338
150.369
150.762
151.708
153.367
155.82
159.034
162.849
166.992
171.115
174.852
177.871
179.918
180.848
180.623
179.3
177.013
173.942
170.293
166.277
162.09
157.9
153.854
150.078
146.692
143.82
141.568
140.008
139.132
138.844
138.965
139.28
139.602
139.814
139.883
139.843
139.751
139.66
139.598
139.569
139.564
139.568
139.564
139.547
139.517
139.479
139.441
150.188
150.333
150.41
150.509
150.61
150.715
150.81
150.875
150.884
150.814
150.666
150.476
150.329
150.368
150.771
151.728
153.395
155.85
159.06
162.865
166.995
171.106
174.833
177.846
179.893
180.826
180.605
179.289
177.007
173.941
170.297
166.283
162.095
157.904
153.855
150.078
146.697
143.832
141.588
140.03
139.15
138.85
138.957
139.263
139.584
139.8
139.878
139.844
139.756
139.665
139.601
139.57
139.564
139.566
139.563
139.546
139.517
139.48
139.442
139.409
150.277
150.424
150.507
150.613
150.717
150.811
150.873
150.878
150.805
150.654
150.463
150.321
150.367
150.781
151.748
153.423
155.88
159.086
162.881
166.999
171.097
174.814
177.821
179.867
180.803
180.588
179.277
177.001
173.94
170.3
166.289
162.1
157.907
153.856
150.08
146.702
143.844
141.606
140.051
139.166
138.856
138.95
139.247
139.566
139.787
139.872
139.845
139.76
139.67
139.604
139.572
139.564
139.565
139.561
139.545
139.516
139.48
139.443
139.41
139.384
150.368
150.522
150.612
150.719
150.811
150.871
150.872
150.795
150.641
150.451
150.312
150.366
150.79
151.768
153.45
155.909
159.111
162.897
167.002
171.088
174.795
177.797
179.842
180.78
180.57
179.265
176.995
173.94
170.303
166.294
162.105
157.91
153.858
150.082
146.708
143.856
141.625
140.071
139.182
138.861
138.944
139.232
139.548
139.773
139.866
139.846
139.765
139.674
139.608
139.573
139.563
139.563
139.56
139.544
139.516
139.48
139.443
139.41
139.385
139.366
150.465
150.628
150.718
150.813
150.869
150.866
150.785
150.629
150.438
150.304
150.366
150.8
151.788
153.477
155.938
159.136
162.913
167.006
171.079
174.777
177.772
179.816
180.757
180.552
179.253
176.989
173.939
170.307
166.299
162.11
157.913
153.859
150.084
146.714
143.868
141.643
140.091
139.197
138.867
138.938
139.218
139.531
139.76
139.859
139.846
139.769
139.679
139.611
139.575
139.563
139.562
139.558
139.543
139.516
139.481
139.444
139.411
139.385
139.366
139.354
150.568
150.734
150.81
150.867
150.86
150.775
150.616
150.427
150.296
150.366
150.81
151.807
153.503
155.967
159.161
162.929
167.01
171.071
174.758
177.749
179.791
180.734
180.534
179.241
176.983
173.938
170.31
166.304
162.115
157.916
153.861
150.087
146.721
143.88
141.66
140.11
139.212
138.872
138.932
139.204
139.515
139.747
139.853
139.845
139.772
139.684
139.615
139.576
139.563
139.561
139.557
139.542
139.515
139.481
139.444
139.412
139.385
139.367
139.354
139.345
150.674
150.825
150.862
150.855
150.765
150.604
150.415
150.289
150.366
150.819
151.827
153.53
155.995
159.186
162.945
167.014
171.063
174.741
177.725
179.766
180.712
180.516
179.229
176.977
173.937
170.312
166.308
162.119
157.92
153.864
150.09
146.728
143.893
141.677
140.128
139.226
138.877
138.927
139.191
139.499
139.734
139.846
139.845
139.776
139.689
139.618
139.578
139.563
139.56
139.555
139.541
139.515
139.481
139.445
139.412
139.386
139.367
139.354
139.345
139.337
150.77
150.873
150.845
150.756
150.592
150.404
150.282
150.366
150.829
151.846
153.555
156.023
159.21
162.961
167.018
171.055
174.723
177.701
179.741
180.689
180.498
179.217
176.971
173.936
170.315
166.313
162.123
157.923
153.866
150.094
146.735
143.905
141.694
140.146
139.239
138.883
138.922
139.178
139.483
139.721
139.838
139.844
139.779
139.693
139.622
139.58
139.563
139.559
139.554
139.54
139.514
139.481
139.445
139.413
139.386
139.367
139.354
139.344
139.336
139.327
150.833
150.851
150.743
150.581
150.392
150.275
150.367
150.839
151.865
153.581
156.051
159.234
162.976
167.022
171.047
174.706
177.678
179.716
180.666
180.48
179.205
176.965
173.935
170.318
166.317
162.128
157.926
153.869
150.098
146.742
143.917
141.71
140.163
139.253
138.888
138.918
139.166
139.468
139.708
139.831
139.842
139.782
139.697
139.626
139.581
139.563
139.558
139.552
139.539
139.514
139.481
139.446
139.413
139.387
139.367
139.354
139.344
139.336
139.327
139.314
150.837
150.74
150.567
150.382
150.268
150.367
150.849
151.884
153.606
156.078
159.257
162.992
167.026
171.04
174.689
177.655
179.691
180.643
180.462
179.193
176.959
173.934
170.32
166.321
162.132
157.929
153.872
150.102
146.75
143.93
141.726
140.179
139.265
138.893
138.914
139.155
139.454
139.695
139.824
139.841
139.784
139.702
139.629
139.583
139.563
139.557
139.551
139.538
139.513
139.481
139.446
139.414
139.387
139.368
139.354
139.344
139.336
139.326
139.314
139.298
150.764
150.555
150.37
150.262
150.368
150.859
151.903
153.632
156.105
159.281
163.007
167.031
171.033
174.672
177.632
179.667
180.621
180.444
179.18
176.953
173.933
170.322
166.325
162.136
157.933
153.875
150.107
146.758
143.942
141.742
140.196
139.278
138.898
138.91
139.144
139.44
139.683
139.816
139.839
139.787
139.706
139.633
139.585
139.563
139.556
139.55
139.536
139.513
139.481
139.447
139.414
139.388
139.368
139.354
139.344
139.336
139.326
139.314
139.298
139.28
150.616
150.35
150.257
150.369
150.869
151.921
153.656
156.131
159.304
163.022
167.035
171.026
174.655
177.61
179.642
180.598
180.426
179.168
176.946
173.932
170.324
166.328
162.14
157.936
153.878
150.112
146.766
143.954
141.758
140.212
139.29
138.902
138.906
139.133
139.426
139.67
139.808
139.837
139.789
139.71
139.637
139.588
139.564
139.555
139.548
139.535
139.512
139.481
139.447
139.415
139.388
139.368
139.354
139.344
139.335
139.326
139.313
139.298
139.28
139.261
150.43
150.233
150.373
150.879
151.94
153.681
156.158
159.327
163.037
167.039
171.019
174.639
177.587
179.618
180.576
180.408
179.156
176.94
173.93
170.326
166.332
162.143
157.939
153.882
150.117
146.775
143.967
141.773
140.227
139.302
138.907
138.902
139.123
139.413
139.658
139.8
139.834
139.791
139.714
139.64
139.59
139.564
139.554
139.547
139.534
139.512
139.481
139.447
139.415
139.388
139.368
139.354
139.344
139.335
139.325
139.313
139.298
139.28
139.261
139.244
150.29
150.356
150.893
151.958
153.705
156.184
159.349
163.052
167.043
171.012
174.623
177.565
179.594
180.553
180.389
179.144
176.933
173.929
170.328
166.336
162.147
157.943
153.886
150.122
146.783
143.979
141.788
140.242
139.313
138.912
138.899
139.113
139.4
139.646
139.793
139.832
139.792
139.717
139.644
139.592
139.565
139.553
139.546
139.533
139.511
139.481
139.448
139.416
139.389
139.369
139.354
139.344
139.335
139.325
139.313
139.297
139.28
139.262
139.245
139.231
150.323
150.895
151.979
153.728
156.209
159.372
163.066
167.048
171.005
174.607
177.543
179.57
180.531
180.371
179.131
176.927
173.927
170.33
166.339
162.151
157.947
153.89
150.128
146.792
143.991
141.803
140.257
139.324
138.916
138.896
139.103
139.387
139.635
139.785
139.829
139.794
139.721
139.648
139.594
139.566
139.553
139.545
139.532
139.51
139.481
139.448
139.416
139.389
139.369
139.355
139.344
139.335
139.325
139.312
139.297
139.28
139.262
139.245
139.232
139.221
150.685
152.019
153.752
156.234
159.394
163.081
167.052
170.999
174.591
177.522
179.546
180.508
180.353
179.119
176.92
173.925
170.331
166.342
162.155
157.95
153.894
150.134
146.801
144.003
141.817
140.271
139.335
138.921
138.893
139.094
139.375
139.623
139.777
139.826
139.795
139.724
139.651
139.597
139.566
139.552
139.544
139.531
139.51
139.481
139.448
139.417
139.39
139.369
139.355
139.344
139.335
139.325
139.312
139.297
139.28
139.262
139.245
139.232
139.222
139.214
151.538
153.847
156.251
159.417
163.095
167.056
170.992
174.576
177.5
179.522
180.486
180.335
179.106
176.913
173.923
170.333
166.346
162.159
157.954
153.898
150.14
146.809
144.016
141.832
140.285
139.346
138.925
138.89
139.085
139.363
139.612
139.769
139.823
139.796
139.728
139.655
139.599
139.567
139.552
139.543
139.53
139.509
139.481
139.449
139.417
139.39
139.37
139.355
139.344
139.335
139.324
139.312
139.297
139.28
139.262
139.246
139.232
139.222
139.214
139.208
153.013
156.417
159.417
163.113
167.06
170.986
174.56
177.479
179.499
180.464
180.317
179.094
176.906
173.921
170.334
166.349
162.162
157.958
153.903
150.146
146.819
144.028
141.846
140.299
139.356
138.929
138.887
139.076
139.351
139.6
139.761
139.819
139.796
139.731
139.658
139.602
139.568
139.552
139.542
139.529
139.509
139.481
139.449
139.418
139.391
139.37
139.355
139.344
139.334
139.324
139.312
139.297
139.28
139.262
139.246
139.232
139.222
139.214
139.207
139.2
155.18
159.667
163.088
167.071
170.979
174.545
177.458
179.475
180.442
180.299
179.081
176.899
173.919
170.336
166.352
162.166
157.962
153.908
150.152
146.828
144.04
141.86
140.313
139.366
138.934
138.885
139.068
139.34
139.589
139.753
139.816
139.797
139.733
139.662
139.604
139.569
139.551
139.541
139.528
139.508
139.48
139.449
139.418
139.391
139.37
139.355
139.344
139.334
139.324
139.311
139.296
139.28
139.262
139.246
139.233
139.222
139.214
139.207
139.199
139.189
158.024
163.425
167.015
170.984
174.529
177.437
179.452
180.42
180.281
179.068
176.892
173.917
170.337
166.355
162.17
157.966
153.912
150.159
146.837
144.052
141.874
140.326
139.376
138.938
138.882
139.06
139.329
139.579
139.745
139.812
139.797
139.736
139.665
139.607
139.57
139.551
139.54
139.527
139.507
139.48
139.449
139.418
139.392
139.371
139.355
139.344
139.334
139.324
139.311
139.296
139.279
139.262
139.246
139.233
139.222
139.214
139.207
139.199
139.189
139.176
161.43
167.434
170.896
174.53
177.414
179.429
180.398
180.263
179.055
176.885
173.915
170.338
166.358
162.173
157.97
153.917
150.166
146.846
144.064
141.887
140.339
139.386
138.942
138.88
139.052
139.318
139.568
139.738
139.808
139.797
139.739
139.668
139.609
139.571
139.551
139.539
139.526
139.506
139.48
139.449
139.419
139.392
139.371
139.355
139.344
139.334
139.323
139.311
139.296
139.279
139.262
139.247
139.233
139.223
139.214
139.207
139.199
139.188
139.175
139.16
165.196
171.378
174.413
177.414
179.403
180.377
180.244
179.043
176.878
173.912
170.338
166.36
162.177
157.975
153.922
150.173
146.856
144.076
141.901
140.352
139.395
138.946
138.877
139.044
139.307
139.557
139.73
139.804
139.797
139.741
139.671
139.612
139.573
139.551
139.538
139.525
139.506
139.48
139.449
139.419
139.392
139.371
139.355
139.344
139.334
139.323
139.311
139.296
139.279
139.262
139.247
139.233
139.223
139.214
139.207
139.199
139.188
139.175
139.16
139.144
169.051
174.931
177.276
179.405
180.35
180.227
179.03
176.87
173.909
170.339
166.363
162.181
157.979
153.928
150.18
146.865
144.088
141.914
140.364
139.404
138.95
138.875
139.037
139.297
139.547
139.722
139.801
139.797
139.743
139.674
139.614
139.574
139.551
139.537
139.524
139.505
139.479
139.45
139.42
139.393
139.372
139.356
139.344
139.333
139.323
139.31
139.296
139.279
139.263
139.247
139.234
139.223
139.215
139.207
139.198
139.188
139.175
139.16
139.144
139.13
172.693
177.795
179.257
180.356
180.203
179.018
176.863
173.907
170.34
166.366
162.185
157.983
153.933
150.187
146.875
144.1
141.927
140.377
139.413
138.954
138.873
139.029
139.287
139.537
139.714
139.797
139.797
139.746
139.677
139.617
139.575
139.551
139.537
139.523
139.504
139.479
139.45
139.42
139.393
139.372
139.356
139.344
139.333
139.323
139.31
139.296
139.279
139.263
139.247
139.234
139.223
139.215
139.207
139.198
139.188
139.175
139.16
139.145
139.13
139.118
175.826
179.739
180.21
180.215
178.998
176.857
173.903
170.341
166.369
162.188
157.988
153.939
150.194
146.884
144.112
141.94
140.389
139.422
138.957
138.871
139.022
139.277
139.527
139.706
139.792
139.796
139.748
139.68
139.62
139.577
139.551
139.536
139.522
139.503
139.479
139.45
139.42
139.394
139.372
139.356
139.344
139.333
139.322
139.31
139.295
139.279
139.263
139.247
139.234
139.223
139.215
139.207
139.198
139.188
139.175
139.16
139.145
139.13
139.118
139.109
178.2
180.619
180.083
179.014
176.842
173.902
170.341
166.371
162.192
157.992
153.944
150.202
146.894
144.124
141.953
140.401
139.431
138.961
138.869
139.015
139.267
139.517
139.699
139.788
139.795
139.749
139.683
139.622
139.578
139.552
139.535
139.521
139.503
139.478
139.45
139.421
139.394
139.373
139.356
139.344
139.333
139.322
139.31
139.295
139.279
139.263
139.247
139.234
139.223
139.215
139.207
139.198
139.187
139.175
139.16
139.145
139.13
139.118
139.109
139.102
179.632
180.386
178.906
176.86
173.892
170.343
166.373
162.196
157.997
153.95
150.209
146.904
144.135
141.966
140.412
139.44
138.965
138.867
139.009
139.257
139.507
139.691
139.784
139.795
139.751
139.686
139.625
139.58
139.552
139.535
139.52
139.502
139.478
139.45
139.421
139.395
139.373
139.356
139.344
139.333
139.322
139.31
139.295
139.279
139.263
139.248
139.234
139.224
139.215
139.207
139.198
139.187
139.174
139.16
139.145
139.131
139.119
139.109
139.102
139.096
180.023
179.081
176.785
173.91
170.337
166.377
162.199
158.002
153.956
150.217
146.914
144.147
141.979
140.424
139.448
138.968
138.865
139.002
139.248
139.498
139.683
139.78
139.794
139.753
139.689
139.627
139.581
139.552
139.534
139.519
139.501
139.478
139.45
139.421
139.395
139.373
139.356
139.344
139.333
139.322
139.309
139.295
139.279
139.263
139.248
139.235
139.224
139.215
139.206
139.198
139.187
139.174
139.16
139.145
139.131
139.119
139.109
139.102
139.096
139.091
179.361
176.817
173.871
170.351
166.375
162.204
158.006
153.962
150.224
146.923
144.159
141.991
140.436
139.457
138.972
138.863
138.996
139.239
139.488
139.676
139.775
139.793
139.754
139.691
139.63
139.583
139.553
139.534
139.519
139.501
139.477
139.45
139.421
139.395
139.374
139.357
139.344
139.333
139.322
139.309
139.295
139.279
139.263
139.248
139.235
139.224
139.215
139.206
139.197
139.187
139.174
139.16
139.145
139.131
139.119
139.109
139.101
139.095
139.091
139.089
177.712
173.76
170.351
166.384
162.205
158.012
153.968
150.232
146.933
144.17
142.003
140.447
139.465
138.976
138.862
138.99
139.23
139.479
139.668
139.771
139.792
139.756
139.694
139.632
139.584
139.553
139.533
139.518
139.5
139.477
139.45
139.422
139.396
139.374
139.357
139.344
139.332
139.321
139.309
139.295
139.279
139.263
139.248
139.235
139.224
139.215
139.206
139.197
139.187
139.174
139.16
139.145
139.131
139.119
139.109
139.101
139.095
139.091
139.09
139.096
175.2
170.104
166.42
162.207
158.016
153.975
150.24
146.943
144.182
142.016
140.458
139.473
138.979
138.86
138.983
139.221
139.47
139.661
139.766
139.79
139.757
139.696
139.635
139.586
139.554
139.533
139.517
139.499
139.476
139.45
139.422
139.396
139.374
139.357
139.344
139.332
139.321
139.309
139.295
139.279
139.263
139.248
139.235
139.224
139.215
139.206
139.197
139.186
139.174
139.16
139.145
139.131
139.119
139.109
139.101
139.095
139.091
139.091
139.098
139.113
171.992
166.054
162.277
158.011
153.982
150.248
146.953
144.194
142.028
140.469
139.481
138.983
138.858
138.977
139.213
139.461
139.653
139.762
139.789
139.758
139.699
139.637
139.588
139.554
139.533
139.516
139.498
139.476
139.45
139.422
139.396
139.374
139.357
139.344
139.332
139.321
139.308
139.294
139.279
139.263
139.248
139.235
139.224
139.215
139.206
139.197
139.186
139.174
139.16
139.145
139.131
139.119
139.109
139.101
139.094
139.09
139.091
139.098
139.114
139.138
168.277
161.814
158.109
153.971
150.259
146.963
144.205
142.04
140.48
139.489
138.986
138.857
138.972
139.204
139.452
139.646
139.757
139.787
139.759
139.701
139.639
139.589
139.555
139.533
139.516
139.498
139.476
139.45
139.422
139.397
139.375
139.357
139.344
139.332
139.321
139.308
139.294
139.279
139.263
139.249
139.235
139.224
139.215
139.206
139.197
139.186
139.174
139.16
139.145
139.132
139.119
139.109
139.101
139.094
139.09
139.091
139.099
139.115
139.137
139.16
164.25
157.577
154.092
150.244
146.977
144.216
142.052
140.49
139.497
138.989
138.855
138.966
139.196
139.443
139.639
139.753
139.786
139.76
139.703
139.642
139.591
139.555
139.532
139.515
139.497
139.475
139.45
139.423
139.397
139.375
139.358
139.344
139.332
139.321
139.308
139.294
139.279
139.263
139.249
139.236
139.224
139.215
139.206
139.197
139.186
139.173
139.16
139.145
139.132
139.119
139.109
139.1
139.094
139.09
139.092
139.1
139.116
139.137
139.158
139.171
160.107
153.519
150.381
146.959
144.233
142.062
140.501
139.504
138.993
138.854
138.96
139.188
139.434
139.631
139.748
139.784
139.761
139.705
139.644
139.593
139.556
139.532
139.514
139.496
139.475
139.45
139.423
139.397
139.375
139.358
139.344
139.332
139.32
139.308
139.294
139.279
139.264
139.249
139.236
139.225
139.215
139.206
139.196
139.186
139.173
139.16
139.145
139.132
139.119
139.109
139.1
139.094
139.09
139.092
139.101
139.117
139.137
139.157
139.169
139.17
156.029
149.796
147.107
144.214
142.081
140.51
139.512
138.996
138.853
138.955
139.18
139.425
139.624
139.743
139.783
139.761
139.707
139.646
139.594
139.557
139.532
139.514
139.496
139.474
139.449
139.423
139.398
139.376
139.358
139.344
139.332
139.32
139.308
139.294
139.279
139.264
139.249
139.236
139.225
139.215
139.206
139.196
139.186
139.173
139.16
139.145
139.132
139.119
139.109
139.1
139.093
139.091
139.093
139.102
139.117
139.137
139.156
139.168
139.168
139.157
152.188
146.535
144.364
142.059
140.527
139.517
138.999
138.851
138.95
139.172
139.417
139.617
139.739
139.781
139.762
139.71
139.649
139.596
139.558
139.532
139.513
139.495
139.474
139.449
139.423
139.398
139.376
139.358
139.344
139.332
139.32
139.308
139.294
139.279
139.264
139.249
139.236
139.225
139.215
139.206
139.196
139.185
139.173
139.16
139.145
139.132
139.119
139.109
139.1
139.093
139.091
139.093
139.102
139.118
139.138
139.156
139.168
139.168
139.157
139.135
148.686
143.821
142.205
140.509
139.538
139.006
138.854
138.946
139.164
139.408
139.609
139.733
139.778
139.761
139.711
139.65
139.597
139.558
139.532
139.512
139.494
139.473
139.449
139.423
139.398
139.376
139.358
139.343
139.331
139.319
139.307
139.293
139.279
139.263
139.249
139.236
139.225
139.215
139.205
139.196
139.185
139.173
139.159
139.145
139.132
139.12
139.109
139.1
139.094
139.091
139.094
139.103
139.118
139.137
139.154
139.165
139.166
139.155
139.134
139.103
145.876
141.784
140.668
139.505
138.993
138.823
138.918
139.142
139.394
139.603
139.734
139.783
139.768
139.718
139.656
139.602
139.562
139.535
139.515
139.497
139.476
139.451
139.425
139.4
139.378
139.36
139.345
139.333
139.321
139.309
139.295
139.28
139.265
139.251
139.238
139.226
139.216
139.207
139.197
139.187
139.174
139.161
139.147
139.133
139.12
139.109
139.099
139.092
139.089
139.092
139.102
139.118
139.137
139.156
139.169
139.172
139.163
139.142
139.108
139.058
142.451
139.822
139.399
138.93
138.9
139.03
139.254
139.476
139.646
139.742
139.766
139.74
139.688
139.631
139.583
139.547
139.522
139.502
139.482
139.46
139.436
139.412
139.389
139.368
139.351
139.338
139.325
139.313
139.3
139.286
139.272
139.257
139.243
139.231
139.22
139.21
139.2
139.19
139.179
139.166
139.153
139.139
139.126
139.114
139.104
139.097
139.093
139.094
139.1
139.112
139.128
139.144
139.158
139.164
139.16
139.144
139.115
139.074
139.022
138.962
)
;

boundaryField
{
    bottomwall
    {
        type            opaque;
        refValue        nonuniform List<scalar> 
60
(
143.312
145.501
146.741
147.505
148.003
148.343
148.585
148.768
148.912
149.034
149.145
149.25
149.351
149.447
149.541
149.631
149.722
149.814
149.907
150.003
150.1
150.197
150.291
150.378
150.459
150.534
150.611
150.698
150.8
150.908
150.993
151.014
150.932
150.751
150.547
150.487
150.815
151.8
153.663
156.498
160.224
164.578
169.15
173.468
177.088
179.691
181.121
181.363
180.486
178.602
175.838
172.347
168.323
164.009
159.674
155.578
151.904
148.71
145.812
142.59
)
;
        refGradient     uniform 0;
        valueFraction   uniform 1;