/*--------------------------------*- C++ -*----------------------------------*\
| =========                 |                                                 |
| \\      /  F ield         | OpenFOAM: The Open Source CFD Toolbox           |
|  \\    /   O peration     | Version:  2406                                  |
|   \\  /    A nd           | Website:  www.openfoam.com                      |
|    \\/     M anipulation  |                                                 |
\*---------------------------------------------------------------------------*/
FoamFile
{
    version     2.0;
    format      ascii;
    arch        "LSB;label=32;scalar=64";
    class       volScalarField;
    location    "5000";
    object      ILambda_15_0;
}
// * * * * * * * * * * * * * * * * * * * * * * * * * * * * * * * * * * * * * //

dimensions      [1 0 -3 0 0 0 0];

internalField   nonuniform List<scalar> 
3600
(
146.515
147.786
148.157
148.504
148.736
148.917
149.062
149.187
149.297
149.398
149.492
149.58
149.66
149.734
149.8
149.859
149.91
149.953
149.988
150.015
150.035
150.05
150.063
150.082
150.115
150.173
150.271
150.424
150.649
150.967
151.409
152.02
152.862
154.014
155.557
157.554
160.022
162.908
166.08
169.329
172.395
175.008
176.927
177.98
178.085
177.248
175.549
173.112
170.09
166.643
162.941
159.154
155.447
151.962
148.806
146.039
143.672
141.687
140.067
138.835
149.042
149.275
149.305
149.393
149.454
149.514
149.564
149.607
149.644
149.674
149.7
149.724
149.749
149.781
149.824
149.886
149.975
150.102
150.279
150.519
150.838
151.253
151.781
152.44
153.247
154.218
155.364
156.696
158.219
159.928
161.812
163.838
165.952
168.071
170.083
171.851
173.229
174.079
174.289
173.798
172.599
170.741
168.324
165.48
162.353
159.088
155.817
152.657
149.706
147.044
144.726
142.782
141.218
140.014
139.14
138.558
138.233
138.135
138.232
138.466
149.57
149.558
149.564
149.583
149.607
149.643
149.694
149.765
149.862
149.994
150.17
150.4
150.694
151.065
151.524
152.081
152.748
153.532
154.442
155.48
156.646
157.936
159.337
160.832
162.396
163.995
165.586
167.119
168.535
169.766
170.742
171.385
171.625
171.399
170.663
169.4
167.628
165.397
162.79
159.918
156.903
153.87
150.935
148.195
145.723
143.572
141.769
140.321
139.22
138.441
137.946
137.692
137.63
137.711
137.893
138.134
138.4
138.658
138.878
139.038
149.733
149.877
150.021
150.218
150.468
150.78
151.163
151.624
152.172
152.813
153.552
154.392
155.334
156.375
157.509
158.724
160.005
161.331
162.677
164.012
165.299
166.499
167.568
168.459
169.127
169.526
169.616
169.36
168.732
167.719
166.322
164.559
162.468
160.103
157.539
154.859
152.156
149.521
147.038
144.776
142.79
141.11
139.751
138.709
137.963
137.486
137.238
137.18
137.266
137.455
137.707
137.989
138.274
138.539
138.771
138.96
139.101
139.199
139.259
139.294
151.42
152.2
152.752
153.452
154.225
155.086
156.028
157.045
158.129
159.265
160.437
161.624
162.803
163.945
165.02
165.995
166.835
167.507
167.975
168.208
168.179
167.864
167.248
166.323
165.092
163.569
161.776
159.751
157.54
155.199
152.791
150.384
148.044
145.836
143.816
142.03
140.507
139.266
138.305
137.615
137.17
136.94
136.889
136.977
137.169
137.427
137.721
138.024
138.316
138.582
138.811
139
139.148
139.26
139.339
139.395
139.434
139.465
139.494
139.527
156.13
157.666
158.571
159.658
160.726
161.797
162.84
163.831
164.744
165.551
166.226
166.739
167.065
167.179
167.063
166.699
166.078
165.197
164.058
162.674
161.064
159.255
157.284
155.191
153.023
150.832
148.668
146.584
144.628
142.842
141.26
139.908
138.801
137.94
137.319
136.92
136.718
136.683
136.781
136.979
137.245
137.548
137.865
138.174
138.462
138.718
138.936
139.114
139.255
139.362
139.441
139.498
139.539
139.57
139.597
139.622
139.649
139.678
139.709
139.74
162.354
163.803
164.446
165.156
165.693
166.087
166.304
166.329
166.145
165.743
165.114
164.258
163.179
161.888
160.402
158.743
156.941
155.028
153.043
151.026
149.019
147.063
145.2
143.465
141.892
140.505
139.323
138.356
137.607
137.068
136.726
136.561
136.547
136.657
136.862
137.132
137.442
137.767
138.089
138.391
138.665
138.903
139.103
139.264
139.391
139.487
139.557
139.608
139.645
139.672
139.694
139.715
139.735
139.757
139.78
139.804
139.827
139.85
139.871
139.889
165.556
165.633
165.351
164.931
164.29
163.452
162.416
161.193
159.797
158.249
156.573
154.798
152.954
151.075
149.198
147.357
145.586
143.917
142.38
140.998
139.789
138.768
137.939
137.302
136.852
136.575
136.455
136.47
136.596
136.809
137.083
137.394
137.723
138.05
138.361
138.645
138.896
139.11
139.286
139.426
139.535
139.615
139.674
139.715
139.744
139.764
139.781
139.795
139.809
139.824
139.839
139.856
139.872
139.887
139.901
139.912
139.921
139.927
139.929
139.929
162.214
160.472
159.262
157.777
156.204
154.536
152.805
151.04
149.27
147.527
145.841
144.239
142.747
141.387
140.178
139.132
138.258
137.559
137.032
136.67
136.461
136.39
136.438
136.585
136.808
137.086
137.398
137.726
138.053
138.366
138.655
138.912
139.134
139.319
139.468
139.585
139.673
139.737
139.781
139.811
139.83
139.843
139.852
139.86
139.867
139.875
139.884
139.893
139.902
139.91
139.917
139.922
139.925
139.925
139.922
139.916
139.908
139.898
139.886
139.872
153.43
150.766
149.315
147.605
146.006
144.464
143.02
141.69
140.493
139.441
138.543
137.805
137.225
136.801
136.523
136.382
136.361
136.444
136.612
136.848
137.131
137.443
137.769
138.093
138.404
138.691
138.949
139.174
139.363
139.517
139.638
139.73
139.797
139.843
139.873
139.891
139.901
139.905
139.907
139.908
139.909
139.911
139.913
139.915
139.918
139.92
139.92
139.919
139.916
139.911
139.904
139.894
139.883
139.869
139.854
139.837
139.819
139.801
139.782
139.763
143.93
141.75
140.788
139.687
138.792
138.027
137.413
136.943
136.613
136.415
136.336
136.364
136.481
136.672
136.921
137.209
137.522
137.844
138.163
138.468
138.751
139.005
139.228
139.416
139.571
139.693
139.786
139.854
139.9
139.93
139.946
139.952
139.953
139.95
139.945
139.939
139.934
139.93
139.926
139.923
139.92
139.916
139.912
139.906
139.898
139.889
139.878
139.865
139.851
139.835
139.818
139.8
139.781
139.763
139.744
139.725
139.707
139.69
139.673
139.657
137.926
136.992
136.739
136.465
136.347
136.325
136.397
136.547
136.76
137.02
137.313
137.625
137.943
138.255
138.553
138.829
139.076
139.293
139.478
139.629
139.75
139.842
139.908
139.953
139.981
139.995
139.998
139.994
139.986
139.976
139.965
139.954
139.944
139.934
139.926
139.918
139.91
139.902
139.893
139.883
139.872
139.86
139.846
139.831
139.815
139.798
139.78
139.761
139.743
139.725
139.707
139.69
139.673
139.657
139.643
139.629
139.617
139.605
139.596
139.587
136.346
136.451
136.642
136.869
137.142
137.438
137.749
138.061
138.366
138.654
138.92
139.159
139.368
139.545
139.692
139.808
139.896
139.96
140.002
140.026
140.037
140.037
140.03
140.017
140.002
139.986
139.969
139.954
139.939
139.926
139.914
139.902
139.89
139.879
139.867
139.854
139.84
139.826
139.81
139.794
139.777
139.76
139.742
139.724
139.707
139.689
139.673
139.657
139.643
139.629
139.617
139.606
139.596
139.587
139.58
139.574
139.569
139.566
139.563
139.561
137.435
137.92
138.186
138.49
138.766
139.022
139.25
139.449
139.618
139.756
139.866
139.948
140.007
140.046
140.067
140.073
140.07
140.058
140.042
140.022
140.001
139.98
139.96
139.941
139.923
139.907
139.892
139.877
139.863
139.849
139.835
139.82
139.805
139.789
139.773
139.756
139.74
139.723
139.706
139.689
139.673
139.658
139.643
139.63
139.617
139.606
139.596
139.588
139.58
139.574
139.569
139.566
139.563
139.561
139.56
139.56
139.561
139.562
139.564
139.566
139.005
139.377
139.526
139.694
139.82
139.923
139.998
140.051
140.085
140.101
140.104
140.096
140.081
140.06
140.037
140.012
139.987
139.962
139.939
139.918
139.898
139.88
139.862
139.846
139.83
139.815
139.799
139.784
139.768
139.752
139.736
139.72
139.704
139.688
139.672
139.657
139.643
139.63
139.618
139.607
139.597
139.588
139.581
139.575
139.569
139.566
139.563
139.561
139.56
139.56
139.56
139.561
139.563
139.565
139.567
139.569
139.571
139.574
139.576
139.578
139.927
140.06
140.088
140.12
140.13
140.128
140.116
140.097
140.073
140.046
140.017
139.988
139.96
139.934
139.909
139.887
139.866
139.846
139.828
139.811
139.794
139.778
139.763
139.747
139.731
139.716
139.701
139.686
139.671
139.657
139.643
139.63
139.618
139.607
139.597
139.589
139.581
139.575
139.57
139.566
139.563
139.561
139.559
139.559
139.559
139.56
139.562
139.563
139.566
139.568
139.57
139.572
139.574
139.576
139.578
139.579
139.58
139.581
139.581
139.58
140.148
140.132
140.107
140.08
140.049
140.017
139.985
139.955
139.925
139.898
139.873
139.85
139.829
139.809
139.791
139.774
139.757
139.742
139.726
139.711
139.697
139.682
139.668
139.655
139.642
139.629
139.618
139.607
139.598
139.589
139.581
139.575
139.57
139.566
139.562
139.56
139.559
139.558
139.559
139.559
139.561
139.562
139.564
139.566
139.569
139.571
139.573
139.575
139.576
139.577
139.578
139.579
139.579
139.578
139.578
139.576
139.574
139.572
139.569
139.566
140.03
139.975
139.946
139.914
139.885
139.858
139.833
139.81
139.79
139.771
139.753
139.737
139.721
139.706
139.692
139.678
139.665
139.652
139.64
139.628
139.617
139.607
139.597
139.589
139.582
139.575
139.57
139.566
139.563
139.56
139.559
139.558
139.558
139.559
139.56
139.561
139.563
139.565
139.567
139.569
139.571
139.573
139.574
139.576
139.577
139.577
139.577
139.577
139.576
139.575
139.573
139.57
139.568
139.564
139.561
139.557
139.552
139.547
139.542
139.537
139.855
139.811
139.792
139.769
139.75
139.732
139.716
139.701
139.687
139.673
139.66
139.648
139.637
139.626
139.615
139.606
139.597
139.589
139.582
139.575
139.57
139.566
139.563
139.56
139.558
139.558
139.558
139.558
139.559
139.56
139.562
139.564
139.566
139.568
139.57
139.571
139.573
139.574
139.575
139.575
139.575
139.575
139.574
139.573
139.571
139.569
139.566
139.563
139.559
139.555
139.551
139.546
139.541
139.536
139.53
139.524
139.518
139.512
139.506
139.5
139.721
139.694
139.682
139.668
139.656
139.644
139.633
139.622
139.613
139.604
139.595
139.588
139.581
139.575
139.57
139.566
139.563
139.56
139.558
139.557
139.557
139.557
139.558
139.559
139.561
139.563
139.564
139.566
139.568
139.57
139.571
139.572
139.573
139.574
139.574
139.573
139.573
139.571
139.569
139.567
139.564
139.561
139.558
139.554
139.549
139.545
139.54
139.534
139.529
139.523
139.517
139.511
139.505
139.499
139.492
139.486
139.48
139.474
139.467
139.461
139.634
139.617
139.61
139.601
139.593
139.586
139.58
139.575
139.57
139.566
139.563
139.56
139.558
139.557
139.557
139.557
139.558
139.559
139.56
139.561
139.563
139.565
139.567
139.568
139.57
139.571
139.572
139.572
139.572
139.572
139.571
139.57
139.568
139.566
139.563
139.56
139.556
139.552
139.548
139.543
139.538
139.533
139.527
139.522
139.516
139.51
139.503
139.497
139.491
139.485
139.478
139.472
139.466
139.46
139.454
139.448
139.442
139.437
139.431
139.426
139.581
139.573
139.569
139.565
139.562
139.56
139.558
139.557
139.556
139.556
139.557
139.558
139.559
139.56
139.562
139.564
139.565
139.567
139.568
139.569
139.57
139.57
139.57
139.57
139.569
139.568
139.566
139.564
139.561
139.558
139.555
139.551
139.546
139.542
139.537
139.531
139.526
139.52
139.514
139.508
139.502
139.496
139.49
139.483
139.477
139.471
139.465
139.459
139.453
139.447
139.441
139.436
139.43
139.425
139.42
139.415
139.41
139.406
139.401
139.397
139.559
139.556
139.556
139.556
139.557
139.557
139.558
139.56
139.561
139.562
139.564
139.565
139.567
139.568
139.568
139.569
139.569
139.568
139.568
139.566
139.565
139.562
139.56
139.557
139.553
139.549
139.545
139.54
139.535
139.53
139.525
139.519
139.513
139.507
139.501
139.495
139.488
139.482
139.476
139.47
139.463
139.457
139.451
139.446
139.44
139.434
139.429
139.424
139.419
139.414
139.409
139.405
139.4
139.396
139.392
139.388
139.385
139.382
139.378
139.375
139.557
139.559
139.56
139.561
139.563
139.564
139.565
139.566
139.567
139.567
139.567
139.567
139.566
139.565
139.563
139.561
139.558
139.555
139.552
139.548
139.543
139.539
139.534
139.529
139.523
139.518
139.512
139.506
139.5
139.493
139.487
139.481
139.475
139.468
139.462
139.456
139.45
139.444
139.439
139.433
139.428
139.422
139.417
139.413
139.408
139.403
139.399
139.395
139.391
139.387
139.384
139.381
139.378
139.375
139.372
139.369
139.367
139.364
139.362
139.36
139.563
139.565
139.565
139.566
139.565
139.565
139.564
139.563
139.561
139.559
139.556
139.553
139.55
139.546
139.542
139.537
139.532
139.527
139.522
139.516
139.51
139.504
139.498
139.492
139.486
139.48
139.473
139.467
139.461
139.455
139.449
139.443
139.437
139.432
139.427
139.421
139.416
139.411
139.407
139.402
139.398
139.394
139.39
139.387
139.383
139.38
139.377
139.374
139.371
139.368
139.366
139.364
139.362
139.36
139.358
139.356
139.354
139.353
139.351
139.35
139.563
139.561
139.56
139.557
139.555
139.552
139.548
139.545
139.54
139.536
139.531
139.526
139.52
139.515
139.509
139.503
139.497
139.491
139.484
139.478
139.472
139.466
139.46
139.454
139.448
139.442
139.436
139.431
139.425
139.42
139.415
139.41
139.406
139.401
139.397
139.393
139.389
139.386
139.382
139.379
139.376
139.373
139.37
139.368
139.365
139.363
139.361
139.359
139.357
139.355
139.354
139.352
139.351
139.349
139.348
139.347
139.345
139.344
139.343
139.342
139.548
139.543
139.539
139.534
139.529
139.524
139.519
139.513
139.508
139.502
139.496
139.489
139.483
139.477
139.471
139.465
139.458
139.452
139.446
139.441
139.435
139.429
139.424
139.419
139.414
139.409
139.405
139.4
139.396
139.392
139.388
139.385
139.381
139.378
139.375
139.372
139.369
139.367
139.364
139.362
139.36
139.358
139.356
139.355
139.353
139.351
139.35
139.349
139.347
139.346
139.345
139.343
139.342
139.341
139.34
139.339
139.337
139.336
139.335
139.333
139.52
139.511
139.506
139.5
139.494
139.488
139.482
139.476
139.469
139.463
139.457
139.451
139.445
139.439
139.434
139.428
139.423
139.418
139.413
139.408
139.404
139.399
139.395
139.391
139.387
139.384
139.38
139.377
139.374
139.371
139.369
139.366
139.364
139.361
139.359
139.357
139.356
139.354
139.352
139.351
139.349
139.348
139.347
139.345
139.344
139.343
139.342
139.34
139.339
139.338
139.337
139.335
139.334
139.332
139.331
139.329
139.328
139.326
139.324
139.322
139.484
139.474
139.468
139.462
139.456
139.45
139.444
139.438
139.433
139.427
139.422
139.417
139.412
139.407
139.402
139.398
139.394
139.39
139.386
139.383
139.379
139.376
139.373
139.37
139.368
139.365
139.363
139.361
139.359
139.357
139.355
139.353
139.352
139.35
139.349
139.347
139.346
139.345
139.343
139.342
139.341
139.34
139.339
139.337
139.336
139.335
139.333
139.332
139.33
139.329
139.327
139.325
139.323
139.322
139.32
139.317
139.315
139.313
139.311
139.308
139.446
139.436
139.432
139.426
139.421
139.416
139.411
139.406
139.401
139.397
139.393
139.389
139.385
139.382
139.378
139.375
139.372
139.37
139.367
139.364
139.362
139.36
139.358
139.356
139.354
139.353
139.351
139.35
139.348
139.347
139.345
139.344
139.343
139.342
139.34
139.339
139.338
139.337
139.335
139.334
139.333
139.331
139.33
139.328
139.326
139.324
139.323
139.321
139.319
139.317
139.314
139.312
139.31
139.307
139.305
139.302
139.299
139.296
139.293
139.291
139.412
139.404
139.4
139.396
139.392
139.388
139.384
139.381
139.378
139.374
139.371
139.369
139.366
139.364
139.361
139.359
139.357
139.355
139.354
139.352
139.35
139.349
139.347
139.346
139.345
139.344
139.342
139.341
139.34
139.339
139.337
139.336
139.335
139.333
139.332
139.33
139.329
139.327
139.325
139.324
139.322
139.32
139.318
139.316
139.313
139.311
139.309
139.306
139.304
139.301
139.298
139.295
139.293
139.29
139.287
139.284
139.281
139.278
139.275
139.272
139.385
139.379
139.377
139.374
139.371
139.368
139.365
139.363
139.361
139.359
139.357
139.355
139.353
139.351
139.35
139.348
139.347
139.345
139.344
139.343
139.342
139.34
139.339
139.338
139.337
139.335
139.334
139.333
139.331
139.33
139.328
139.326
139.325
139.323
139.321
139.319
139.317
139.315
139.313
139.31
139.308
139.305
139.303
139.3
139.297
139.295
139.292
139.289
139.286
139.283
139.28
139.277
139.274
139.271
139.268
139.265
139.262
139.259
139.256
139.253
139.366
139.362
139.36
139.358
139.356
139.354
139.352
139.351
139.349
139.348
139.346
139.345
139.344
139.342
139.341
139.34
139.339
139.337
139.336
139.335
139.333
139.332
139.33
139.329
139.327
139.326
139.324
139.322
139.32
139.318
139.316
139.314
139.312
139.309
139.307
139.304
139.302
139.299
139.296
139.294
139.291
139.288
139.285
139.282
139.279
139.276
139.273
139.27
139.267
139.264
139.261
139.258
139.256
139.253
139.25
139.247
139.245
139.243
139.24
139.238
139.352
139.35
139.349
139.347
139.346
139.344
139.343
139.342
139.34
139.339
139.338
139.337
139.335
139.334
139.333
139.331
139.33
139.328
139.327
139.325
139.323
139.321
139.319
139.317
139.315
139.313
139.311
139.309
139.306
139.304
139.301
139.298
139.296
139.293
139.29
139.287
139.284
139.281
139.278
139.275
139.272
139.269
139.266
139.263
139.26
139.258
139.255
139.252
139.249
139.247
139.244
139.242
139.24
139.238
139.235
139.233
139.232
139.23
139.228
139.226
139.343
139.341
139.34
139.338
139.337
139.336
139.335
139.333
139.332
139.331
139.329
139.327
139.326
139.324
139.322
139.321
139.319
139.317
139.315
139.312
139.31
139.308
139.305
139.303
139.3
139.297
139.295
139.292
139.289
139.286
139.283
139.28
139.277
139.274
139.271
139.268
139.266
139.263
139.26
139.257
139.254
139.252
139.249
139.246
139.244
139.241
139.239
139.237
139.235
139.233
139.231
139.229
139.228
139.226
139.225
139.223
139.222
139.221
139.219
139.218
139.335
139.332
139.331
139.33
139.328
139.327
139.325
139.323
139.322
139.32
139.318
139.316
139.314
139.312
139.309
139.307
139.304
139.302
139.299
139.297
139.294
139.291
139.288
139.285
139.282
139.28
139.277
139.274
139.271
139.268
139.265
139.262
139.259
139.256
139.254
139.251
139.248
139.246
139.243
139.241
139.239
139.237
139.234
139.233
139.231
139.229
139.227
139.226
139.224
139.223
139.221
139.22
139.219
139.218
139.217
139.216
139.215
139.214
139.213
139.212
139.325
139.322
139.321
139.319
139.317
139.315
139.313
139.311
139.308
139.306
139.304
139.301
139.298
139.296
139.293
139.29
139.287
139.285
139.282
139.279
139.276
139.273
139.27
139.267
139.264
139.261
139.258
139.256
139.253
139.25
139.248
139.245
139.243
139.24
139.238
139.236
139.234
139.232
139.23
139.228
139.227
139.225
139.224
139.222
139.221
139.22
139.219
139.217
139.216
139.215
139.214
139.213
139.212
139.211
139.21
139.209
139.208
139.207
139.206
139.205
139.313
139.31
139.308
139.305
139.303
139.3
139.298
139.295
139.292
139.289
139.287
139.284
139.281
139.278
139.275
139.272
139.269
139.266
139.263
139.261
139.258
139.255
139.252
139.25
139.247
139.245
139.242
139.24
139.238
139.236
139.234
139.232
139.23
139.228
139.226
139.225
139.223
139.222
139.221
139.219
139.218
139.217
139.216
139.215
139.214
139.213
139.212
139.211
139.21
139.209
139.208
139.207
139.206
139.204
139.203
139.202
139.2
139.199
139.197
139.196
139.298
139.294
139.291
139.289
139.286
139.283
139.28
139.277
139.274
139.271
139.268
139.266
139.263
139.26
139.257
139.254
139.252
139.249
139.247
139.244
139.242
139.239
139.237
139.235
139.233
139.231
139.229
139.228
139.226
139.224
139.223
139.222
139.22
139.219
139.218
139.217
139.216
139.214
139.213
139.212
139.211
139.21
139.209
139.208
139.207
139.206
139.205
139.204
139.203
139.201
139.2
139.198
139.197
139.195
139.193
139.192
139.19
139.188
139.186
139.184
139.281
139.276
139.273
139.27
139.268
139.265
139.262
139.259
139.256
139.254
139.251
139.248
139.246
139.243
139.241
139.239
139.237
139.235
139.233
139.231
139.229
139.227
139.226
139.224
139.223
139.221
139.22
139.219
139.217
139.216
139.215
139.214
139.213
139.212
139.211
139.21
139.209
139.208
139.207
139.206
139.204
139.203
139.202
139.201
139.199
139.198
139.196
139.195
139.193
139.191
139.189
139.187
139.185
139.183
139.181
139.179
139.176
139.174
139.172
139.169
139.263
139.258
139.256
139.253
139.25
139.248
139.245
139.243
139.241
139.238
139.236
139.234
139.232
139.23
139.228
139.227
139.225
139.224
139.222
139.221
139.219
139.218
139.217
139.216
139.215
139.214
139.212
139.211
139.21
139.209
139.208
139.207
139.206
139.205
139.204
139.203
139.201
139.2
139.199
139.197
139.195
139.194
139.192
139.19
139.188
139.186
139.184
139.182
139.18
139.178
139.176
139.173
139.171
139.168
139.166
139.163
139.161
139.158
139.156
139.153
139.246
139.242
139.24
139.238
139.236
139.234
139.232
139.23
139.228
139.226
139.225
139.223
139.222
139.22
139.219
139.218
139.216
139.215
139.214
139.213
139.212
139.211
139.21
139.209
139.208
139.207
139.206
139.204
139.203
139.202
139.201
139.199
139.198
139.196
139.195
139.193
139.191
139.19
139.188
139.186
139.184
139.182
139.179
139.177
139.175
139.172
139.17
139.168
139.165
139.163
139.16
139.158
139.155
139.152
139.15
139.147
139.145
139.142
139.14
139.137
139.232
139.229
139.228
139.226
139.224
139.223
139.221
139.22
139.219
139.217
139.216
139.215
139.214
139.213
139.212
139.21
139.209
139.208
139.207
139.206
139.205
139.204
139.203
139.201
139.2
139.199
139.197
139.196
139.194
139.192
139.191
139.189
139.187
139.185
139.183
139.181
139.179
139.176
139.174
139.172
139.169
139.167
139.164
139.162
139.159
139.157
139.154
139.152
139.149
139.147
139.144
139.142
139.139
139.137
139.135
139.132
139.13
139.128
139.126
139.124
139.222
139.219
139.218
139.217
139.216
139.214
139.213
139.212
139.211
139.21
139.209
139.208
139.207
139.206
139.204
139.203
139.202
139.201
139.199
139.198
139.197
139.195
139.193
139.192
139.19
139.188
139.186
139.184
139.182
139.18
139.178
139.176
139.173
139.171
139.169
139.166
139.164
139.161
139.159
139.156
139.154
139.151
139.149
139.146
139.144
139.141
139.139
139.136
139.134
139.132
139.13
139.128
139.125
139.124
139.122
139.12
139.118
139.117
139.115
139.113
139.213
139.212
139.211
139.209
139.208
139.207
139.206
139.205
139.204
139.203
139.201
139.2
139.199
139.197
139.196
139.194
139.193
139.191
139.189
139.187
139.186
139.184
139.181
139.179
139.177
139.175
139.173
139.17
139.168
139.165
139.163
139.16
139.158
139.155
139.153
139.15
139.148
139.145
139.143
139.141
139.138
139.136
139.134
139.131
139.129
139.127
139.125
139.123
139.121
139.119
139.118
139.116
139.115
139.113
139.112
139.11
139.109
139.108
139.107
139.106
139.206
139.204
139.203
139.202
139.201
139.2
139.198
139.197
139.195
139.194
139.192
139.19
139.189
139.187
139.185
139.183
139.181
139.179
139.176
139.174
139.172
139.17
139.167
139.165
139.162
139.16
139.157
139.155
139.152
139.15
139.147
139.145
139.142
139.14
139.138
139.135
139.133
139.131
139.129
139.127
139.125
139.123
139.121
139.119
139.117
139.116
139.114
139.113
139.111
139.11
139.109
139.108
139.106
139.105
139.104
139.103
139.102
139.101
139.1
139.099
139.198
139.196
139.195
139.193
139.191
139.19
139.188
139.186
139.184
139.182
139.18
139.178
139.176
139.173
139.171
139.169
139.166
139.164
139.162
139.159
139.157
139.154
139.152
139.149
139.147
139.144
139.142
139.139
139.137
139.135
139.132
139.13
139.128
139.126
139.124
139.122
139.12
139.119
139.117
139.115
139.114
139.112
139.111
139.11
139.108
139.107
139.106
139.105
139.104
139.103
139.102
139.101
139.1
139.099
139.098
139.097
139.096
139.095
139.094
139.093
139.188
139.185
139.183
139.181
139.179
139.177
139.175
139.173
139.17
139.168
139.166
139.163
139.161
139.158
139.156
139.153
139.151
139.148
139.146
139.144
139.141
139.139
139.136
139.134
139.132
139.13
139.128
139.126
139.124
139.122
139.12
139.118
139.116
139.115
139.113
139.112
139.111
139.109
139.108
139.107
139.106
139.104
139.103
139.102
139.101
139.1
139.099
139.098
139.097
139.097
139.096
139.095
139.094
139.093
139.092
139.091
139.091
139.09
139.09
139.089
139.175
139.172
139.17
139.167
139.165
139.163
139.16
139.158
139.155
139.153
139.15
139.148
139.145
139.143
139.141
139.138
139.136
139.134
139.131
139.129
139.127
139.125
139.123
139.121
139.119
139.118
139.116
139.114
139.113
139.111
139.11
139.109
139.107
139.106
139.105
139.104
139.103
139.102
139.101
139.1
139.099
139.098
139.097
139.096
139.095
139.094
139.093
139.093
139.092
139.091
139.091
139.09
139.089
139.089
139.089
139.089
139.089
139.089
139.09
139.09
139.161
139.157
139.155
139.152
139.15
139.147
139.145
139.142
139.14
139.138
139.135
139.133
139.131
139.129
139.127
139.125
139.123
139.121
139.119
139.117
139.116
139.114
139.113
139.111
139.11
139.108
139.107
139.106
139.105
139.104
139.102
139.101
139.1
139.099
139.098
139.097
139.096
139.096
139.095
139.094
139.093
139.092
139.092
139.091
139.09
139.09
139.089
139.089
139.089
139.089
139.089
139.09
139.09
139.091
139.092
139.093
139.095
139.097
139.099
139.101
139.145
139.141
139.139
139.137
139.135
139.132
139.13
139.128
139.126
139.124
139.122
139.12
139.119
139.117
139.115
139.114
139.112
139.111
139.109
139.108
139.107
139.105
139.104
139.103
139.102
139.101
139.1
139.099
139.098
139.097
139.096
139.095
139.094
139.093
139.093
139.092
139.091
139.091
139.09
139.09
139.09
139.089
139.089
139.089
139.09
139.09
139.091
139.092
139.093
139.094
139.096
139.098
139.1
139.103
139.106
139.109
139.112
139.116
139.119
139.123
139.131
139.127
139.126
139.124
139.122
139.12
139.118
139.116
139.115
139.113
139.112
139.11
139.109
139.107
139.106
139.105
139.104
139.103
139.102
139.1
139.099
139.098
139.097
139.097
139.096
139.095
139.094
139.093
139.092
139.092
139.091
139.091
139.09
139.09
139.09
139.09
139.09
139.09
139.09
139.091
139.092
139.093
139.094
139.096
139.097
139.099
139.102
139.104
139.107
139.11
139.113
139.117
139.121
139.124
139.128
139.132
139.137
139.141
139.145
139.149
139.119
139.116
139.114
139.113
139.111
139.11
139.108
139.107
139.106
139.104
139.103
139.102
139.101
139.1
139.099
139.098
139.097
139.096
139.095
139.094
139.094
139.093
139.092
139.092
139.091
139.091
139.09
139.09
139.09
139.09
139.09
139.09
139.091
139.092
139.092
139.094
139.095
139.097
139.098
139.101
139.103
139.105
139.108
139.111
139.115
139.118
139.122
139.126
139.129
139.133
139.137
139.141
139.145
139.149
139.153
139.156
139.16
139.163
139.165
139.168
139.109
139.106
139.105
139.104
139.103
139.102
139.101
139.1
139.099
139.098
139.097
139.096
139.095
139.094
139.093
139.093
139.092
139.091
139.091
139.09
139.09
139.09
139.09
139.09
139.09
139.091
139.091
139.092
139.093
139.094
139.096
139.098
139.099
139.102
139.104
139.107
139.11
139.113
139.116
139.119
139.123
139.127
139.13
139.134
139.138
139.142
139.146
139.149
139.153
139.156
139.16
139.162
139.165
139.167
139.169
139.171
139.172
139.173
139.173
139.173
139.101
139.099
139.098
139.097
139.096
139.095
139.094
139.094
139.093
139.092
139.092
139.091
139.091
139.09
139.09
139.09
139.09
139.09
139.091
139.091
139.092
139.093
139.094
139.095
139.097
139.099
139.101
139.103
139.105
139.108
139.111
139.114
139.117
139.12
139.124
139.128
139.131
139.135
139.139
139.143
139.146
139.15
139.153
139.156
139.159
139.162
139.165
139.167
139.169
139.17
139.171
139.172
139.172
139.172
139.172
139.171
139.17
139.169
139.167
139.165
139.095
139.093
139.093
139.092
139.092
139.091
139.091
139.09
139.09
139.09
139.09
139.091
139.091
139.092
139.092
139.093
139.095
139.096
139.098
139.099
139.101
139.104
139.106
139.109
139.112
139.115
139.118
139.121
139.125
139.128
139.132
139.136
139.139
139.143
139.147
139.15
139.153
139.156
139.159
139.162
139.164
139.166
139.168
139.17
139.171
139.172
139.172
139.172
139.172
139.171
139.17
139.168
139.167
139.165
139.163
139.16
139.158
139.155
139.152
139.149
139.091
139.091
139.09
139.091
139.091
139.091
139.092
139.092
139.093
139.094
139.096
139.097
139.099
139.101
139.103
139.105
139.108
139.11
139.113
139.116
139.119
139.123
139.126
139.13
139.133
139.137
139.14
139.144
139.147
139.151
139.154
139.157
139.16
139.162
139.165
139.167
139.168
139.17
139.171
139.171
139.172
139.172
139.171
139.171
139.17
139.168
139.167
139.165
139.163
139.16
139.157
139.154
139.151
139.148
139.145
139.141
139.137
139.133
139.128
139.124
139.092
139.093
139.094
139.095
139.096
139.098
139.1
139.101
139.104
139.106
139.108
139.111
139.114
139.117
139.12
139.123
139.126
139.13
139.133
139.137
139.14
139.143
139.147
139.15
139.153
139.156
139.158
139.161
139.163
139.165
139.166
139.168
139.169
139.169
139.17
139.17
139.169
139.168
139.167
139.166
139.164
139.163
139.16
139.158
139.155
139.152
139.149
139.146
139.142
139.139
139.135
139.131
139.126
139.121
139.116
139.111
139.105
139.099
139.093
139.086
139.098
139.101
139.103
139.105
139.108
139.111
139.114
139.117
139.12
139.124
139.127
139.131
139.134
139.138
139.142
139.145
139.149
139.152
139.155
139.158
139.161
139.164
139.166
139.168
139.17
139.171
139.173
139.174
139.174
139.174
139.174
139.174
139.173
139.172
139.171
139.169
139.167
139.165
139.162
139.16
139.156
139.153
139.15
139.146
139.142
139.137
139.132
139.127
139.122
139.116
139.11
139.103
139.096
139.088
139.08
139.071
139.062
139.052
139.042
139.031
139.124
139.128
139.131
139.134
139.137
139.14
139.143
139.146
139.149
139.151
139.154
139.156
139.159
139.16
139.162
139.164
139.165
139.166
139.166
139.167
139.167
139.166
139.166
139.165
139.163
139.162
139.16
139.157
139.155
139.152
139.149
139.145
139.142
139.138
139.133
139.129
139.124
139.119
139.113
139.107
139.101
139.095
139.088
139.081
139.074
139.066
139.058
139.05
139.041
139.032
139.023
139.014
139.004
138.994
138.985
138.975
138.965
138.955
138.945
138.936
)
;

boundaryField
{
    bottomwall
    {
        type            opaque;
        refValue        nonuniform List<scalar> 
60
(
143.312
145.501
146.741
147.505
148.003
148.343
148.585
148.768
148.912
149.034
149.145
149.25
149.351
149.447
149.541
149.631
149.722
149.814
149.907
150.003
150.1
150.197
150.291
150.378
150.459
150.534
150.611
150.698
150.8
150.908
150.993
151.014
150.932
150.751
150.547
150.487
150.815
151.8
153.663
156.498
160.224
164.578
169.15
173.468
177.088
179.691
181.121
181.363
180.486
178.602
175.838
172.347
168.323
164.009
159.674
155.578
151.904
148.71
145.812
142.59
)
;
        refGradient     uniform 0;
        valueFraction   uniform 1;
        source          uniform 0;