/*--------------------------------*- C++ -*----------------------------------*\
| =========                 |                                                 |
| \\      /  F ield         | OpenFOAM: The Open Source CFD Toolbox           |
|  \\    /   O peration     | Version:  2406                                  |
|   \\  /    A nd           | Website:  www.openfoam.com                      |
|    \\/     M anipulation  |                                                 |
\*---------------------------------------------------------------------------*/
FoamFile
{
    version     2.0;
    format      ascii;
    arch        "LSB;label=32;scalar=64";
    class       volScalarField;
    location    "5000";
    object      ILambda_7_0;
}
// * * * * * * * * * * * * * * * * * * * * * * * * * * * * * * * * * * * * * //

dimensions      [1 0 -3 0 0 0 0];

internalField   nonuniform List<scalar> 
3600
(
139.02
139.074
139.124
139.183
139.256
139.33
139.383
139.394
139.359
139.291
139.213
139.147
139.104
139.085
139.086
139.1
139.122
139.151
139.192
139.253
139.338
139.426
139.456
139.353
139.098
138.852
139.008
140.054
142.153
144.565
145.257
141.188
129.6
110.142
87.084
70.4598
75.152
117.668
211.397
361.989
564.628
804.339
1059.21
1305.27
1521.22
1691.37
1806.26
1861.49
1855.89
1790.4
1668.14
1495.57
1283.69
1048.25
808.495
584.346
392.733
245.537
145.61
83.0085
139.112
139.156
139.214
139.293
139.372
139.419
139.411
139.348
139.257
139.167
139.103
139.072
139.07
139.085
139.109
139.136
139.17
139.215
139.283
139.376
139.467
139.487
139.347
139.042
138.778
139.033
140.356
142.833
145.407
145.499
139.543
124.729
101.628
76.6249
62.7505
77.827
139.967
261.739
445.202
679.858
944.502
1212.25
1456.77
1657.39
1801.32
1883.05
1901.78
1858.9
1756.93
1600.24
1396.85
1160.03
908.209
662.897
444.931
270.479
147.758
77.4568
46.9091
63.6845
139.15
139.2
139.28
139.364
139.415
139.408
139.345
139.254
139.168
139.108
139.08
139.079
139.092
139.113
139.137
139.168
139.211
139.274
139.362
139.455
139.488
139.375
139.09
138.807
138.976
140.148
142.483
145.048
145.406
140.057
126.116
103.909
79.4546
65.3752
79.1474
138.675
256.501
434.854
663.622
922.191
1184.44
1424.9
1623.63
1768.38
1853.74
1878.59
1843.68
1750.69
1603.15
1408.37
1179.07
933.283
692.199
476.43
301.982
177.332
102.333
70.3162
65.9152
93.5916
139.193
139.275
139.367
139.424
139.417
139.35
139.254
139.165
139.104
139.077
139.077
139.091
139.112
139.137
139.168
139.21
139.271
139.357
139.451
139.499
139.41
139.14
138.832
138.908
139.943
142.182
144.824
145.526
140.748
127.385
105.419
80.5675
65.3877
77.6427
135.819
253.116
432.201
662.972
924.376
1189.59
1432.43
1632.56
1777.68
1862.62
1886.63
1850.69
1756.51
1607.47
1410.72
1178.94
930.338
686.48
468.437
292.604
167.63
93.4363
62.3884
62.7069
78.3523
113.021
139.265
139.368
139.431
139.424
139.353
139.252
139.16
139.1
139.076
139.078
139.093
139.114
139.138
139.168
139.209
139.268
139.35
139.446
139.505
139.439
139.189
138.863
138.854
139.751
141.881
144.574
145.589
141.366
128.6
106.948
81.8285
65.7222
76.6356
133.554
250.208
429.561
661.403
924.205
1190.52
1433.73
1633.4
1777.53
1861.48
1884.94
1849.1
1755.53
1607.23
1410.97
1179.22
930.232
685.843
467.453
291.697
167.273
93.944
63.8627
64.5477
82.5962
105.018
133.217
139.367
139.439
139.432
139.355
139.249
139.154
139.096
139.074
139.079
139.095
139.115
139.138
139.168
139.209
139.266
139.344
139.439
139.508
139.465
139.238
138.901
138.814
139.572
141.579
144.3
145.613
141.954
129.821
108.528
83.1706
66.1206
75.6195
131.173
247.092
426.688
659.687
924.098
1191.85
1435.82
1635.44
1778.99
1862.28
1885.43
1849.78
1756.73
1608.92
1412.73
1180.47
930.499
684.951
465.617
289.416
165.127
92.3883
63.1007
64.5236
82.9191
106.577
127.185
145.068
139.452
139.441
139.358
139.245
139.149
139.091
139.073
139.08
139.097
139.117
139.139
139.168
139.208
139.264
139.339
139.432
139.508
139.488
139.286
138.945
138.788
139.406
141.276
144.003
145.597
142.505
131.035
110.148
84.5852
66.5886
74.6294
128.756
243.894
423.737
657.945
924.037
1193.26
1437.97
1637.45
1780.26
1862.72
1885.43
1849.91
1757.39
1610.11
1414.07
1181.37
930.48
683.86
463.69
287.176
163.169
91.1638
62.7874
65.0161
83.9043
107.694
128.457
142.679
150.488
139.458
139.361
139.241
139.142
139.087
139.072
139.082
139.099
139.118
139.139
139.167
139.208
139.263
139.335
139.425
139.507
139.506
139.331
138.994
138.775
139.256
140.977
143.686
145.541
143.016
132.24
111.807
86.0779
67.1349
73.6716
126.3
240.6
420.679
656.14
923.987
1194.75
1440.22
1639.53
1781.54
1863.14
1885.41
1850.06
1758.13
1611.45
1415.59
1182.45
930.598
682.843
461.78
284.915
161.175
89.9006
62.4329
65.4534
84.8228
108.713
129.346
143.116
150.167
150.978
139.37
139.237
139.135
139.083
139.072
139.084
139.102
139.119
139.139
139.167
139.207
139.262
139.332
139.419
139.503
139.52
139.374
139.047
138.776
139.122
140.683
143.35
145.441
143.483
133.431
113.505
87.652
67.7655
72.7509
123.804
237.203
417.507
654.269
923.955
1196.33
1442.58
1641.69
1782.83
1863.49
1885.29
1850.13
1758.85
1612.82
1417.17
1183.57
930.713
681.777
459.793
282.578
159.129
88.6238
62.1002
65.9346
85.788
109.785
130.217
143.697
150.144
151.679
149.155
139.233
139.129
139.079
139.072
139.086
139.105
139.121
139.139
139.165
139.206
139.261
139.33
139.413
139.497
139.53
139.413
139.104
138.79
139.006
140.397
142.996
145.298
143.901
134.604
115.239
89.3111
68.4876
71.8732
121.27
233.7
414.213
652.328
923.94
1198.01
1445.06
1643.93
1784.12
1863.78
1885.07
1850.13
1759.56
1614.24
1418.83
1184.76
930.862
680.697
457.759
280.187
157.049
87.3445
61.7923
66.4531
86.7864
110.873
131.093
144.213
150.34
151.413
149.969
146.965
139.119
139.075
139.072
139.089
139.107
139.122
139.138
139.164
139.205
139.261
139.328
139.407
139.491
139.536
139.448
139.161
138.817
138.91
140.122
142.627
145.11
144.265
135.752
117.008
91.0587
69.3086
71.0453
118.699
230.084
410.788
650.308
923.943
1199.78
1447.67
1646.25
1785.42
1863.99
1884.75
1850.04
1760.25
1615.71
1420.57
1186.03
931.037
679.591
455.664
277.732
154.927
86.0577
61.5073
67.0093
87.8194
111.981
131.972
144.721
150.492
151.327
149.673
147.47
145.49
139.067
139.072
139.092
139.11
139.124
139.138
139.163
139.204
139.261
139.328
139.403
139.484
139.537
139.477
139.219
138.855
138.835
139.861
142.246
144.877
144.572
136.871
118.808
92.8984
70.2369
70.2747
116.092
226.348
407.223
648.203
923.962
1201.66
1450.42
1648.67
1786.72
1864.12
1884.32
1849.88
1760.93
1617.24
1422.39
1187.37
931.24
678.458
453.506
275.21
152.764
84.7664
61.249
67.6063
88.8887
113.108
132.851
145.217
150.626
151.221
149.458
147.262
145.617
144.967
139.07
139.094
139.113
139.125
139.138
139.161
139.202
139.26
139.328
139.4
139.477
139.536
139.501
139.275
138.904
138.781
139.618
141.857
144.599
144.817
137.953
120.637
94.8335
71.2814
69.57
113.451
222.487
403.506
646.005
923.997
1203.66
1453.31
1651.18
1788.02
1864.17
1883.77
1849.63
1761.59
1618.82
1424.32
1188.78
931.472
677.296
451.282
272.619
150.558
83.4714
61.0193
68.2459
89.9952
114.255
133.729
145.698
150.743
151.097
149.243
147.051
145.529
144.842
145.138
139.096
139.115
139.126
139.137
139.159
139.201
139.26
139.328
139.399
139.471
139.531
139.518
139.328
138.961
138.749
139.397
141.463
144.277
144.994
138.99
122.489
96.8672
72.4519
68.9409
110.779
218.494
399.625
643.704
924.049
1205.78
1456.36
1653.8
1789.32
1864.12
1883.08
1849.28
1762.24
1620.47
1426.35
1190.29
931.734
676.101
448.987
269.956
148.308
82.174
60.821
68.9307
91.1399
115.42
134.606
146.164
150.84
150.96
149.019
146.853
145.397
144.85
144.926
145.598
139.118
139.127
139.137
139.158
139.199
139.259
139.329
139.398
139.465
139.525
139.529
139.376
139.025
138.74
139.2
141.069
143.913
145.098
139.973
124.359
99.0022
73.7588
68.3987
108.079
214.36
395.567
641.289
924.115
1208.04
1459.58
1656.54
1790.63
1863.98
1882.26
1848.83
1762.88
1622.19
1428.48
1191.88
932.026
674.87
446.616
267.216
146.014
80.876
60.6567
69.6629
92.3239
116.605
135.48
146.614
150.917
150.807
148.789
146.655
145.28
144.806
144.979
145.414
146.037
139.128
139.136
139.156
139.197
139.257
139.329
139.399
139.461
139.517
139.534
139.417
139.092
138.752
139.032
140.682
143.507
145.126
140.894
126.239
101.241
75.2135
67.9559
105.355
210.08
391.317
638.75
924.196
1210.43
1462.99
1659.4
1791.94
1863.72
1881.29
1848.28
1763.5
1623.99
1430.74
1193.57
932.348
673.6
444.164
264.395
143.674
79.579
60.5295
70.445
93.5483
117.807
136.35
147.045
150.974
150.64
148.553
146.459
145.168
144.774
144.995
145.47
145.927
146.312
139.136
139.155
139.194
139.256
139.33
139.401
139.46
139.509
139.533
139.45
139.161
138.785
138.896
140.308
143.066
145.073
141.741
128.123
103.585
76.8285
67.6269
102.613
205.644
386.859
636.072
924.289
1212.98
1466.6
1662.4
1793.25
1863.34
1880.15
1847.61
1764.11
1625.87
1433.12
1195.37
932.7
672.285
441.624
261.49
141.288
78.2852
60.4427
71.2798
94.814
119.027
137.213
147.457
151.009
150.457
148.312
146.265
145.063
144.748
145.017
145.508
145.961
146.27
146.415
139.152
139.192
139.254
139.33
139.403
139.46
139.502
139.528
139.474
139.228
138.836
138.794
139.953
142.592
144.935
142.504
129.998
106.035
78.617
67.4285
99.8603
201.044
382.176
633.242
924.393
1215.69
1470.42
1665.54
1794.56
1862.83
1878.84
1846.81
1764.71
1627.85
1435.64
1197.26
933.083
670.922
438.992
258.497
138.854
76.9968
60.3997
72.17
96.122
120.263
138.07
147.847
151.022
150.261
148.066
146.074
144.964
144.728
145.042
145.545
145.993
146.28
146.421
146.405
139.189
139.252
139.329
139.405
139.461
139.498
139.52
139.488
139.289
138.903
138.728
139.625
142.093
144.709
143.168
131.852
108.59
80.5932
67.3794
97.1051
196.271
377.246
630.241
924.506
1218.58
1474.49
1668.84
1795.87
1862.19
1877.33
1845.89
1765.3
1629.92
1438.3
1199.27
933.496
669.505
436.26
255.41
136.373
75.7164
60.4042
73.1184
97.4731
121.516
138.917
148.215
151.012
150.049
147.817
145.888
144.872
144.715
145.071
145.584
146.021
146.296
146.412
146.436
146.339
139.248
139.328
139.406
139.464
139.495
139.511
139.493
139.341
138.979
138.7
139.333
141.578
144.395
143.722
133.67
111.249
82.7724
67.5016
94.3584
191.316
372.047
627.051
924.624
1221.66
1478.81
1672.31
1797.17
1861.38
1875.62
1844.82
1765.88
1632.1
1441.12
1201.4
933.938
668.028
433.422
252.226
133.845
74.447
60.4604
74.128
98.8682
122.782
139.752
148.559
150.978
149.823
147.564
145.705
144.787
144.708
145.103
145.622
146.049
146.307
146.416
146.418
146.385
146.252
139.325
139.407
139.467
139.495
139.502
139.49
139.381
139.062
138.709
139.085
141.057
143.992
144.149
135.433
114.005
85.1706
67.8203
91.6339
186.169
366.553
623.649
924.745
1224.95
1483.4
1675.96
1798.48
1860.41
1873.69
1843.61
1766.45
1634.41
1444.1
1203.66
934.409
666.485
430.469
248.94
131.267
73.1919
60.5726
75.2019
100.308
124.062
140.575
148.877
150.92
149.583
147.309
145.529
144.711
144.706
145.138
145.661
146.075
146.318
146.414
146.417
146.366
146.309
146.158
139.407
139.47
139.498
139.495
139.481
139.407
139.143
138.751
138.889
140.545
143.504
144.436
137.12
116.853
87.8049
68.3645
88.9484
180.821
360.736
620.009
924.864
1228.47
1488.31
1679.82
1799.77
1859.25
1871.52
1842.23
1767.02
1636.84
1447.27
1206.05
934.907
664.868
427.394
245.547
128.642
71.9548
60.7455
76.3433
101.793
125.354
141.381
149.166
150.837
149.33
147.052
145.358
144.642
144.712
145.176
145.7
146.099
146.327
146.413
146.412
146.365
146.291
146.222
146.055
139.473
139.502
139.493
139.469
139.418
139.216
138.823
138.752
140.056
142.939
144.568
138.704
119.779
90.6924
69.168
86.3232
175.262
354.563
616.103
924.976
1232.23
1493.55
1683.9
1801.06
1857.88
1869.08
1840.69
1767.58
1639.42
1450.63
1208.57
935.431
663.171
424.189
242.042
125.969
70.7397
60.9841
77.5555
103.324
126.656
142.17
149.427
150.729
149.063
146.794
145.194
144.582
144.723
145.216
145.738
146.122
146.334
146.411
146.407
146.36
146.293
146.206
146.124
145.945
139.509
139.494
139.458
139.416
139.274
138.916
138.68
139.61
142.307
144.53
140.154
122.766
93.8505
70.2703
83.7849
169.482
347.995
611.894
925.075
1236.27
1499.16
1688.22
1802.34
1856.29
1866.35
1838.96
1768.16
1642.16
1454.21
1211.25
935.978
661.384
420.843
238.42
123.248
69.5513
61.2938
78.8419
104.901
127.966
142.938
149.655
150.594
148.784
146.537
145.039
144.531
144.74
145.258
145.775
146.142
146.339
146.408
146.401
146.357
146.291
146.21
146.111
146.014
145.833
139.502
139.451
139.403
139.311
139.017
138.673
139.227
141.628
144.312
141.433
125.791
97.2956
71.7173
81.3671
163.471
340.991
607.342
925.154
1240.6
1505.19
1692.8
1803.6
1854.45
1863.32
1837.04
1768.74
1645.08
1458
1214.08
936.546
659.497
417.347
234.675
120.48
68.3947
61.6804
80.2059
106.524
129.282
143.682
149.851
150.433
148.494
146.282
144.892
144.489
144.763
145.302
145.811
146.161
146.343
146.404
146.396
146.354
146.29
146.21
146.114
146.003
145.896
145.727
139.454
139.387
139.324
139.113
138.727
138.929
140.928
143.907
142.5
128.817
101.042
73.5628
79.1127
157.222
333.498
602.399
925.204
1245.27
1511.66
1697.67
1804.83
1852.33
1859.95
1834.91
1769.33
1648.19
1462.04
1217.07
937.13
657.501
413.69
230.802
117.667
67.2755
62.1502
81.6511
108.193
130.601
144.399
150.011
150.246
148.192
146.03
144.754
144.457
144.791
145.347
145.846
146.177
146.345
146.399
146.391
146.351
146.29
146.211
146.115
146.005
145.888
145.778
145.638
139.377
139.315
139.187
138.829
138.737
140.242
143.316
143.306
131.798
105.099
75.8698
77.0762
150.729
325.459
597.006
925.214
1250.3
1518.63
1702.85
1806.02
1849.89
1856.21
1832.57
1769.96
1651.51
1466.34
1220.23
937.728
655.384
409.861
226.795
114.811
66.2001
62.7097
83.1811
109.908
131.92
145.086
150.133
150.032
147.881
145.782
144.627
144.434
144.825
145.393
145.879
146.191
146.345
146.394
146.386
146.348
146.29
146.212
146.117
146.006
145.889
145.774
145.672
145.576
139.294
139.225
138.957
138.664
139.618
142.554
143.8
134.669
109.47
78.7124
75.3286
143.989
316.802
591.094
925.171
1255.75
1526.17
1708.38
1807.17
1847.11
1852.06
1830
1770.61
1655.06
1470.92
1223.56
938.333
653.133
405.848
222.649
111.912
65.1754
63.366
84.7996
111.669
133.236
145.74
150.217
149.791
147.562
145.539
144.511
144.421
144.864
145.439
145.91
146.203
146.344
146.388
146.381
146.346
146.29
146.213
146.118
146.007
145.89
145.773
145.673
145.588
145.548
139.217
139.075
138.71
139.112
141.656
143.929
137.343
114.141
82.177
73.9624
137.005
307.445
584.576
925.059
1261.67
1534.35
1714.28
1808.26
1843.95
1847.48
1827.19
1771.32
1658.87
1475.79
1227.09
938.94
650.735
401.638
218.358
108.974
64.2092
64.127
86.5103
113.473
134.546
146.356
150.259
149.524
147.235
145.304
144.407
144.418
144.907
145.486
145.939
146.213
146.342
146.382
146.377
146.344
146.29
146.215
146.119
146.008
145.89
145.774
145.671
145.595
145.536
145.559
139.14
138.85
138.786
140.689
143.645
139.702
119.079
86.3635
73.1004
129.79
297.286
577.344
924.859
1268.12
1543.23
1720.59
1809.25
1840.34
1842.43
1824.14
1772.09
1662.97
1480.99
1230.8
939.542
648.175
397.216
213.915
106.001
63.3099
65.0006
88.317
115.32
135.844
146.931
150.258
149.23
146.904
145.078
144.316
144.424
144.954
145.531
145.965
146.22
146.338
146.376
146.372
146.343
146.291
146.216
146.12
146.009
145.891
145.775
145.672
145.591
145.548
145.524
145.611
139.027
138.692
139.761
142.926
141.593
124.209
91.3855
72.9076
122.372
286.2
569.262
924.546
1275.2
1552.94
1727.35
1810.13
1836.23
1836.86
1820.82
1772.94
1667.37
1486.53
1234.71
940.131
645.437
392.57
209.315
102.995
62.4871
65.9959
90.2235
117.209
137.126
147.461
150.212
148.911
146.568
144.862
144.239
144.44
145.004
145.576
145.988
146.225
146.334
146.37
146.369
146.342
146.292
146.217
146.121
146.01
145.891
145.775
145.672
145.592
145.543
145.539
145.554
145.699
138.856
139.037
141.8
142.822
129.392
97.365
73.6102
114.809
274.03
560.15
924.092
1283
1563.58
1734.59
1810.84
1831.56
1830.72
1817.25
1773.9
1672.12
1492.43
1238.83
940.699
642.505
387.682
204.551
99.9607
61.7511
67.1222
92.2334
119.136
138.388
147.94
150.12
148.567
146.232
144.658
144.176
144.465
145.057
145.618
146.008
146.227
146.328
146.364
146.366
146.342
146.293
146.219
146.122
146.01
145.891
145.775
145.672
145.592
145.544
145.534
145.572
145.626
145.817
138.75
140.411
143.161
134.381
104.419
75.523
107.203
260.581
549.772
923.456
1291.68
1575.31
1742.36
1811.32
1826.23
1823.99
1813.43
1774.99
1677.24
1498.71
1243.16
941.236
639.36
382.537
199.617
96.9038
61.1136
68.3899
94.3506
121.099
139.622
148.363
149.979
148.2
145.897
144.468
144.128
144.499
145.112
145.659
146.025
146.227
146.322
146.359
146.363
146.342
146.294
146.22
146.123
146.011
145.892
145.775
145.672
145.592
145.543
145.534
145.567
145.645
145.735
145.953
139.091
142.391
138.747
112.622
79.0938
99.7452
245.594
537.798
922.588
1301.43
1588.32
1750.69
1811.49
1820.16
1816.61
1809.36
1776.26
1682.76
1505.4
1247.7
941.733
635.985
377.117
194.504
93.8295
60.5874
69.8102
96.5788
123.094
140.822
148.727
149.788
147.812
145.566
144.295
144.096
144.541
145.168
145.696
146.039
146.225
146.315
146.353
146.361
146.342
146.295
146.221
146.124
146.012
145.892
145.776
145.672
145.591
145.543
145.533
145.567
145.641
145.753
145.87
146.092
140.333
141.742
121.897
84.9693
92.7844
228.735
523.756
921.418
1312.52
1602.86
1759.6
1811.21
1813.23
1808.56
1805.08
1777.73
1688.71
1512.5
1252.47
942.182
632.359
371.402
189.206
90.7444
60.187
71.3954
98.9214
125.116
141.981
149.024
149.547
147.404
145.241
144.139
144.079
144.591
145.225
145.73
146.049
146.221
146.308
146.349
146.36
146.343
146.297
146.222
146.125
146.012
145.893
145.776
145.672
145.591
145.542
145.533
145.566
145.64
145.75
145.886
146.018
146.222
141.927
131.709
94.0822
86.9872
209.555
506.933
919.844
1325.36
1619.28
1769.1
1810.31
1805.28
1799.8
1800.62
1779.45
1695.12
1520.03
1257.46
942.575
628.463
365.372
183.713
87.6556
59.929
73.159
101.382
127.161
143.089
149.251
149.254
146.98
144.927
144.004
144.078
144.648
145.28
145.76
146.055
146.216
146.3
146.344
146.359
146.344
146.298
146.223
146.125
146.012
145.893
145.776
145.672
145.591
145.542
145.532
145.565
145.64
145.75
145.884
146.029
146.162
146.33
140.337
107.732
83.6941
187.456
486.188
917.709
1340.57
1638.02
1779.13
1808.49
1796.16
1790.37
1796.08
1781.47
1702
1528.01
1262.68
942.911
624.278
359.001
178.013
84.5714
59.8321
75.1162
103.964
129.219
144.138
149.399
148.91
146.542
144.626
143.89
144.093
144.71
145.333
145.786
146.058
146.209
146.293
146.341
146.359
146.346
146.3
146.224
146.126
146.013
145.893
145.777
145.673
145.591
145.542
145.531
145.564
145.639
145.749
145.884
146.03
146.169
146.289
146.405
128.54
86.0406
161.711
459.533
914.749
1359.15
1659.76
1789.53
1805.32
1785.68
1780.32
1791.56
1783.83
1709.33
1536.41
1268.15
943.191
619.783
352.261
172.092
81.5014
59.9183
77.2839
106.669
131.284
145.115
149.464
148.514
146.095
144.344
143.799
144.123
144.776
145.384
145.807
146.058
146.201
146.287
146.339
146.36
146.347
146.301
146.225
146.126
146.013
145.894
145.777
145.673
145.591
145.541
145.531
145.563
145.638
145.749
145.884
146.03
146.171
146.291
146.388
146.442
104.794
132.278
423.18
910.492
1382.93
1685.5
1799.9
1800.14
1773.63
1769.83
1787.24
1786.56
1717.08
1545.24
1273.89
943.43
614.956
345.115
165.933
78.4569
60.2139
79.6813
109.499
133.343
146.008
149.44
148.068
145.644
144.083
143.733
144.167
144.845
145.43
145.823
146.055
146.193
146.281
146.337
146.361
146.349
146.302
146.226
146.127
146.013
145.894
145.778
145.673
145.591
145.541
145.53
145.562
145.638
145.749
145.885
146.031
146.172
146.295
146.384
146.449
146.44
103.888
368.738
904.065
1415.58
1716.79
1809.3
1791.86
1759.88
1759.27
1783.36
1789.63
1725.14
1554.48
1279.95
943.655
609.774
337.518
159.513
75.4527
60.7506
82.3303
112.456
135.383
146.804
149.319
147.576
145.195
143.848
143.694
144.225
144.914
145.472
145.833
146.049
146.184
146.276
146.336
146.362
146.351
146.303
146.226
146.127
146.014
145.895
145.778
145.673
145.591
145.54
145.529
145.562
145.637
145.748
145.885
146.031
146.173
146.295
146.388
146.44
146.469
146.4
255.065
891.301
1465.64
1756.09
1815.38
1778.67
1744.53
1749.36
1780.23
1792.92
1733.36
1564.11
1286.41
943.913
604.202
329.408
152.803
72.5083
61.5674
85.2553
115.537
137.387
147.485
149.098
147.039
144.754
143.645
143.68
144.294
144.983
145.507
145.839
146.041
146.175
146.272
146.336
146.364
146.352
146.304
146.227
146.127
146.014
145.895
145.779
145.674
145.591
145.54
145.528
145.561
145.636
145.748
145.885
146.032
146.174
146.297
146.389
146.445
146.456
146.449
146.326
805.69
1552.73
1804.86
1811.28
1757.74
1728.56
1741.46
1778.11
1796.06
1741.44
1574.15
1293.43
944.272
598.19
320.7
145.77
69.6519
62.7132
88.4838
118.736
139.332
148.034
148.771
146.465
144.331
143.477
143.694
144.373
145.048
145.535
145.839
146.031
146.167
146.269
146.337
146.366
146.354
146.305
146.227
146.128
146.015
145.896
145.779
145.674
145.591
145.539
145.528
145.56
145.635
145.748
145.885
146.033
146.175
146.298
146.391
146.445
146.462
146.433
146.392
146.224
1827.96
1833.44
1771.74
1725.81
1715.77
1737.75
1776.88
1798.25
1749.03
1584.74
1301.23
944.813
591.653
311.28
138.376
66.9248
64.249
92.0452
122.045
141.191
148.431
148.336
145.862
143.933
143.349
143.734
144.458
145.108
145.555
145.834
146.02
146.16
146.268
146.339
146.368
146.355
146.305
146.227
146.128
146.015
145.896
145.78
145.674
145.591
145.539
145.527
145.559
145.635
145.747
145.885
146.034
146.177
146.3
146.392
146.447
146.462
146.438
146.373
146.302
146.099
1721.95
1710.34
1710.56
1719.12
1739.99
1774.71
1798.09
1755.87
1596.25
1310.17
945.602
584.449
301.001
130.586
64.3885
66.2503
95.9695
125.443
142.93
148.656
147.792
145.241
143.571
143.264
143.798
144.547
145.161
145.567
145.826
146.009
146.155
146.268
146.341
146.37
146.356
146.306
146.227
146.128
146.015
145.897
145.78
145.675
145.591
145.539
145.526
145.558
145.634
145.747
145.886
146.035
146.178
146.301
146.393
146.448
146.463
146.438
146.378
146.281
146.185
145.96
1731.9
1732.65
1731
1738.91
1767.13
1794.65
1762.47
1609.36
1320.64
946.626
576.362
289.683
122.375
62.1317
68.8088
100.285
128.904
144.508
148.687
147.143
144.616
143.257
143.225
143.884
144.634
145.203
145.571
145.814
145.999
146.151
146.269
146.343
146.372
146.357
146.306
146.227
146.128
146.016
145.897
145.781
145.675
145.591
145.538
145.525
145.557
145.633
145.746
145.886
146.035
146.179
146.303
146.395
146.449
146.464
146.439
146.378
146.287
146.165
146.05
145.814
1730.81
1727.18
1730.47
1756.52
1790.26
1769.97
1624.58
1332.79
947.77
567.121
277.132
113.743
60.2751
72.032
105.013
132.385
145.875
148.503
146.397
144.004
143.001
143.234
143.986
144.717
145.235
145.568
145.801
145.99
146.149
146.271
146.346
146.373
146.357
146.306
146.227
146.129
146.016
145.898
145.781
145.676
145.591
145.538
145.524
145.556
145.632
145.746
145.886
146.036
146.18
146.304
146.396
146.451
146.465
146.44
146.379
146.286
146.17
146.03
145.903
145.668
1729.63
1728.29
1748.23
1785.22
1777.4
1641.53
1346.75
949.012
556.471
263.137
104.7
58.9747
76.0453
110.168
135.824
146.972
148.087
145.569
143.429
142.815
143.29
144.099
144.789
145.253
145.557
145.787
145.983
146.149
146.273
146.348
146.374
146.358
146.306
146.228
146.129
146.017
145.899
145.782
145.676
145.591
145.537
145.524
145.555
145.631
145.746
145.886
146.037
146.182
146.306
146.398
146.452
146.466
146.44
146.379
146.287
146.169
146.035
145.884
145.752
145.527
1728.06
1738.3
1775.92
1782.99
1660.48
1363.38
950.627
544.086
247.374
95.2547
58.437
81.0005
115.749
139.137
147.73
147.426
144.684
142.915
142.709
143.388
144.216
144.848
145.259
145.542
145.773
145.978
146.15
146.276
146.35
146.375
146.358
146.306
146.228
146.129
146.017
145.899
145.782
145.676
145.591
145.537
145.523
145.554
145.63
145.745
145.886
146.038
146.183
146.307
146.399
146.453
146.467
146.441
146.38
146.288
146.17
146.034
145.889
145.735
145.606
145.397
1729.67
1762.3
1786.33
1682.59
1384.07
952.806
529.288
229.321
85.4462
58.9727
87.0905
121.731
142.205
148.072
146.52
143.779
142.493
142.69
143.52
144.327
144.888
145.252
145.523
145.762
145.977
146.153
146.28
146.352
146.376
146.358
146.306
146.228
146.13
146.018
145.9
145.783
145.677
145.591
145.536
145.522
145.553
145.629
145.745
145.886
146.039
146.184
146.309
146.401
146.454
146.468
146.442
146.38
146.288
146.171
146.035
145.888
145.739
145.589
145.469
145.278
1741.49
1784
1708.31
1410.62
955.703
510.995
208.279
75.4508
61.0637
94.5456
128.029
144.857
147.913
145.386
142.905
142.195
142.759
143.676
144.421
144.907
145.234
145.504
145.754
145.978
146.157
146.282
146.353
146.376
146.358
146.306
146.228
146.13
146.018
145.9
145.784
145.677
145.591
145.536
145.521
145.552
145.628
145.744
145.887
146.039
146.186
146.31
146.402
146.456
146.469
146.443
146.381
146.289
146.171
146.035
145.889
145.738
145.593
145.451
145.347
145.166
1765.26
1737.76
1446.9
959.86
487.414
183.239
65.6725
65.4347
103.608
134.457
146.853
147.173
144.073
142.133
142.05
142.91
143.836
144.489
144.904
145.21
145.487
145.75
145.981
146.161
146.285
146.354
146.376
146.358
146.307
146.229
146.13
146.019
145.901
145.784
145.678
145.591
145.536
145.52
145.551
145.627
145.743
145.887
146.04
146.187
146.312
146.404
146.457
146.47
146.443
146.382
146.289
146.172
146.036
145.889
145.738
145.591
145.457
145.325
145.239
145.05
1766.17
1501.3
966.159
454.849
152.577
57.0326
73.2234
114.483
140.642
147.878
145.807
142.683
141.551
142.079
143.12
143.978
144.523
144.881
145.183
145.476
145.751
145.986
146.165
146.286
146.354
146.376
146.358
146.307
146.229
146.131
146.019
145.901
145.785
145.678
145.591
145.535
145.519
145.55
145.626
145.743
145.887
146.041
146.189
146.314
146.405
146.458
146.47
146.444
146.382
146.29
146.172
146.036
145.889
145.738
145.592
145.453
145.333
145.211
145.14
144.914
1614.98
978.803
404.745
113.796
51.8601
86.2723
127.148
145.871
147.541
143.855
141.391
141.256
142.281
143.354
144.077
144.517
144.846
145.16
145.471
145.756
145.991
146.168
146.287
146.354
146.376
146.358
146.307
146.229
146.131
146.02
145.902
145.785
145.678
145.592
145.535
145.519
145.548
145.625
145.742
145.887
146.042
146.19
146.315
146.407
146.459
146.471
146.445
146.383
146.29
146.173
146.037
145.889
145.738
145.591
145.454
145.328
145.221
145.101
145.036
144.732
1064.35
317.519
65.3621
56.9384
107.479
140.74
148.832
145.464
141.556
140.466
141.328
142.611
143.555
144.111
144.478
144.809
145.147
145.474
145.762
145.995
146.169
146.287
146.354
146.376
146.359
146.308
146.23
146.132
146.02
145.903
145.786
145.679
145.592
145.535
145.518
145.547
145.624
145.742
145.887
146.043
146.192
146.317
146.408
146.46
146.472
146.445
146.383
146.291
146.173
146.037
145.889
145.738
145.591
145.453
145.328
145.215
145.115
144.981
144.905
144.475
42.1105
36.8831
97.4208
140.128
151.619
147.391
141.676
139.544
140.244
141.766
142.964
143.659
144.075
144.423
144.782
145.145
145.481
145.768
145.997
146.169
146.287
146.354
146.377
146.359
146.308
146.23
146.132
146.021
145.903
145.787
145.68
145.592
145.534
145.517
145.546
145.623
145.741
145.887
146.044
146.193
146.319
146.41
146.462
146.473
146.446
146.384
146.292
146.174
146.037
145.89
145.738
145.591
145.452
145.327
145.215
145.108
145.001
144.832
144.719
144.112
148.227
159.562
156.498
147.024
139.952
137.868
139
140.923
142.364
143.167
143.622
143.991
144.377
144.776
145.155
145.489
145.771
145.998
146.169
146.287
146.355
146.377
146.36
146.308
146.23
146.132
146.021
145.904
145.787
145.68
145.592
145.534
145.516
145.545
145.622
145.74
145.887
146.045
146.195
146.321
146.412
146.463
146.474
146.446
146.385
146.292
146.175
146.038
145.89
145.738
145.59
145.452
145.326
145.213
145.107
144.994
144.857
144.626
144.441
143.617
138.312
135.807
134.782
136.02
138.392
140.543
141.909
142.634
143.078
143.485
143.923
144.37
144.79
145.166
145.493
145.771
145.997
146.169
146.288
146.356
146.378
146.36
146.309
146.231
146.133
146.021
145.904
145.788
145.681
145.592
145.534
145.515
145.544
145.62
145.74
145.888
146.046
146.196
146.322
146.413
146.464
146.474
146.447
146.385
146.293
146.175
146.038
145.89
145.738
145.59
145.452
145.325
145.212
145.106
144.993
144.851
144.654
144.333
144.036
142.976
138.98
139.337
140.059
140.802
141.383
141.852
142.327
142.856
143.408
143.932
144.398
144.807
145.169
145.491
145.769
145.998
146.171
146.289
146.356
146.378
146.36
146.309
146.231
146.133
146.022
145.904
145.788
145.681
145.592
145.533
145.514
145.542
145.619
145.739
145.888
146.047
146.198
146.324
146.415
146.465
146.475
146.447
146.386
146.293
146.176
146.039
145.89
145.738
145.59
145.451
145.325
145.211
145.104
144.992
144.852
144.651
144.36
143.922
143.469
142.203
138.898
139.197
139.808
140.577
141.387
142.168
142.872
143.475
143.982
144.417
144.806
145.163
145.488
145.77
146
146.173
146.291
146.357
146.379
146.361
146.309
146.231
146.133
146.022
145.904
145.788
145.681
145.592
145.532
145.513
145.541
145.618
145.738
145.888
146.049
146.201
146.327
146.417
146.467
146.476
146.448
146.386
146.294
146.176
146.039
145.89
145.738
145.589
145.451
145.324
145.21
145.104
144.993
144.854
144.655
144.363
143.946
143.369
142.723
141.35
139.127
139.936
140.808
141.623
142.345
142.97
143.509
143.98
144.404
144.796
145.161
145.492
145.777
146.007
146.179
146.294
146.36
146.381
146.363
146.311
146.232
146.134
146.022
145.904
145.787
145.679
145.589
145.529
145.508
145.536
145.614
145.737
145.889
146.052
146.205
146.332
146.422
146.471
146.479
146.451
146.388
146.296
146.178
146.04
145.89
145.737
145.588
145.45
145.323
145.21
145.104
144.996
144.86
144.666
144.376
143.959
143.394
142.666
141.808
140.512
)
;

boundaryField
{
    bottomwall
    {
        type            opaque;
        refValue        uniform 0;
        refGradient     uniform 0;
        valueFraction   uniform 0;
        source          uniform 0;
        value           nonuniform List<scalar> 
60
(
139.02
139.074
139.124
139.183
139.256
139.33
139.383
139.394
139.359
139.291
139.213
139.147
139.104
139.085
139.086
139.1
139.122
139.151
139.192
139.253
139.338
139.426
139.456
139.353
139.098
138.852
139.008
140.054
142.153
144.565
145.257
141.188
129.6
110.142
87.084
70.4598
75.152
117.668
211.397
361.989
564.628
804.339
1059.21
1305.27
1521.22
1691.37
1806.26
1861.49
1855.89
1790.4
1668.14
1495.57
1283.69
1048.25