/*--------------------------------*- C++ -*----------------------------------*\
| =========                 |                                                 |
| \\      /  F ield         | OpenFOAM: The Open Source CFD Toolbox           |
|  \\    /   O peration     | Version:  2406                                  |
|   \\  /    A nd           | Website:  www.openfoam.com                      |
|    \\/     M anipulation  |                                                 |
\*---------------------------------------------------------------------------*/
FoamFile
{
    version     2.0;
    format      ascii;
    arch        "LSB;label=32;scalar=64";
    class       volScalarField;
    location    "5000";
    object      ILambda_13_0;
}
// * * * * * * * * * * * * * * * * * * * * * * * * * * * * * * * * * * * * * //

dimensions      [1 0 -3 0 0 0 0];

internalField   nonuniform List<scalar> 
3600
(
139.269
139.281
139.289
139.297
139.305
139.313
139.32
139.327
139.333
139.339
139.345
139.35
139.356
139.362
139.37
139.378
139.387
139.398
139.41
139.424
139.439
139.455
139.472
139.489
139.506
139.522
139.536
139.548
139.558
139.565
139.57
139.573
139.575
139.577
139.581
139.589
139.601
139.62
139.645
139.677
139.714
139.754
139.794
139.828
139.854
139.865
139.859
139.832
139.783
139.713
139.622
139.514
139.391
139.256
139.111
138.96
138.807
138.661
138.536
138.452
139.245
139.256
139.263
139.271
139.28
139.288
139.297
139.305
139.312
139.319
139.326
139.332
139.337
139.342
139.347
139.352
139.358
139.365
139.373
139.382
139.393
139.405
139.42
139.436
139.453
139.472
139.49
139.508
139.525
139.54
139.552
139.561
139.567
139.569
139.568
139.566
139.564
139.565
139.57
139.582
139.603
139.633
139.672
139.719
139.77
139.821
139.867
139.901
139.918
139.914
139.886
139.834
139.76
139.666
139.554
139.428
139.284
139.121
138.933
138.719
139.235
139.245
139.25
139.258
139.265
139.274
139.282
139.29
139.299
139.307
139.315
139.322
139.328
139.334
139.34
139.345
139.351
139.356
139.362
139.369
139.377
139.387
139.397
139.41
139.424
139.44
139.457
139.475
139.493
139.511
139.528
139.542
139.555
139.564
139.571
139.574
139.575
139.574
139.573
139.574
139.579
139.59
139.609
139.636
139.672
139.715
139.763
139.809
139.85
139.88
139.892
139.882
139.849
139.791
139.713
139.619
139.513
139.4
139.282
139.156
139.225
139.233
139.237
139.244
139.25
139.258
139.265
139.274
139.282
139.29
139.299
139.307
139.314
139.321
139.328
139.334
139.339
139.345
139.35
139.355
139.361
139.368
139.376
139.386
139.397
139.41
139.424
139.44
139.457
139.475
139.493
139.511
139.528
139.543
139.555
139.564
139.57
139.572
139.573
139.571
139.57
139.572
139.577
139.589
139.609
139.638
139.676
139.722
139.771
139.82
139.863
139.894
139.907
139.896
139.859
139.796
139.709
139.605
139.489
139.367
139.216
139.223
139.227
139.232
139.238
139.244
139.251
139.258
139.266
139.274
139.282
139.291
139.299
139.307
139.315
139.322
139.329
139.334
139.34
139.345
139.35
139.356
139.362
139.368
139.377
139.386
139.397
139.41
139.425
139.441
139.458
139.476
139.495
139.512
139.529
139.544
139.556
139.565
139.571
139.573
139.573
139.571
139.57
139.57
139.575
139.587
139.606
139.636
139.674
139.72
139.771
139.821
139.866
139.898
139.912
139.901
139.864
139.799
139.711
139.604
139.206
139.214
139.218
139.223
139.227
139.232
139.238
139.244
139.251
139.258
139.266
139.274
139.283
139.291
139.3
139.308
139.315
139.322
139.329
139.335
139.34
139.345
139.35
139.356
139.362
139.369
139.377
139.386
139.397
139.41
139.425
139.441
139.459
139.477
139.495
139.513
139.53
139.545
139.557
139.566
139.572
139.574
139.573
139.571
139.569
139.57
139.574
139.586
139.606
139.635
139.674
139.721
139.773
139.825
139.87
139.903
139.916
139.905
139.866
139.799
139.196
139.205
139.209
139.214
139.218
139.223
139.227
139.232
139.238
139.244
139.251
139.258
139.266
139.275
139.283
139.292
139.3
139.308
139.316
139.323
139.329
139.335
139.34
139.345
139.35
139.356
139.362
139.369
139.377
139.386
139.398
139.411
139.425
139.442
139.459
139.478
139.496
139.514
139.531
139.546
139.558
139.567
139.573
139.575
139.574
139.571
139.569
139.569
139.573
139.584
139.604
139.634
139.674
139.722
139.775
139.828
139.875
139.909
139.923
139.913
139.185
139.194
139.199
139.204
139.209
139.214
139.218
139.223
139.227
139.233
139.238
139.244
139.251
139.259
139.267
139.275
139.284
139.292
139.301
139.309
139.316
139.323
139.329
139.335
139.34
139.345
139.35
139.356
139.362
139.369
139.377
139.387
139.398
139.411
139.426
139.442
139.46
139.478
139.497
139.515
139.532
139.547
139.559
139.568
139.573
139.575
139.574
139.571
139.568
139.568
139.572
139.583
139.603
139.633
139.674
139.723
139.777
139.832
139.88
139.917
139.172
139.183
139.188
139.194
139.199
139.205
139.209
139.214
139.218
139.223
139.228
139.233
139.238
139.244
139.251
139.259
139.267
139.275
139.284
139.293
139.301
139.309
139.317
139.324
139.33
139.335
139.341
139.346
139.351
139.356
139.362
139.369
139.377
139.387
139.398
139.411
139.426
139.443
139.461
139.479
139.498
139.516
139.533
139.548
139.56
139.569
139.574
139.576
139.574
139.571
139.568
139.567
139.57
139.581
139.601
139.632
139.673
139.724
139.78
139.837
139.158
139.169
139.175
139.182
139.188
139.194
139.2
139.205
139.21
139.214
139.218
139.223
139.228
139.233
139.238
139.245
139.252
139.259
139.267
139.276
139.284
139.293
139.301
139.31
139.317
139.324
139.33
139.336
139.341
139.346
139.351
139.356
139.362
139.369
139.377
139.387
139.398
139.412
139.427
139.443
139.461
139.48
139.499
139.517
139.534
139.549
139.561
139.57
139.575
139.576
139.575
139.571
139.567
139.566
139.569
139.579
139.6
139.631
139.673
139.725
139.143
139.155
139.161
139.169
139.176
139.182
139.189
139.195
139.2
139.205
139.21
139.214
139.219
139.223
139.228
139.233
139.238
139.245
139.252
139.259
139.267
139.276
139.285
139.293
139.302
139.31
139.317
139.324
139.33
139.336
139.341
139.346
139.351
139.356
139.362
139.369
139.377
139.387
139.399
139.412
139.427
139.444
139.462
139.481
139.5
139.518
139.535
139.55
139.563
139.571
139.576
139.577
139.575
139.571
139.567
139.564
139.567
139.578
139.598
139.629
139.129
139.141
139.147
139.155
139.162
139.169
139.176
139.183
139.189
139.195
139.2
139.205
139.21
139.214
139.219
139.223
139.228
139.233
139.239
139.245
139.252
139.26
139.268
139.276
139.285
139.294
139.302
139.31
139.318
139.325
139.331
139.336
139.341
139.346
139.351
139.356
139.362
139.369
139.377
139.387
139.399
139.412
139.428
139.444
139.462
139.481
139.5
139.519
139.536
139.551
139.564
139.572
139.577
139.578
139.575
139.571
139.566
139.563
139.565
139.575
139.116
139.127
139.133
139.14
139.148
139.155
139.162
139.169
139.176
139.183
139.189
139.195
139.201
139.206
139.21
139.214
139.219
139.223
139.228
139.233
139.239
139.245
139.252
139.26
139.268
139.277
139.286
139.294
139.303
139.311
139.318
139.325
139.331
139.336
139.341
139.346
139.351
139.356
139.362
139.369
139.378
139.388
139.399
139.413
139.428
139.445
139.463
139.482
139.501
139.52
139.537
139.553
139.565
139.573
139.578
139.579
139.576
139.571
139.565
139.561
139.104
139.114
139.12
139.127
139.134
139.141
139.148
139.155
139.162
139.17
139.177
139.183
139.19
139.195
139.201
139.206
139.21
139.215
139.219
139.223
139.228
139.233
139.239
139.245
139.252
139.26
139.268
139.277
139.286
139.295
139.303
139.311
139.319
139.325
139.331
139.337
139.342
139.346
139.351
139.356
139.362
139.369
139.378
139.388
139.399
139.413
139.429
139.446
139.464
139.483
139.502
139.521
139.538
139.554
139.566
139.574
139.579
139.579
139.576
139.57
139.093
139.101
139.107
139.114
139.12
139.127
139.134
139.141
139.148
139.155
139.163
139.17
139.177
139.184
139.19
139.196
139.201
139.206
139.21
139.215
139.219
139.223
139.228
139.233
139.239
139.245
139.252
139.26
139.269
139.278
139.286
139.295
139.304
139.312
139.319
139.326
139.332
139.337
139.342
139.346
139.351
139.356
139.362
139.369
139.378
139.388
139.4
139.413
139.429
139.446
139.464
139.484
139.503
139.522
139.539
139.555
139.567
139.576
139.58
139.58
139.088
139.091
139.096
139.101
139.108
139.114
139.121
139.127
139.134
139.141
139.148
139.156
139.163
139.17
139.177
139.184
139.19
139.196
139.201
139.206
139.211
139.215
139.219
139.223
139.228
139.233
139.239
139.245
139.253
139.261
139.269
139.278
139.287
139.296
139.304
139.312
139.32
139.326
139.332
139.337
139.342
139.346
139.351
139.356
139.362
139.369
139.378
139.388
139.4
139.414
139.429
139.447
139.465
139.484
139.504
139.523
139.54
139.556
139.568
139.577
139.092
139.086
139.089
139.092
139.096
139.102
139.108
139.114
139.121
139.128
139.134
139.141
139.149
139.156
139.163
139.171
139.178
139.184
139.191
139.196
139.202
139.206
139.211
139.215
139.219
139.223
139.228
139.233
139.239
139.246
139.253
139.261
139.269
139.278
139.287
139.296
139.305
139.313
139.32
139.326
139.332
139.337
139.342
139.347
139.351
139.356
139.362
139.369
139.378
139.388
139.4
139.414
139.43
139.447
139.466
139.485
139.505
139.524
139.541
139.557
139.107
139.091
139.089
139.087
139.089
139.092
139.097
139.103
139.109
139.115
139.121
139.128
139.135
139.142
139.149
139.156
139.164
139.171
139.178
139.185
139.191
139.197
139.202
139.207
139.211
139.215
139.219
139.223
139.228
139.233
139.239
139.246
139.253
139.261
139.27
139.279
139.288
139.297
139.305
139.313
139.32
139.327
139.333
139.338
139.342
139.347
139.351
139.356
139.362
139.37
139.378
139.388
139.401
139.415
139.43
139.448
139.466
139.486
139.506
139.525
139.133
139.108
139.099
139.091
139.088
139.087
139.089
139.093
139.098
139.103
139.109
139.115
139.122
139.128
139.135
139.142
139.149
139.157
139.164
139.171
139.178
139.185
139.191
139.197
139.202
139.207
139.211
139.215
139.219
139.224
139.228
139.233
139.239
139.246
139.253
139.261
139.27
139.279
139.288
139.297
139.306
139.314
139.321
139.327
139.333
139.338
139.342
139.347
139.351
139.356
139.362
139.37
139.378
139.389
139.401
139.415
139.431
139.448
139.467
139.487
139.163
139.138
139.122
139.108
139.097
139.091
139.087
139.087
139.09
139.093
139.098
139.104
139.109
139.115
139.122
139.128
139.135
139.142
139.149
139.157
139.164
139.172
139.179
139.185
139.192
139.197
139.202
139.207
139.211
139.215
139.219
139.224
139.228
139.233
139.239
139.246
139.254
139.262
139.27
139.28
139.289
139.298
139.306
139.314
139.321
139.328
139.333
139.338
139.342
139.347
139.351
139.356
139.362
139.37
139.378
139.389
139.401
139.415
139.431
139.449
139.179
139.172
139.153
139.137
139.12
139.106
139.096
139.09
139.087
139.088
139.09
139.094
139.099
139.104
139.11
139.116
139.122
139.129
139.135
139.142
139.15
139.157
139.165
139.172
139.179
139.186
139.192
139.198
139.203
139.207
139.211
139.215
139.219
139.224
139.228
139.233
139.239
139.246
139.254
139.262
139.271
139.28
139.289
139.298
139.307
139.315
139.322
139.328
139.333
139.338
139.343
139.347
139.351
139.357
139.363
139.37
139.379
139.389
139.401
139.416
139.159
139.188
139.178
139.168
139.151
139.134
139.117
139.104
139.095
139.089
139.087
139.088
139.09
139.094
139.099
139.104
139.11
139.116
139.122
139.129
139.136
139.143
139.15
139.157
139.165
139.172
139.179
139.186
139.192
139.198
139.203
139.207
139.212
139.216
139.219
139.224
139.228
139.233
139.239
139.246
139.254
139.262
139.271
139.28
139.29
139.299
139.307
139.315
139.322
139.328
139.334
139.338
139.343
139.347
139.351
139.357
139.363
139.37
139.379
139.389
139.086
139.163
139.175
139.184
139.179
139.165
139.148
139.131
139.115
139.102
139.094
139.089
139.087
139.088
139.091
139.095
139.1
139.105
139.111
139.116
139.123
139.129
139.136
139.143
139.15
139.158
139.165
139.173
139.18
139.186
139.193
139.198
139.203
139.208
139.212
139.216
139.22
139.224
139.228
139.234
139.24
139.246
139.254
139.263
139.272
139.281
139.29
139.299
139.308
139.315
139.322
139.329
139.334
139.339
139.343
139.347
139.351
139.357
139.363
139.37
138.963
139.077
139.122
139.16
139.18
139.184
139.177
139.163
139.145
139.128
139.113
139.101
139.093
139.088
139.087
139.088
139.091
139.095
139.1
139.105
139.111
139.117
139.123
139.129
139.136
139.143
139.151
139.158
139.166
139.173
139.18
139.187
139.193
139.198
139.203
139.208
139.212
139.216
139.22
139.224
139.228
139.234
139.24
139.247
139.254
139.263
139.272
139.281
139.291
139.3
139.308
139.316
139.323
139.329
139.334
139.339
139.343
139.347
139.351
139.356
138.832
138.939
139.012
139.079
139.131
139.165
139.182
139.184
139.175
139.16
139.142
139.125
139.11
139.099
139.092
139.088
139.087
139.089
139.092
139.096
139.101
139.106
139.111
139.117
139.123
139.13
139.136
139.144
139.151
139.158
139.166
139.173
139.18
139.187
139.193
139.199
139.204
139.208
139.212
139.216
139.22
139.224
139.228
139.234
139.24
139.247
139.255
139.263
139.272
139.282
139.291
139.3
139.309
139.316
139.323
139.329
139.334
139.339
139.343
139.347
138.771
138.796
138.873
138.947
139.024
139.089
139.138
139.169
139.183
139.183
139.173
139.157
139.139
139.122
139.108
139.098
139.091
139.088
139.088
139.089
139.092
139.096
139.101
139.106
139.112
139.117
139.123
139.13
139.137
139.144
139.151
139.159
139.166
139.174
139.181
139.187
139.194
139.199
139.204
139.208
139.212
139.216
139.22
139.224
139.228
139.234
139.24
139.247
139.255
139.264
139.273
139.282
139.292
139.301
139.309
139.317
139.324
139.33
139.335
139.339
138.88
138.737
138.774
138.811
138.883
138.96
139.035
139.099
139.145
139.173
139.185
139.182
139.171
139.154
139.136
139.12
139.106
139.097
139.091
139.088
139.088
139.09
139.093
139.097
139.101
139.106
139.112
139.118
139.124
139.13
139.137
139.144
139.151
139.159
139.167
139.174
139.181
139.188
139.194
139.199
139.204
139.208
139.212
139.216
139.22
139.224
139.228
139.234
139.24
139.247
139.255
139.264
139.273
139.283
139.292
139.301
139.31
139.317
139.324
139.33
139.247
138.872
138.814
138.758
138.774
138.823
138.894
138.973
139.047
139.108
139.152
139.177
139.185
139.181
139.168
139.151
139.133
139.117
139.105
139.096
139.09
139.088
139.088
139.09
139.093
139.097
139.102
139.107
139.112
139.118
139.124
139.13
139.137
139.144
139.152
139.159
139.167
139.174
139.182
139.188
139.194
139.2
139.204
139.209
139.212
139.216
139.22
139.224
139.228
139.234
139.24
139.247
139.255
139.264
139.274
139.283
139.293
139.302
139.31
139.318
139.906
139.289
139.095
138.898
138.799
138.762
138.78
138.833
138.907
138.986
139.059
139.117
139.158
139.18
139.186
139.18
139.166
139.148
139.131
139.115
139.103
139.095
139.09
139.088
139.088
139.09
139.094
139.098
139.102
139.107
139.112
139.118
139.124
139.131
139.137
139.145
139.152
139.16
139.167
139.175
139.182
139.189
139.195
139.2
139.205
139.209
139.212
139.216
139.22
139.224
139.228
139.234
139.24
139.247
139.256
139.265
139.274
139.284
139.293
139.302
140.819
140.014
139.676
139.317
139.064
138.889
138.794
138.765
138.787
138.845
138.92
138.999
139.07
139.126
139.163
139.182
139.186
139.178
139.163
139.145
139.128
139.113
139.101
139.094
139.09
139.088
139.089
139.091
139.094
139.098
139.102
139.107
139.113
139.118
139.124
139.131
139.138
139.145
139.152
139.16
139.168
139.175
139.182
139.189
139.195
139.2
139.205
139.209
139.213
139.216
139.22
139.224
139.228
139.234
139.24
139.248
139.256
139.265
139.274
139.284
141.874
140.987
140.539
140.043
139.633
139.296
139.045
138.878
138.79
138.767
138.795
138.856
138.933
139.012
139.081
139.134
139.169
139.185
139.186
139.176
139.16
139.142
139.125
139.111
139.1
139.093
139.089
139.088
139.089
139.091
139.094
139.098
139.103
139.108
139.113
139.119
139.125
139.131
139.138
139.145
139.153
139.16
139.168
139.176
139.183
139.189
139.195
139.201
139.205
139.209
139.213
139.216
139.22
139.224
139.228
139.234
139.24
139.248
139.256
139.265
142.924
142.08
141.586
141.017
140.493
140.014
139.603
139.272
139.027
138.868
138.787
138.771
138.804
138.869
138.947
139.025
139.092
139.142
139.173
139.186
139.185
139.173
139.157
139.139
139.122
139.109
139.099
139.093
139.089
139.088
139.089
139.092
139.095
139.099
139.103
139.108
139.113
139.119
139.125
139.131
139.138
139.145
139.153
139.161
139.168
139.176
139.183
139.19
139.196
139.201
139.205
139.209
139.213
139.216
139.22
139.224
139.228
139.234
139.24
139.248
143.842
143.133
142.669
142.109
141.547
140.989
140.46
139.982
139.574
139.247
139.009
138.858
138.784
138.776
138.814
138.882
138.961
139.039
139.103
139.15
139.177
139.187
139.183
139.171
139.154
139.136
139.12
139.107
139.098
139.092
139.089
139.089
139.09
139.092
139.095
139.099
139.103
139.108
139.113
139.119
139.125
139.131
139.138
139.145
139.153
139.161
139.169
139.176
139.184
139.19
139.196
139.201
139.206
139.209
139.213
139.216
139.22
139.224
139.228
139.234
144.556
144.021
143.641
143.161
142.642
142.088
141.519
140.957
140.427
139.95
139.544
139.223
138.992
138.848
138.783
138.781
138.825
138.895
138.976
139.052
139.114
139.157
139.181
139.188
139.182
139.168
139.15
139.133
139.118
139.106
139.097
139.092
139.089
139.089
139.09
139.092
139.096
139.099
139.104
139.109
139.114
139.119
139.125
139.131
139.138
139.146
139.153
139.161
139.169
139.177
139.184
139.191
139.196
139.201
139.206
139.209
139.213
139.216
139.22
139.224
145.069
144.689
144.412
144.045
143.626
143.149
142.623
142.064
141.49
140.925
140.393
139.916
139.514
139.199
138.975
138.84
138.782
138.787
138.836
138.91
138.99
139.065
139.124
139.164
139.184
139.188
139.18
139.165
139.147
139.13
139.115
139.104
139.096
139.092
139.089
139.089
139.09
139.093
139.096
139.1
139.104
139.109
139.114
139.119
139.125
139.132
139.139
139.146
139.154
139.162
139.17
139.177
139.184
139.191
139.197
139.202
139.206
139.21
139.213
139.216
145.435
145.157
144.966
144.707
144.404
144.041
143.617
143.136
142.605
142.04
141.461
140.892
140.358
139.883
139.484
139.175
138.959
138.832
138.783
138.795
138.849
138.925
139.005
139.078
139.134
139.17
139.186
139.187
139.177
139.162
139.144
139.127
139.114
139.103
139.096
139.091
139.089
139.089
139.091
139.093
139.096
139.1
139.104
139.109
139.114
139.12
139.125
139.132
139.139
139.146
139.154
139.162
139.17
139.178
139.185
139.191
139.197
139.202
139.206
139.21
145.718
145.493
145.353
145.169
144.959
144.706
144.4
144.036
143.609
143.122
142.586
142.015
141.431
140.858
140.323
139.849
139.454
139.151
138.943
138.825
138.784
138.803
138.862
138.94
139.02
139.09
139.143
139.175
139.188
139.186
139.175
139.158
139.141
139.125
139.112
139.102
139.095
139.091
139.089
139.089
139.091
139.093
139.097
139.101
139.105
139.109
139.114
139.12
139.126
139.132
139.139
139.147
139.154
139.162
139.17
139.178
139.185
139.192
139.197
139.202
145.963
145.765
145.646
145.5
145.344
145.166
144.956
144.703
144.397
144.031
143.6
143.109
142.567
141.99
141.4
140.824
140.287
139.814
139.423
139.127
138.928
138.819
138.787
138.813
138.876
138.956
139.035
139.103
139.151
139.179
139.189
139.185
139.172
139.155
139.138
139.123
139.11
139.101
139.095
139.091
139.09
139.09
139.091
139.094
139.097
139.101
139.105
139.11
139.115
139.12
139.126
139.132
139.139
139.147
139.155
139.163
139.171
139.179
139.186
139.192
146.17
146.008
145.897
145.767
145.634
145.492
145.338
145.161
144.953
144.701
144.395
144.026
143.592
143.096
142.547
141.964
141.369
140.788
140.25
139.778
139.393
139.104
138.913
138.814
138.791
138.824
138.891
138.972
139.051
139.115
139.159
139.183
139.189
139.183
139.169
139.152
139.135
139.121
139.109
139.101
139.095
139.091
139.09
139.09
139.091
139.094
139.097
139.101
139.105
139.11
139.115
139.12
139.126
139.132
139.139
139.147
139.155
139.163
139.171
139.179
146.314
146.215
146.12
146.008
145.886
145.758
145.624
145.484
145.331
145.157
144.951
144.7
144.393
144.022
143.584
143.083
142.528
141.938
141.337
140.752
140.212
139.742
139.362
139.08
138.899
138.81
138.796
138.835
138.907
138.989
139.066
139.126
139.167
139.186
139.189
139.18
139.165
139.149
139.133
139.119
139.108
139.1
139.094
139.091
139.089
139.09
139.091
139.094
139.098
139.102
139.106
139.11
139.115
139.12
139.126
139.132
139.14
139.147
139.156
139.164
146.359
146.35
146.291
146.214
146.113
145.999
145.876
145.747
145.615
145.476
145.325
145.154
144.949
144.699
144.391
144.019
143.577
143.069
142.508
141.911
141.303
140.715
140.173
139.706
139.33
139.058
138.887
138.807
138.802
138.849
138.924
139.006
139.081
139.137
139.173
139.188
139.188
139.177
139.162
139.146
139.13
139.118
139.107
139.1
139.094
139.091
139.089
139.09
139.092
139.095
139.098
139.102
139.106
139.11
139.115
139.12
139.126
139.133
139.14
139.148
146.29
146.376
146.37
146.348
146.291
146.209
146.106
145.99
145.866
145.737
145.605
145.468
145.32
145.15
144.947
144.698
144.39
144.015
143.569
143.056
142.487
141.883
141.269
140.676
140.134
139.668
139.299
139.035
138.875
138.806
138.81
138.863
138.941
139.024
139.095
139.148
139.178
139.189
139.186
139.174
139.159
139.143
139.128
139.116
139.107
139.099
139.094
139.09
139.089
139.09
139.092
139.095
139.099
139.102
139.106
139.111
139.115
139.12
139.126
139.133
146.126
146.281
146.332
146.373
146.377
146.348
146.289
146.204
146.099
145.981
145.855
145.727
145.596
145.46
145.314
145.146
144.946
144.698
144.39
144.013
143.562
143.043
142.467
141.855
141.234
140.636
140.093
139.63
139.267
139.013
138.864
138.806
138.82
138.879
138.96
139.041
139.109
139.157
139.182
139.19
139.184
139.171
139.156
139.14
139.127
139.115
139.106
139.098
139.093
139.09
139.089
139.09
139.092
139.096
139.099
139.103
139.107
139.111
139.115
139.12
145.919
146.093
146.186
146.278
146.344
146.379
146.381
146.35
146.287
146.199
146.091
145.971
145.845
145.716
145.586
145.452
145.308
145.143
144.945
144.698
144.39
144.01
143.556
143.03
142.446
141.825
141.198
140.595
140.051
139.591
139.236
138.992
138.854
138.808
138.831
138.896
138.979
139.059
139.123
139.165
139.186
139.189
139.181
139.168
139.153
139.138
139.126
139.114
139.105
139.098
139.093
139.09
139.089
139.09
139.093
139.096
139.1
139.103
139.107
139.111
145.735
145.872
145.976
146.091
146.198
146.288
146.353
146.386
146.385
146.351
146.285
146.193
146.083
145.961
145.834
145.705
145.576
145.444
145.302
145.14
144.944
144.699
144.391
144.009
143.549
143.017
142.424
141.795
141.16
140.553
140.007
139.551
139.204
138.971
138.846
138.812
138.844
138.915
138.999
139.077
139.136
139.172
139.188
139.187
139.178
139.164
139.15
139.137
139.125
139.114
139.104
139.097
139.092
139.089
139.089
139.091
139.093
139.097
139.1
139.104
145.637
145.69
145.772
145.871
145.985
146.1
146.208
146.298
146.361
146.393
146.389
146.351
146.282
146.188
146.075
145.951
145.823
145.694
145.566
145.436
145.296
145.137
144.944
144.7
144.392
144.008
143.544
143.004
142.402
141.764
141.121
140.509
139.962
139.511
139.172
138.951
138.84
138.818
138.86
138.935
139.02
139.094
139.147
139.178
139.188
139.185
139.175
139.162
139.148
139.135
139.124
139.113
139.104
139.096
139.091
139.089
139.089
139.091
139.094
139.097
145.654
145.609
145.641
145.691
145.774
145.877
145.992
146.11
146.218
146.308
146.37
146.399
146.393
146.352
146.279
146.182
146.067
145.941
145.811
145.683
145.555
145.427
145.291
145.134
144.944
144.702
144.394
144.008
143.538
142.991
142.38
141.732
141.08
140.463
139.916
139.469
139.14
138.932
138.835
138.827
138.877
138.957
139.041
139.11
139.157
139.182
139.188
139.182
139.171
139.159
139.147
139.135
139.123
139.112
139.103
139.095
139.091
139.089
139.089
139.092
145.779
145.652
145.625
145.611
145.636
145.691
145.776
145.882
146
146.12
146.229
146.318
146.379
146.406
146.396
146.352
146.276
146.176
146.058
145.931
145.8
145.671
145.545
145.418
145.285
145.132
144.944
144.705
144.397
144.008
143.534
142.978
142.357
141.699
141.038
140.415
139.868
139.427
139.108
138.915
138.833
138.838
138.897
138.98
139.062
139.126
139.166
139.184
139.186
139.179
139.168
139.157
139.146
139.134
139.122
139.111
139.101
139.094
139.09
139.089
145.972
145.803
145.727
145.655
145.615
145.607
145.632
145.691
145.779
145.888
146.009
146.13
146.24
146.329
146.388
146.412
146.4
146.352
146.273
146.169
146.049
145.92
145.789
145.659
145.534
145.41
145.279
145.129
144.945
144.708
144.401
144.01
143.53
142.966
142.334
141.664
140.994
140.365
139.818
139.383
139.077
138.899
138.834
138.852
138.919
139.005
139.083
139.14
139.172
139.184
139.183
139.176
139.166
139.156
139.145
139.134
139.121
139.11
139.1
139.093
146.172
146.013
145.912
145.806
145.716
145.648
145.608
145.601
145.629
145.691
145.782
145.894
146.017
146.14
146.251
146.339
146.397
146.418
146.403
146.351
146.269
146.163
146.04
145.909
145.777
145.648
145.523
145.4
145.273
145.127
144.946
144.712
144.406
144.013
143.527
142.954
142.31
141.628
140.947
140.312
139.766
139.338
139.046
138.885
138.837
138.869
138.944
139.03
139.103
139.152
139.176
139.183
139.18
139.173
139.165
139.156
139.145
139.133
139.12
139.108
146.315
146.218
146.121
146.014
145.902
145.798
145.707
145.64
145.601
145.596
145.626
145.691
145.785
145.901
146.027
146.151
146.263
146.35
146.406
146.424
146.405
146.35
146.265
146.156
146.031
145.899
145.765
145.635
145.512
145.391
145.266
145.124
144.948
144.717
144.412
144.017
143.525
142.942
142.286
141.59
140.898
140.257
139.711
139.292
139.015
138.874
138.845
138.89
138.972
139.056
139.122
139.161
139.178
139.18
139.176
139.171
139.164
139.156
139.145
139.132
146.343
146.353
146.29
146.214
146.115
146.006
145.894
145.789
145.699
145.631
145.594
145.59
145.623
145.691
145.789
145.908
146.036
146.163
146.275
146.361
146.414
146.43
146.407
146.349
146.261
146.149
146.022
145.888
145.753
145.623
145.5
145.381
145.259
145.122
144.95
144.723
144.419
144.023
143.525
142.931
142.261
141.55
140.846
140.198
139.653
139.245
138.986
138.867
138.857
138.916
139.002
139.082
139.138
139.167
139.176
139.176
139.173
139.17
139.165
139.156
146.212
146.361
146.357
146.344
146.288
146.208
146.109
145.999
145.886
145.781
145.69
145.623
145.586
145.585
145.62
145.691
145.793
145.915
146.047
146.175
146.287
146.372
146.423
146.435
146.409
146.348
146.256
146.142
146.013
145.877
145.741
145.61
145.488
145.371
145.252
145.119
144.952
144.729
144.428
144.03
143.526
142.921
142.235
141.508
140.79
140.134
139.592
139.197
138.959
138.863
138.875
138.947
139.034
139.107
139.15
139.169
139.173
139.173
139.172
139.171
145.9
146.201
146.274
146.347
146.361
146.34
146.284
146.202
146.102
145.991
145.879
145.772
145.681
145.614
145.579
145.579
145.617
145.691
145.797
145.923
146.057
146.187
146.299
146.383
146.431
146.44
146.41
146.346
146.252
146.135
146.004
145.866
145.729
145.598
145.475
145.36
145.244
145.116
144.954
144.737
144.439
144.039
143.529
142.911
142.209
141.464
140.729
140.066
139.527
139.147
138.934
138.866
138.9
138.983
139.068
139.128
139.157
139.166
139.168
139.171
145.403
145.853
146.009
146.181
146.286
146.347
146.362
146.337
146.279
146.197
146.096
145.984
145.871
145.764
145.673
145.606
145.571
145.572
145.613
145.692
145.801
145.931
146.069
146.2
146.312
146.394
146.439
146.444
146.411
146.344
146.247
146.129
145.996
145.856
145.717
145.584
145.462
145.348
145.236
145.112
144.957
144.745
144.451
144.051
143.535
142.904
142.183
141.416
140.664
139.991
139.457
139.096
138.913
138.878
138.935
139.025
139.101
139.142
139.156
139.161
144.728
145.322
145.554
145.826
146.029
146.187
146.292
146.349
146.361
146.334
146.275
146.191
146.089
145.977
145.863
145.756
145.664
145.597
145.562
145.566
145.61
145.692
145.806
145.94
146.081
146.214
146.325
146.405
146.446
146.448
146.411
146.341
146.242
146.122
145.987
145.846
145.705
145.571
145.448
145.336
145.227
145.108
144.959
144.754
144.465
144.066
143.543
142.899
142.156
141.365
140.591
139.908
139.38
139.044
138.899
138.902
138.983
139.071
139.125
139.144
143.87
144.622
144.919
145.283
145.577
145.834
146.04
146.195
146.297
146.35
146.359
146.33
146.27
146.186
146.083
145.971
145.856
145.748
145.655
145.588
145.554
145.559
145.606
145.693
145.812
145.951
146.095
146.228
146.338
146.415
146.452
146.45
146.411
146.338
146.238
146.116
145.979
145.835
145.693
145.557
145.434
145.323
145.217
145.103
144.961
144.764
144.482
144.085
143.557
142.897
142.13
141.31
140.509
139.812
139.294
138.993
138.899
138.948
139.045
139.112
142.802
143.745
144.119
144.567
144.945
145.289
145.591
145.847
146.052
146.203
146.302
146.351
146.358
146.328
146.267
146.181
146.078
145.965
145.849
145.74
145.647
145.579
145.545
145.552
145.602
145.693
145.818
145.961
146.108
146.243
146.351
146.424
146.458
146.452
146.41
146.336
146.233
146.11
145.971
145.826
145.681
145.544
145.42
145.309
145.205
145.097
144.962
144.774
144.5
144.108
143.576
142.9
142.107
141.25
140.414
139.699
139.195
138.949
138.933
139.038
141.519
142.637
143.14
143.685
144.152
144.575
144.958
145.303
145.607
145.863
146.066
146.213
146.308
146.355
146.359
146.328
146.265
146.179
146.075
145.961
145.844
145.734
145.639
145.569
145.535
145.543
145.596
145.693
145.823
145.971
146.121
146.255
146.362
146.432
146.463
146.455
146.411
146.335
146.231
146.106
145.965
145.818
145.671
145.532
145.407
145.295
145.192
145.087
144.961
144.783
144.52
144.136
143.604
142.917
142.095
141.192
140.304
139.557
139.08
138.951
140.135
141.23
141.938
142.608
143.198
143.717
144.179
144.596
144.978
145.326
145.633
145.89
146.09
146.234
146.325
146.369
146.371
146.336
146.271
146.182
146.076
145.961
145.842
145.729
145.63
145.556
145.517
145.524
145.579
145.681
145.819
145.975
146.132
146.27
146.377
146.446
146.475
146.465
146.42
146.342
146.236
146.108
145.964
145.813
145.662
145.52
145.391
145.276
145.173
145.072
144.955
144.793
144.549
144.187
143.674
142.993
142.149
141.178
140.169
139.259
)
;

boundaryField
{
    bottomwall
    {
        type            opaque;
        refValue        uniform 0;
        refGradient     uniform 0;
        valueFraction   uniform 0;
        source          uniform 0;
        value           nonuniform List<scalar> 
60
(
139.269
139.281
139.289
139.297
139.305
139.313
139.32
139.327
139.333
139.339
139.345
139.35
139.356
139.362
139.37
139.378
139.387
139.398
139.41
139.424
139.439
139.455
139.472
139.489
139.506
139.522
139.536
139.548
139.558
139.565
139.57
139.573
139.575
139.577
139.581
139.589
139.601
139.62
139.645
139.677
139.714
139.754
139.794
139.828
139.854
139.865
139.859
139.832
139.783
139.713
139.622
139.514
139.391
139.256
139.111
138.96