/*--------------------------------*- C++ -*----------------------------------*\
| =========                 |                                                 |
| \\      /  F ield         | OpenFOAM: The Open Source CFD Toolbox           |
|  \\    /   O peration     | Version:  2406                                  |
|   \\  /    A nd           | Website:  www.openfoam.com                      |
|    \\/     M anipulation  |                                                 |
\*---------------------------------------------------------------------------*/
FoamFile
{
    version     2.0;
    format      ascii;
    arch        "LSB;label=32;scalar=64";
    class       volScalarField;
    location    "5000";
    object      ILambda_0_0;
}
// * * * * * * * * * * * * * * * * * * * * * * * * * * * * * * * * * * * * * //

dimensions      [1 0 -3 0 0 0 0];

internalField   nonuniform List<scalar> 
3600
(
142.788
145.435
146.679
147.457
147.971
148.321
148.569
148.755
148.902
149.025
149.137
149.242
149.343
149.44
149.533
149.624
149.715
149.806
149.9
149.996
150.093
150.189
150.283
150.372
150.453
150.528
150.605
150.691
150.791
150.899
150.988
151.015
150.942
150.767
150.561
150.482
150.771
151.695
153.483
156.24
159.901
164.217
168.788
173.142
176.831
179.524
181.05
181.385
180.594
178.785
176.086
172.646
168.657
164.357
160.014
155.891
152.179
148.949
146.043
142.728
141.905
145.158
146.558
147.363
147.904
148.274
148.535
148.729
148.881
149.007
149.12
149.225
149.327
149.425
149.519
149.61
149.7
149.792
149.885
149.98
150.077
150.174
150.269
150.358
150.44
150.517
150.592
150.676
150.775
150.883
150.976
151.016
150.96
150.8
150.591
150.48
150.694
151.502
153.141
155.743
159.27
163.502
168.06
172.478
176.298
179.166
180.884
181.407
180.789
179.134
176.567
173.234
169.318
165.051
160.698
156.525
152.739
149.434
146.511
143.018
141.194
144.747
146.417
147.271
147.834
148.225
148.5
148.702
148.859
148.988
149.103
149.209
149.311
149.409
149.504
149.596
149.686
149.777
149.87
149.965
150.062
150.159
150.254
150.344
150.428
150.505
150.58
150.662
150.758
150.866
150.964
151.014
150.975
150.83
150.623
150.484
150.631
151.328
152.823
155.269
158.657
162.796
167.33
171.8
175.742
178.779
180.689
181.401
180.959
179.462
177.03
173.807
169.97
165.742
161.386
157.169
153.311
149.928
146.985
143.327
140.634
144.247
146.232
147.179
147.763
148.173
148.463
148.674
148.837
148.969
149.085
149.193
149.295
149.394
149.489
149.581
149.672
149.763
149.855
149.95
150.046
150.144
150.239
150.33
150.415
150.493
150.568
150.649
150.742
150.849
150.95
151.01
150.988
150.859
150.656
150.495
150.581
151.174
152.529
154.819
158.064
162.101
166.599
171.109
175.163
178.364
180.463
181.367
181.103
179.766
177.473
174.365
170.612
166.431
162.077
157.821
153.895
150.433
147.465
143.654
140.201
143.698
145.993
147.079
147.692
148.119
148.424
148.645
148.814
148.95
149.068
149.176
149.279
149.379
149.474
149.567
149.658
149.748
149.84
149.935
150.031
150.128
150.224
150.316
150.402
150.481
150.556
150.635
150.727
150.831
150.935
151.005
150.997
150.885
150.689
150.512
150.544
151.039
152.26
154.394
157.491
161.419
165.869
170.407
174.562
177.92
180.206
181.302
181.22
180.046
177.896
174.907
171.244
167.114
162.77
158.482
154.492
150.949
147.953
143.997
139.882
143.13
145.694
146.964
147.621
148.063
148.383
148.615
148.79
148.93
149.05
149.159
149.263
149.363
149.459
149.552
149.643
149.734
149.826
149.92
150.016
150.113
150.209
150.302
150.389
150.469
150.544
150.622
150.711
150.814
150.92
150.997
151.004
150.909
150.723
150.533
150.517
150.923
152.013
153.994
156.941
160.751
165.142
169.696
173.941
177.449
179.918
181.207
181.309
180.301
178.298
175.432
171.863
167.792
163.465
159.151
155.1
151.477
148.447
144.356
139.664
142.57
145.338
146.824
147.549
148.006
148.339
148.583
148.766
148.91
149.032
149.143
149.247
149.348
149.444
149.538
149.629
149.719
149.811
149.905
150
150.097
150.194
150.288
150.376
150.456
150.532
150.609
150.696
150.798
150.904
150.988
151.009
150.931
150.756
150.558
150.501
150.823
151.789
153.619
156.413
160.098
164.42
168.977
173.301
176.95
179.599
181.081
181.369
180.531
178.677
175.938
172.469
168.463
164.16
159.827
155.72
152.016
148.95
144.729
139.523
142.04
144.934
146.651
147.472
147.949
148.294
148.55
148.74
148.889
149.014
149.126
149.231
149.332
149.429
149.523
149.615
149.705
149.796
149.89
149.985
150.082
150.179
150.273
150.362
150.444
150.52
150.597
150.682
150.781
150.888
150.977
151.011
150.949
150.787
150.586
150.494
150.739
151.587
153.27
155.909
159.463
163.705
168.253
172.644
176.426
179.25
180.924
181.401
180.736
179.035
176.427
173.062
169.126
164.853
160.508
156.351
152.568
149.46
145.115
139.426
141.559
144.491
146.441
147.385
147.893
148.248
148.514
148.714
148.868
148.996
149.109
149.215
149.316
149.414
149.509
149.6
149.691
149.782
149.875
149.97
150.067
150.164
150.258
150.348
150.431
150.509
150.585
150.668
150.764
150.871
150.966
151.01
150.965
150.818
150.616
150.494
150.67
151.406
152.944
155.429
158.846
162.998
167.526
171.972
175.877
178.872
180.737
181.403
180.914
179.37
176.896
173.64
169.781
165.545
161.193
156.992
153.132
149.979
145.514
139.343
141.136
144.027
146.19
147.284
147.835
148.201
148.478
148.686
148.846
148.977
149.092
149.198
149.3
149.399
149.494
149.586
149.676
149.767
149.86
149.955
150.051
150.148
150.244
150.335
150.419
150.497
150.572
150.654
150.748
150.854
150.952
151.008
150.979
150.846
150.647
150.502
150.615
151.246
152.644
154.974
158.249
162.303
166.797
171.286
175.304
178.464
180.518
181.376
181.066
179.681
177.346
174.202
170.426
166.234
161.883
157.642
153.708
150.507
145.926
139.26
140.768
143.553
145.898
147.163
147.775
148.154
148.439
148.657
148.823
148.958
149.074
149.182
149.285
149.384
149.479
149.571
149.662
149.753
149.845
149.939
150.036
150.133
150.229
150.321
150.406
150.485
150.56
150.64
150.733
150.837
150.938
151.003
150.989
150.873
150.68
150.515
150.572
151.104
152.367
154.543
157.673
161.619
166.069
170.588
174.71
178.027
180.268
181.318
181.19
179.968
177.775
174.749
171.06
166.918
162.575
158.302
154.296
151.044
146.349
139.181
140.448
143.084
145.569
147.018
147.71
148.107
148.4
148.626
148.8
148.938
149.057
149.165
149.269
149.368
149.464
149.557
149.648
149.738
149.83
149.924
150.02
150.118
150.214
150.306
150.393
150.472
150.548
150.627
150.717
150.82
150.924
150.996
150.997
150.897
150.712
150.534
150.541
150.981
152.113
154.136
157.118
160.949
165.343
169.881
174.095
177.562
179.987
181.231
181.286
180.231
178.183
175.279
171.682
167.597
163.268
158.969
154.896
151.592
146.784
139.116
140.17
142.627
145.207
146.844
147.637
148.06
148.36
148.595
148.775
148.918
149.039
149.149
149.253
149.353
149.449
149.542
149.634
149.724
149.816
149.909
150.005
150.102
150.199
150.292
150.379
150.46
150.536
150.614
150.702
150.804
150.908
150.988
151.003
150.919
150.744
150.556
150.52
150.875
151.882
153.755
156.586
160.294
164.622
169.166
173.461
177.071
179.676
181.112
181.354
180.469
178.57
175.791
172.292
168.27
163.962
159.643
155.507
152.149
147.23
139.074
139.927
142.188
144.819
146.64
147.553
148.012
148.32
148.562
148.75
148.898
149.021
149.132
149.236
149.337
149.434
149.528
149.619
149.71
149.801
149.894
149.99
150.087
150.183
150.277
150.366
150.448
150.524
150.601
150.688
150.787
150.892
150.978
151.006
150.939
150.776
150.582
150.509
150.785
151.673
153.399
156.076
159.656
163.907
168.445
172.809
176.553
179.335
180.963
181.393
180.681
178.935
176.286
172.889
168.935
164.656
160.323
156.129
152.717
147.687
139.052
139.718
141.772
144.412
146.403
147.454
147.962
148.28
148.528
148.723
148.876
149.003
149.115
149.22
149.321
149.419
149.513
149.605
149.695
149.787
149.879
149.975
150.071
150.168
150.263
150.352
150.435
150.512
150.589
150.673
150.771
150.876
150.967
151.006
150.956
150.806
150.61
150.506
150.711
151.486
153.067
155.591
159.036
163.2
167.72
172.142
176.011
178.963
180.783
181.403
180.867
179.276
176.761
173.471
169.592
165.347
161.008
156.762
153.296
148.155
139.046
139.544
141.383
143.991
146.135
147.336
147.908
148.24
148.493
148.695
148.854
148.984
149.098
149.204
149.306
149.404
149.498
149.59
149.681
149.772
149.865
149.959
150.056
150.153
150.248
150.339
150.422
150.5
150.577
150.659
150.754
150.859
150.955
151.005
150.97
150.834
150.64
150.51
150.65
151.319
152.759
155.129
158.435
162.503
166.994
171.461
175.445
178.562
180.571
181.383
181.026
179.595
177.217
174.039
170.239
166.036
161.697
157.405
153.886
148.634
139.048
139.401
141.024
143.565
145.836
147.196
147.848
148.2
148.458
148.666
148.832
148.965
149.081
149.188
149.29
149.388
149.484
149.576
149.667
149.758
149.85
149.944
150.041
150.138
150.233
150.325
150.41
150.488
150.564
150.646
150.739
150.843
150.941
151.001
150.981
150.861
150.671
150.52
150.602
151.171
152.475
154.692
157.855
161.818
166.267
170.768
174.856
178.132
180.329
181.333
181.158
179.89
177.652
174.59
170.876
166.721
162.389
158.057
154.487
149.124
139.056
139.288
140.697
143.138
145.51
147.032
147.78
148.16
148.423
148.637
148.808
148.946
149.064
149.171
149.274
149.373
149.469
149.562
149.652
149.743
149.835
149.929
150.025
150.122
150.218
150.31
150.397
150.476
150.552
150.632
150.723
150.826
150.927
150.995
150.99
150.886
150.702
150.535
150.566
151.041
152.215
154.28
157.296
161.147
165.543
170.065
174.247
177.674
180.056
181.253
181.261
180.16
178.067
175.125
171.502
167.401
163.083
158.717
155.099
149.625
139.07
139.201
140.403
142.718
145.16
146.842
147.701
148.118
148.388
148.606
148.783
148.926
149.046
149.155
149.258
149.358
149.454
149.547
149.638
149.729
149.82
149.914
150.01
150.107
150.203
150.296
150.383
150.464
150.54
150.619
150.708
150.809
150.912
150.988
150.997
150.908
150.734
150.555
150.541
150.929
151.977
153.892
156.759
160.49
164.822
169.353
173.619
177.19
179.751
181.142
181.337
180.405
178.461
175.643
172.115
168.074
163.777
159.384
155.721
150.138
139.093
139.135
140.143
142.31
144.789
146.624
147.607
148.073
148.353
148.575
148.758
148.905
149.028
149.138
149.242
149.342
149.439
149.532
149.624
149.714
149.806
149.899
149.995
150.091
150.188
150.282
150.37
150.451
150.528
150.606
150.693
150.793
150.897
150.979
151
150.928
150.764
150.579
150.525
150.834
151.762
153.529
156.244
159.849
164.108
168.636
172.973
176.679
179.417
181
181.383
180.624
178.832
176.143
172.716
168.741
164.472
160.058
156.353
150.661
139.126
139.087
139.915
141.918
144.403
146.379
147.496
148.025
148.319
148.544
148.731
148.884
149.01
149.121
149.226
149.326
149.424
149.518
149.609
149.7
149.791
149.884
149.979
150.076
150.173
150.267
150.356
150.439
150.516
150.593
150.679
150.776
150.881
150.968
151.002
150.946
150.794
150.605
150.518
150.753
151.567
153.191
155.753
159.226
163.401
167.914
172.311
176.143
179.053
180.827
181.401
180.817
179.181
176.624
173.302
169.4
165.164
160.737
156.995
151.196
139.171
139.056
139.718
141.546
144.006
146.107
147.366
147.97
148.284
148.512
148.704
148.862
148.991
149.105
149.21
149.311
149.408
149.503
149.595
149.686
149.777
149.869
149.964
150.061
150.158
150.252
150.343
150.426
150.504
150.581
150.664
150.76
150.864
150.957
151.001
150.961
150.823
150.633
150.519
150.687
151.393
152.876
155.286
158.622
162.704
167.19
171.635
175.583
178.659
180.623
181.388
180.984
179.507
177.086
173.874
170.049
165.854
161.42
157.647
151.743
139.226
139.04
139.55
141.198
143.604
145.809
147.215
147.907
148.249
148.481
148.676
148.839
148.972
149.088
149.193
149.295
149.393
149.488
149.581
149.671
149.762
149.855
149.949
150.045
150.142
150.238
150.329
150.413
150.492
150.569
150.651
150.744
150.848
150.944
150.998
150.973
150.85
150.663
150.526
150.634
151.239
152.586
154.843
158.038
162.018
166.465
170.946
175.001
178.236
180.388
181.346
181.123
179.808
177.528
174.431
170.689
166.541
162.107
158.307
152.3
139.286
139.04
139.41
140.875
143.202
145.489
147.04
147.834
148.212
148.45
148.648
148.815
148.953
149.07
149.177
149.279
149.378
149.473
149.566
149.657
149.748
149.84
149.934
150.03
150.127
150.223
150.315
150.4
150.48
150.556
150.637
150.729
150.831
150.93
150.994
150.983
150.874
150.693
150.538
150.594
151.103
152.319
154.425
157.474
161.345
165.742
170.247
174.398
177.785
180.122
181.273
181.234
180.086
177.949
174.971
171.317
167.222
162.797
158.975
152.869
139.342
139.055
139.297
140.58
142.805
145.148
146.841
147.748
148.172
148.42
148.619
148.791
148.933
149.053
149.161
149.263
149.362
149.458
149.552
149.643
149.733
149.825
149.919
150.015
150.112
150.208
150.3
150.387
150.467
150.544
150.624
150.714
150.815
150.916
150.987
150.99
150.897
150.724
150.555
150.564
150.985
152.074
154.031
156.932
160.686
165.023
169.54
173.776
177.307
179.825
181.169
181.317
180.338
178.35
175.494
171.934
167.898
163.487
159.65
153.448
139.386
139.084
139.209
140.312
142.416
144.79
146.617
147.646
148.129
148.39
148.591
148.765
148.912
149.035
149.144
149.247
149.347
149.443
149.537
149.628
149.719
149.81
149.904
149.999
150.096
150.193
150.286
150.374
150.455
150.532
150.611
150.699
150.799
150.901
150.979
150.995
150.918
150.754
150.577
150.544
150.884
151.852
153.661
156.413
160.043
164.309
168.825
173.135
176.803
179.498
181.035
181.371
180.565
178.728
176
172.538
168.568
164.178
160.332
154.038
139.411
139.123
139.145
140.074
142.04
144.42
146.369
147.527
148.079
148.359
148.563
148.74
148.89
149.017
149.128
149.231
149.331
149.428
149.522
149.614
149.705
149.796
149.889
149.984
150.081
150.177
150.271
150.36
150.443
150.52
150.598
150.684
150.782
150.885
150.969
150.997
150.936
150.783
150.601
150.533
150.798
151.651
153.316
155.917
159.417
163.602
168.106
172.479
176.274
179.14
180.869
181.396
180.765
179.083
176.487
173.129
169.229
164.867
161.019
154.639
139.413
139.169
139.105
139.864
141.68
144.04
146.097
147.389
148.022
148.328
148.535
148.714
148.868
148.998
149.111
149.215
149.316
149.413
149.508
149.6
149.69
149.781
149.874
149.969
150.065
150.162
150.257
150.347
150.43
150.508
150.585
150.67
150.766
150.869
150.958
150.997
150.951
150.811
150.627
150.529
150.726
151.47
152.995
155.444
158.809
162.904
167.385
171.807
175.721
178.754
180.672
181.391
180.939
179.416
176.955
173.705
169.882
165.555
161.71
155.249
139.393
139.215
139.085
139.684
141.339
143.655
145.803
147.23
147.956
148.296
148.507
148.687
148.845
148.979
149.094
149.199
149.3
149.398
149.493
149.585
149.676
149.767
149.859
149.954
150.05
150.147
150.242
150.333
150.417
150.496
150.573
150.656
150.75
150.853
150.946
150.996
150.965
150.838
150.655
150.533
150.668
151.309
152.698
154.995
158.221
162.217
166.662
171.123
175.145
178.338
180.445
181.356
181.086
179.725
177.403
174.266
170.525
166.239
162.405
155.869
139.356
139.257
139.083
139.533
141.021
143.269
145.488
147.049
147.878
148.261
148.48
148.661
148.822
148.959
149.077
149.183
149.284
149.383
149.478
149.571
149.662
149.752
149.845
149.939
150.035
150.132
150.227
150.319
150.404
150.484
150.561
150.642
150.735
150.837
150.933
150.992
150.975
150.863
150.685
150.542
150.622
151.167
152.424
154.571
157.653
161.543
165.941
170.429
174.548
177.894
180.186
181.29
181.205
180.009
177.831
174.81
171.157
166.919
163.102
156.498
139.307
139.29
139.095
139.41
140.727
142.887
145.155
146.845
147.786
148.222
148.454
148.635
148.798
148.939
149.059
149.167
149.269
149.367
149.463
149.556
149.647
149.738
149.83
149.924
150.019
150.116
150.212
150.304
150.391
150.471
150.548
150.629
150.719
150.82
150.919
150.986
150.983
150.886
150.714
150.557
150.588
151.043
152.173
154.171
157.107
160.882
165.222
169.725
173.931
177.423
179.896
181.194
181.295
180.269
178.237
175.339
171.778
167.594
163.801
157.135
139.255
139.312
139.116
139.313
140.458
142.512
144.808
146.619
147.678
148.178
148.427
148.609
148.773
148.918
149.041
149.15
149.253
149.352
149.448
149.541
149.633
149.724
149.815
149.909
150.004
150.101
150.197
150.29
150.378
150.459
150.536
150.616
150.704
150.804
150.905
150.979
150.989
150.907
150.744
150.576
150.563
150.935
151.943
153.795
156.583
160.236
164.509
169.014
173.296
176.926
179.576
181.067
181.357
180.503
178.622
175.849
172.387
168.263
164.5
157.781
139.205
139.321
139.144
139.24
140.217
142.147
144.449
146.37
147.553
148.127
148.4
148.584
148.749
148.896
149.023
149.134
149.237
149.336
149.433
149.527
149.618
149.709
149.801
149.894
149.989
150.086
150.182
150.276
150.364
150.446
150.524
150.603
150.69
150.788
150.889
150.97
150.992
150.926
150.773
150.598
150.548
150.844
151.736
153.443
156.081
159.607
163.802
168.298
172.645
176.403
179.226
180.909
181.389
180.711
178.985
176.342
172.982
168.924
165.198
158.433
139.162
139.318
139.172
139.189
140.004
141.797
144.081
146.099
147.409
148.067
148.371
148.559
148.724
148.874
149.004
149.117
149.221
149.321
149.418
149.512
149.604
149.695
149.786
149.879
149.974
150.07
150.167
150.261
150.351
150.434
150.512
150.59
150.675
150.772
150.874
150.959
150.993
150.942
150.801
150.622
150.541
150.767
151.549
153.116
155.603
158.997
163.104
167.579
171.979
175.857
178.847
180.72
181.391
180.892
179.325
176.816
173.563
169.577
165.894
159.093
139.128
139.306
139.199
139.157
139.819
141.464
143.709
145.808
147.245
147.997
148.34
148.535
148.7
148.852
148.985
149.1
149.205
149.305
149.403
149.497
149.59
149.681
149.772
149.864
149.959
150.055
150.152
150.246
150.337
150.421
150.5
150.577
150.661
150.756
150.858
150.948
150.992
150.956
150.827
150.649
150.542
150.703
151.381
152.812
155.149
158.405
162.416
166.858
171.299
175.287
178.438
180.499
181.364
181.046
179.641
177.27
174.129
170.22
166.587
159.757
139.103
139.287
139.222
139.14
139.661
141.152
143.336
145.499
147.06
147.915
148.306
148.512
148.676
148.829
148.965
149.083
149.189
149.29
149.388
149.483
149.575
149.666
149.757
149.849
149.943
150.04
150.136
150.232
150.323
150.408
150.487
150.565
150.647
150.74
150.842
150.936
150.989
150.967
150.852
150.677
150.548
150.653
151.233
152.531
154.718
157.833
161.74
166.139
170.609
174.696
178.002
180.248
181.306
181.173
179.932
177.704
174.679
170.853
167.276
160.427
139.089
139.263
139.24
139.135
139.529
140.861
142.966
145.174
146.854
147.818
148.267
148.488
148.652
148.805
148.944
149.065
149.173
149.274
149.372
149.468
149.561
149.652
149.743
149.835
149.928
150.024
150.121
150.217
150.309
150.395
150.475
150.552
150.634
150.725
150.826
150.922
150.985
150.976
150.876
150.705
150.56
150.614
151.103
152.273
154.312
157.282
161.078
165.421
169.909
174.085
177.538
179.966
181.217
181.271
180.199
178.117
175.213
171.475
167.959
161.101
139.083
139.237
139.251
139.139
139.421
140.595
142.602
144.835
146.626
147.706
148.222
148.464
148.629
148.782
148.923
149.047
149.156
149.258
149.357
149.453
149.546
149.637
149.728
149.82
149.913
150.009
150.106
150.202
150.294
150.382
150.463
150.54
150.62
150.71
150.81
150.908
150.978
150.983
150.897
150.734
150.576
150.585
150.989
152.037
153.93
156.753
160.43
164.709
169.201
173.456
177.047
179.653
181.098
181.34
180.441
178.508
175.73
172.085
168.636
161.778
139.085
139.211
139.256
139.148
139.336
140.354
142.248
144.485
146.378
147.577
148.169
148.439
148.607
148.759
148.902
149.028
149.14
149.243
149.342
149.438
149.531
149.623
149.714
149.805
149.898
149.994
150.09
150.187
150.28
150.368
150.45
150.528
150.607
150.695
150.794
150.893
150.97
150.987
150.916
150.763
150.596
150.566
150.892
151.823
153.572
156.247
159.798
164.002
168.488
172.81
176.531
179.311
180.947
181.379
180.656
178.878
176.229
172.683
169.306
162.457
139.095
139.187
139.256
139.161
139.271
140.138
141.907
144.128
146.11
147.429
148.107
148.412
148.585
148.736
148.88
149.009
149.123
149.227
149.326
149.423
149.517
149.609
149.699
149.791
149.884
149.978
150.075
150.171
150.265
150.354
150.437
150.516
150.594
150.681
150.778
150.878
150.96
150.989
150.933
150.79
150.619
150.555
150.809
151.629
153.238
155.763
159.184
163.304
167.772
172.148
175.991
178.938
180.765
181.389
180.845
179.224
176.709
173.266
169.967
163.137
139.112
139.166
139.25
139.174
139.224
139.948
141.582
143.766
145.822
147.261
148.034
148.382
148.564
148.713
148.858
148.99
149.106
149.211
149.311
149.408
149.502
149.594
149.685
149.776
149.869
149.963
150.06
150.156
150.251
150.341
150.425
150.503
150.582
150.666
150.762
150.863
150.95
150.989
150.948
150.817
150.643
150.552
150.741
151.455
152.927
155.303
158.589
162.615
167.054
171.474
175.428
178.537
180.552
181.369
181.006
179.547
177.169
173.835
170.619
163.817
139.134
139.149
139.24
139.186
139.191
139.783
141.275
143.404
145.518
147.074
147.948
148.348
148.543
148.692
148.836
148.97
149.088
149.195
149.295
149.392
149.487
149.58
149.671
149.762
149.854
149.948
150.044
150.141
150.236
150.327
150.412
150.491
150.569
150.652
150.746
150.847
150.938
150.987
150.96
150.842
150.67
150.555
150.685
151.301
152.639
154.867
158.013
161.938
166.336
170.788
174.843
178.107
180.309
181.319
181.14
179.845
177.61
174.388
171.26
164.497
139.161
139.137
139.227
139.197
139.17
139.642
140.988
143.044
145.199
146.867
147.848
148.308
148.522
148.67
148.814
148.949
149.07
149.179
149.28
149.377
149.472
149.565
149.656
149.747
149.839
149.933
150.029
150.126
150.221
150.313
150.399
150.479
150.557
150.639
150.731
150.831
150.925
150.983
150.969
150.865
150.697
150.564
150.641
151.164
152.375
154.455
157.458
161.274
165.62
170.092
174.238
177.65
180.034
181.238
181.245
180.119
178.03
174.926
171.89
165.176
139.192
139.131
139.212
139.205
139.158
139.524
140.724
142.69
144.868
146.639
147.732
148.262
148.5
148.65
148.792
148.929
149.052
149.162
149.264
149.362
149.457
149.551
149.642
149.733
149.825
149.918
150.014
150.11
150.206
150.299
150.385
150.466
150.544
150.625
150.715
150.815
150.911
150.977
150.977
150.887
150.725
150.577
150.608
151.045
152.132
154.066
156.925
160.624
164.908
169.388
173.614
177.167
179.729
181.126
181.322
180.368
178.428
175.446
172.507
165.852
139.224
139.131
139.197
139.209
139.154
139.427
140.482
142.346
144.526
146.392
147.599
148.207
148.476
148.63
148.77
148.907
149.033
149.145
149.248
149.347
149.442
149.536
149.628
149.718
149.81
149.903
149.998
150.095
150.191
150.284
150.372
150.454
150.532
150.612
150.701
150.799
150.897
150.97
150.982
150.906
150.753
150.595
150.584
150.941
151.911
153.702
156.413
159.99
164.202
168.678
172.973
176.657
179.393
180.983
181.369
180.591
178.805
175.949
173.111
166.524
139.256
139.136
139.183
139.211
139.154
139.348
140.264
142.012
144.178
146.126
147.449
148.143
148.45
148.611
148.749
148.886
149.014
149.128
149.232
149.331
149.427
149.521
149.613
149.704
149.795
149.888
149.983
150.08
150.176
150.27
150.358
150.441
150.52
150.599
150.686
150.783
150.882
150.961
150.985
150.924
150.78
150.616
150.57
150.853
151.711
153.361
155.925
159.373
163.503
167.964
172.317
176.124
179.028
180.808
181.387
180.786
179.158
176.434
173.701
167.191
139.284
139.147
139.171
139.209
139.158
139.287
140.069
141.694
143.826
145.842
147.279
148.067
148.42
148.593
148.728
148.865
148.995
149.111
149.216
149.316
149.412
149.507
149.599
149.69
149.781
149.873
149.968
150.064
150.161
150.255
150.345
150.428
150.507
150.586
150.672
150.767
150.867
150.951
150.985
150.939
150.806
150.639
150.563
150.779
151.531
153.044
155.459
158.774
162.814
167.248
171.647
175.567
178.634
180.603
181.374
180.955
179.488
176.899
174.276
167.853
139.308
139.163
139.162
139.205
139.162
139.24
139.897
141.392
143.473
145.543
147.09
147.978
148.386
148.574
148.709
148.843
148.975
149.093
149.2
149.301
149.397
149.492
149.584
149.675
149.766
149.859
149.953
150.049
150.146
150.24
150.331
150.415
150.495
150.574
150.658
150.752
150.852
150.94
150.984
150.952
150.832
150.664
150.563
150.719
151.37
152.75
155.017
158.194
162.136
166.532
170.965
174.988
178.211
180.367
181.332
181.096
179.795
177.345
174.835
168.509
139.326
139.182
139.157
139.199
139.168
139.206
139.748
141.109
143.123
145.23
146.882
147.875
148.346
148.555
148.69
148.822
148.954
149.075
149.184
149.285
149.382
149.477
149.57
149.661
149.752
149.844
149.938
150.034
150.13
150.225
150.317
150.402
150.483
150.561
150.644
150.736
150.836
150.928
150.981
150.962
150.855
150.69
150.569
150.67
151.227
152.478
154.599
157.635
161.47
165.817
170.273
174.389
177.761
180.099
181.258
181.209
180.076
177.771
175.378
169.157
139.34
139.203
139.156
139.192
139.172
139.182
139.62
140.845
142.778
144.905
146.655
147.757
148.299
148.534
148.672
148.802
148.934
149.057
149.168
149.269
149.367
149.462
149.555
149.647
149.737
149.829
149.923
150.018
150.115
150.211
150.303
150.389
150.47
150.548
150.63
150.721
150.82
150.915
150.976
150.97
150.877
150.717
150.58
150.632
151.102
152.229
154.204
157.097
160.818
165.106
169.573
173.771
177.284
179.802
181.154
181.293
180.332
178.175
175.903
169.797
139.348
139.225
139.158
139.186
139.176
139.166
139.512
140.603
142.441
144.571
146.41
147.622
148.242
148.512
148.654
148.782
148.913
149.038
149.151
149.254
149.352
149.447
149.54
149.632
149.723
149.815
149.908
150.003
150.1
150.196
150.288
150.376
150.458
150.536
150.617
150.706
150.804
150.901
150.969
150.976
150.897
150.744
150.595
150.605
150.993
152.002
153.833
156.581
160.181
164.401
168.866
173.136
176.782
179.473
181.018
181.348
180.562
178.557
176.41
170.428
139.353
139.246
139.165
139.18
139.178
139.156
139.423
140.382
142.114
144.231
146.146
147.469
148.176
148.486
148.638
148.762
148.892
149.019
149.134
149.238
149.337
149.432
149.526
149.618
149.709
149.8
149.893
149.988
150.084
150.18
150.274
150.362
150.445
150.524
150.604
150.691
150.789
150.886
150.961
150.98
150.915
150.771
150.614
150.586
150.899
151.795
153.486
156.087
159.561
163.702
168.155
172.484
176.255
179.116
180.851
181.373
180.766
178.918
176.898
171.048
139.352
139.266
139.174
139.175
139.179
139.151
139.349
140.183
141.801
143.888
145.867
147.298
148.098
148.457
148.621
148.744
148.872
148.999
149.116
149.222
149.321
149.417
149.511
149.603
149.694
149.786
149.878
149.973
150.069
150.165
150.259
150.349
150.432
150.511
150.591
150.677
150.773
150.872
150.952
150.982
150.93
150.797
150.635
150.576
150.82
151.608
153.162
155.616
158.959
163.012
167.442
171.819
175.705
178.729
180.654
181.368
180.942
179.254
177.366
171.657
139.342
139.286
139.187
139.172
139.179
139.149
139.29
140.005
141.503
143.543
145.572
147.109
148.007
148.422
148.604
148.726
148.852
148.979
149.098
149.206
149.306
149.402
149.496
149.589
149.68
149.771
149.863
149.958
150.054
150.15
150.245
150.335
150.419
150.499
150.578
150.663
150.757
150.856
150.941
150.981
150.944
150.822
150.659
150.572
150.754
151.441
152.862
155.168
158.376
162.333
166.727
171.142
175.132
178.313
180.425
181.333
181.091
179.568
177.814
172.254
139.323
139.303
139.202
139.172
139.178
139.149
139.244
139.849
141.223
143.201
145.265
146.901
147.902
148.381
148.586
148.71
148.832
148.959
149.08
149.189
149.29
149.387
149.482
149.574
149.665
149.757
149.849
149.943
150.039
150.135
150.23
150.321
150.406
150.486
150.565
150.649
150.742
150.841
150.93
150.979
150.955
150.845
150.684
150.575
150.701
151.292
152.584
154.744
157.813
161.666
166.015
170.454
174.539
177.87
180.165
181.267
181.211
179.856
178.241
172.839
139.293
139.316
139.219
139.173
139.177
139.151
139.209
139.712
140.96
142.863
144.946
146.674
147.78
148.332
148.567
148.694
148.813
148.939
149.061
149.173
149.275
149.372
149.467
149.56
149.651
149.742
149.834
149.928
150.023
150.12
150.215
150.307
150.393
150.474
150.553
150.635
150.727
150.825
150.917
150.975
150.964
150.867
150.709
150.584
150.658
151.161
152.328
154.343
157.27
161.011
165.303
169.756
173.925
177.399
179.874
181.169
181.302
180.12
178.647
173.41
139.255
139.325
139.238
139.178
139.176
139.153
139.183
139.595
140.718
142.535
144.622
146.433
147.645
148.276
148.546
148.679
148.794
148.919
149.043
149.156
149.259
149.357
149.452
149.545
149.637
149.728
149.819
149.913
150.008
150.104
150.2
150.293
150.38
150.462
150.54
150.622
150.712
150.81
150.904
150.969
150.971
150.887
150.735
150.596
150.627
151.046
152.095
153.968
156.752
160.376
164.603
169.059
173.301
176.909
179.557
181.044
181.366
180.358
179.027
173.963
139.208
139.326
139.257
139.186
139.175
139.155
139.164
139.494
140.49
142.206
144.278
146.162
147.483
148.203
148.519
148.663
148.776
148.899
149.023
149.138
149.243
149.341
149.437
149.53
149.622
149.713
149.804
149.897
149.992
150.089
150.185
150.278
150.366
150.448
150.527
150.608
150.696
150.793
150.89
150.961
150.975
150.906
150.762
150.613
150.604
150.946
151.877
153.606
156.239
159.735
163.883
168.326
172.631
176.367
179.19
180.874
181.395
180.572
179.395
174.52
139.162
139.326
139.274
139.194
139.175
139.157
139.152
139.416
140.308
141.935
143.99
145.932
147.345
148.141
148.497
148.651
148.762
148.882
149.006
149.123
149.229
149.328
149.424
149.517
149.609
149.701
149.792
149.885
149.979
150.076
150.172
150.265
150.354
150.438
150.517
150.597
150.684
150.78
150.877
150.954
150.978
150.921
150.785
150.629
150.589
150.868
151.704
153.313
155.822
159.209
163.288
167.718
172.072
175.912
178.879
180.726
181.411
180.743
179.693
174.976
139.06
139.3
139.297
139.216
139.179
139.161
139.142
139.315
140.029
141.474
143.447
145.453
147.022
147.978
148.434
148.625
148.737
148.851
148.974
149.093
149.203
149.303
149.4
149.494
149.586
149.677
149.768
149.861
149.955
150.051
150.147
150.242
150.332
150.417
150.497
150.576
150.661
150.755
150.853
150.937
150.977
150.941
150.823
150.666
150.584
150.764
151.439
152.836
155.109
158.278
162.198
166.567
170.974
174.977
178.194
180.34
181.339
180.972
180.174
175.782
)
;

boundaryField
{
    bottomwall
    {
        type            opaque;
        refValue        nonuniform List<scalar> 
60
(
143.312
145.501
146.741
147.505
148.003
148.343
148.585
148.768
148.912
149.034
149.145
149.25
149.351
149.447
149.541
149.631
149.722
149.814
149.907
150.003
150.1
150.197
150.291
150.378
150.459
150.534
150.611
150.698
150.8
150.908
150.993
151.014
150.932
150.751
150.547
150.487
150.815
151.8
153.663
156.498
160.224
164.578
169.15
173.468
177.088
179.691
181.121
181.363
180.486
178.602
175.838
172.347
168.323
164.009
159.674
155.578
151.904
148.71
145.812
142.59
)
;
        refGradient     uniform 0;