/*--------------------------------*- C++ -*----------------------------------*\
| =========                 |                                                 |
| \\      /  F ield         | OpenFOAM: The Open Source CFD Toolbox           |
|  \\    /   O peration     | Version:  2406                                  |
|   \\  /    A nd           | Website:  www.openfoam.com                      |
|    \\/     M anipulation  |                                                 |
\*---------------------------------------------------------------------------*/
FoamFile
{
    version     2.0;
    format      ascii;
    arch        "LSB;label=32;scalar=64";
    class       volScalarField;
    location    "5000";
    object      ILambda_2_0;
}
// * * * * * * * * * * * * * * * * * * * * * * * * * * * * * * * * * * * * * //

dimensions      [1 0 -3 0 0 0 0];

internalField   nonuniform List<scalar> 
3600
(
141.036
144.217
146.167
147.233
147.828
148.204
148.473
148.68
148.843
148.976
149.092
149.199
149.301
149.399
149.494
149.586
149.677
149.768
149.86
149.955
150.052
150.149
150.244
150.335
150.419
150.497
150.573
150.654
150.748
150.854
150.952
151.008
150.979
150.847
150.649
150.505
150.622
151.258
152.663
155
158.281
162.337
166.83
171.313
175.321
178.466
180.506
181.352
181.034
179.645
177.309
174.166
170.391
166.201
161.854
157.617
153.714
150.27
147.302
143.565
139.231
141.339
143.929
145.949
147.186
147.859
148.238
148.488
148.681
148.84
148.975
149.092
149.199
149.301
149.399
149.494
149.586
149.677
149.768
149.861
149.955
150.052
150.148
150.244
150.334
150.418
150.497
150.573
150.656
150.751
150.854
150.948
150.997
150.965
150.837
150.653
150.534
150.681
151.343
152.762
155.092
158.346
162.356
166.796
171.23
175.205
178.34
180.39
181.256
180.959
179.586
177.261
174.132
170.376
166.211
161.889
157.674
153.751
150.53
145.959
138.918
139.554
141.461
143.817
145.808
147.124
147.867
148.266
148.508
148.688
148.84
148.973
149.092
149.2
149.302
149.399
149.494
149.586
149.677
149.768
149.861
149.955
150.052
150.148
150.243
150.334
150.418
150.496
150.574
150.657
150.753
150.856
150.947
150.992
150.956
150.826
150.646
150.536
150.698
151.376
152.805
155.137
158.381
162.372
166.786
171.196
175.154
178.285
180.342
181.221
180.936
179.571
177.25
174.124
170.372
166.215
161.914
157.646
154.124
148.824
139.033
138.935
139.745
141.548
143.755
145.702
147.062
147.86
148.288
148.53
148.699
148.843
148.973
149.091
149.2
149.302
149.399
149.494
149.586
149.677
149.768
149.861
149.956
150.052
150.149
150.243
150.333
150.417
150.496
150.574
150.659
150.755
150.858
150.947
150.988
150.946
150.812
150.632
150.529
150.702
151.395
152.837
155.176
158.416
162.394
166.789
171.178
175.121
178.247
180.309
181.198
180.923
179.564
177.244
174.118
170.365
166.23
161.84
158.096
152.139
139.168
138.933
138.998
139.884
141.614
143.715
145.619
147.003
147.846
148.302
148.549
148.712
148.847
148.973
149.09
149.199
149.302
149.4
149.494
149.586
149.677
149.768
149.861
149.956
150.052
150.149
150.243
150.333
150.416
150.495
150.574
150.661
150.758
150.861
150.947
150.983
150.935
150.796
150.615
150.519
150.705
151.413
152.869
155.214
158.452
162.419
166.795
171.163
175.092
178.212
180.278
181.177
180.91
179.556
177.238
174.107
170.38
166.125
162.344
155.868
139.272
139.099
138.894
139.062
139.991
141.667
143.686
145.551
146.948
147.827
148.31
148.567
148.725
148.853
148.974
149.089
149.199
149.302
149.4
149.494
149.586
149.677
149.769
149.861
149.956
150.052
150.149
150.243
150.332
150.416
150.495
150.575
150.663
150.761
150.864
150.947
150.977
150.923
150.779
150.599
150.509
150.707
151.431
152.9
155.253
158.489
162.443
166.801
171.15
175.065
178.18
180.249
181.156
180.898
179.549
177.226
174.125
170.255
166.671
159.917
139.373
139.257
139.046
138.878
139.122
140.077
141.71
143.664
145.493
146.898
147.805
148.314
148.582
148.739
148.861
148.976
149.089
149.198
149.302
149.4
149.494
149.586
149.677
149.769
149.862
149.956
150.053
150.149
150.242
150.332
150.415
150.494
150.576
150.665
150.764
150.866
150.946
150.971
150.91
150.763
150.583
150.5
150.71
151.449
152.931
155.291
158.525
162.468
166.807
171.138
175.038
178.148
180.22
181.135
180.885
179.534
177.248
173.987
170.832
164.127
139.452
139.378
139.232
139.005
138.877
139.177
140.15
141.747
143.647
145.444
146.851
147.782
148.315
148.595
148.752
148.869
148.978
149.089
149.197
149.301
149.4
149.494
149.586
149.677
149.769
149.862
149.957
150.053
150.149
150.242
150.331
150.414
150.494
150.576
150.667
150.767
150.868
150.945
150.965
150.898
150.746
150.567
150.491
150.713
151.467
152.962
155.329
158.56
162.492
166.814
171.126
175.013
178.117
180.191
181.115
180.864
179.556
177.102
174.578
168.292
139.459
139.449
139.374
139.205
138.975
138.883
139.229
140.213
141.779
143.633
145.401
146.808
147.759
148.313
148.606
148.765
148.877
148.982
149.089
149.196
149.3
149.399
149.494
149.586
149.677
149.769
149.862
149.957
150.053
150.149
150.242
150.33
150.414
150.494
150.577
150.669
150.77
150.87
150.944
150.958
150.886
150.73
150.552
150.482
150.717
151.485
152.993
155.366
158.595
162.515
166.82
171.114
174.988
178.086
180.165
181.086
180.882
179.406
177.681
172.181
139.374
139.447
139.449
139.365
139.178
138.953
138.894
139.276
140.268
141.807
143.621
145.363
146.768
147.735
148.31
148.615
148.777
148.886
148.986
149.09
149.196
149.3
149.399
149.494
149.586
149.677
149.769
149.862
149.957
150.053
150.149
150.242
150.33
150.413
150.494
150.578
150.671
150.773
150.872
150.942
150.951
150.873
150.714
150.537
150.474
150.721
151.503
153.023
155.402
158.629
162.538
166.826
171.103
174.963
178.059
180.129
181.097
180.732
179.94
175.567
139.239
139.367
139.443
139.446
139.352
139.154
138.937
138.909
139.321
140.317
141.833
143.611
145.329
146.731
147.711
148.304
148.622
148.789
148.896
148.991
149.091
149.195
149.299
149.398
149.494
149.586
149.678
149.769
149.862
149.957
150.053
150.149
150.241
150.329
150.412
150.494
150.579
150.674
150.776
150.873
150.94
150.944
150.861
150.699
150.523
150.467
150.725
151.521
153.053
155.438
158.662
162.56
166.832
171.092
174.942
178.022
180.133
180.951
181.185
178.239
139.123
139.245
139.363
139.439
139.441
139.336
139.131
138.925
138.925
139.363
140.362
141.856
143.603
145.298
146.696
147.688
148.297
148.628
148.799
148.905
148.996
149.093
149.195
149.298
149.398
149.494
149.586
149.678
149.769
149.862
149.957
150.053
150.148
150.241
150.329
150.412
150.494
150.581
150.676
150.778
150.874
150.938
150.937
150.848
150.683
150.509
150.46
150.73
151.539
153.083
155.473
158.695
162.582
166.837
171.083
174.912
178.022
180.002
181.293
180.011
139.067
139.136
139.247
139.361
139.436
139.432
139.318
139.11
138.917
138.943
139.402
140.403
141.877
143.596
145.269
146.663
147.665
148.289
148.632
148.809
148.914
149.002
149.095
149.195
149.297
149.397
149.493
149.586
149.678
149.77
149.863
149.958
150.053
150.148
150.24
150.328
150.411
150.494
150.582
150.678
150.781
150.876
150.936
150.93
150.836
150.668
150.495
150.453
150.735
151.557
153.112
155.508
158.727
162.603
166.845
171.067
174.912
177.917
180.208
180.734
139.067
139.077
139.143
139.249
139.36
139.432
139.422
139.3
139.091
138.912
138.961
139.439
140.441
141.897
143.589
145.243
146.632
147.642
148.281
148.636
148.818
148.923
149.008
149.097
149.195
149.296
149.396
149.493
149.586
149.678
149.77
149.863
149.958
150.053
150.148
150.24
150.327
150.411
150.495
150.583
150.68
150.783
150.877
150.933
150.922
150.823
150.653
150.482
150.447
150.74
151.576
153.141
155.542
158.758
162.625
166.846
171.073
174.846
177.972
180.322
139.093
139.069
139.083
139.148
139.251
139.359
139.428
139.411
139.282
139.074
138.909
138.98
139.474
140.476
141.915
143.584
145.22
146.603
147.62
148.272
148.638
148.827
148.932
149.014
149.1
149.195
149.295
149.396
149.492
149.586
149.678
149.77
149.863
149.958
150.053
150.148
150.24
150.327
150.411
150.495
150.584
150.683
150.786
150.877
150.93
150.914
150.811
150.638
150.469
150.442
150.746
151.594
153.17
155.576
158.79
162.643
166.86
171.055
174.747
178.771
139.117
139.089
139.071
139.089
139.154
139.254
139.359
139.423
139.399
139.264
139.058
138.908
138.999
139.507
140.509
141.932
143.579
145.197
146.575
147.598
148.262
148.639
148.834
148.94
149.02
149.103
149.196
149.295
149.395
149.492
149.586
149.678
149.77
149.863
149.958
150.054
150.148
150.239
150.326
150.41
150.495
150.586
150.685
150.788
150.878
150.927
150.906
150.799
150.624
150.457
150.436
150.751
151.612
153.198
155.609
158.818
162.663
166.894
170.811
176.184
139.129
139.112
139.087
139.073
139.093
139.159
139.257
139.359
139.418
139.386
139.247
139.044
138.908
139.018
139.539
140.539
141.948
143.574
145.177
146.549
147.577
148.252
148.64
148.841
148.949
149.027
149.106
149.197
149.294
149.394
149.491
149.586
149.678
149.77
149.864
149.958
150.054
150.148
150.239
150.326
150.41
150.496
150.587
150.687
150.79
150.878
150.924
150.898
150.786
150.61
150.445
150.431
150.758
151.63
153.227
155.643
158.839
162.747
166.524
172.775
139.138
139.128
139.109
139.085
139.075
139.098
139.163
139.261
139.359
139.412
139.373
139.23
139.032
138.909
139.036
139.569
140.568
141.964
143.57
145.157
146.524
147.557
148.241
148.639
148.847
148.957
149.033
149.11
149.198
149.294
149.393
149.491
149.586
149.678
149.771
149.864
149.959
150.054
150.147
150.238
150.325
150.41
150.496
150.589
150.69
150.792
150.878
150.921
150.89
150.774
150.596
150.433
150.427
150.764
151.648
153.257
155.658
158.964
162.28
168.849
139.154
139.139
139.125
139.106
139.084
139.077
139.102
139.168
139.264
139.359
139.405
139.36
139.213
139.021
138.911
139.055
139.598
140.596
141.978
143.567
145.139
146.501
147.537
148.231
148.639
148.853
148.965
149.039
149.114
149.199
149.294
149.392
149.49
149.585
149.678
149.771
149.864
149.959
150.054
150.147
150.238
150.325
150.41
150.497
150.591
150.692
150.794
150.878
150.917
150.882
150.762
150.582
150.422
150.423
150.77
151.671
153.261
155.808
158.439
164.759
139.189
139.157
139.139
139.123
139.103
139.083
139.078
139.106
139.173
139.267
139.358
139.398
139.346
139.197
139.011
138.914
139.073
139.626
140.622
141.992
143.564
145.122
146.478
147.518
148.22
148.637
148.858
148.972
149.046
149.118
149.2
149.294
149.392
149.489
149.585
149.678
149.771
149.864
149.959
150.054
150.147
150.237
150.324
150.41
150.498
150.592
150.694
150.796
150.878
150.913
150.874
150.75
150.568
150.411
150.418
150.782
151.66
153.42
155.265
160.858
139.247
139.192
139.158
139.138
139.121
139.101
139.082
139.08
139.11
139.177
139.27
139.357
139.391
139.333
139.183
139.002
138.918
139.091
139.652
140.646
142.005
143.561
145.106
146.456
147.499
148.209
148.635
148.863
148.979
149.052
149.122
149.202
149.293
149.391
149.489
149.584
149.678
149.771
149.865
149.959
150.054
150.147
150.237
150.324
150.41
150.498
150.594
150.697
150.798
150.878
150.909
150.865
150.737
150.555
150.399
150.421
150.758
151.812
152.9
157.438
139.323
139.249
139.194
139.159
139.138
139.119
139.099
139.082
139.082
139.113
139.181
139.273
139.355
139.383
139.32
139.168
138.994
138.923
139.109
139.678
140.67
142.017
143.558
145.091
146.436
147.48
148.198
148.633
148.867
148.986
149.059
149.126
149.204
149.294
149.39
149.488
149.584
149.678
149.771
149.865
149.959
150.054
150.147
150.236
150.323
150.41
150.499
150.596
150.699
150.799
150.878
150.905
150.857
150.726
150.54
150.396
150.387
150.889
151.349
154.691
139.404
139.323
139.251
139.196
139.16
139.137
139.117
139.097
139.081
139.084
139.117
139.186
139.276
139.354
139.375
139.307
139.155
138.987
138.927
139.126
139.702
140.693
142.029
143.556
145.077
146.416
147.462
148.187
148.63
148.87
148.993
149.065
149.13
149.206
149.294
149.39
149.487
149.584
149.678
149.772
149.865
149.959
150.054
150.146
150.236
150.323
150.41
150.5
150.597
150.701
150.801
150.877
150.901
150.849
150.712
150.534
150.358
150.492
150.508
152.692
139.471
139.401
139.323
139.252
139.198
139.161
139.136
139.115
139.095
139.081
139.085
139.121
139.19
139.278
139.352
139.367
139.294
139.142
138.98
138.932
139.143
139.726
140.714
142.041
143.554
145.063
146.397
147.445
148.176
148.627
148.873
148.999
149.071
149.135
149.208
149.294
149.389
149.486
149.583
149.678
149.772
149.865
149.96
150.054
150.146
150.236
150.323
150.41
150.501
150.599
150.703
150.802
150.876
150.897
150.838
150.706
150.498
150.434
150.203
151.406
139.508
139.467
139.4
139.324
139.254
139.2
139.162
139.135
139.113
139.093
139.081
139.087
139.124
139.194
139.28
139.349
139.359
139.281
139.13
138.974
138.938
139.16
139.749
140.735
142.052
143.552
145.05
146.378
147.428
148.165
148.624
148.876
149.005
149.077
149.139
149.21
149.295
149.389
149.486
149.583
149.678
149.772
149.866
149.96
150.054
150.146
150.235
150.322
150.41
150.502
150.601
150.705
150.804
150.875
150.891
150.835
150.676
150.547
150.237
150.714
139.504
139.503
139.465
139.4
139.326
139.256
139.201
139.162
139.135
139.112
139.092
139.081
139.089
139.128
139.198
139.282
139.346
139.35
139.269
139.118
138.969
138.944
139.176
139.771
140.755
142.062
143.55
145.037
146.36
147.411
148.154
148.62
148.879
149.01
149.084
149.144
149.213
149.295
149.388
149.485
149.582
149.677
149.772
149.866
149.96
150.054
150.145
150.235
150.322
150.41
150.503
150.603
150.707
150.805
150.873
150.89
150.813
150.703
150.43
150.454
139.459
139.499
139.5
139.463
139.4
139.327
139.258
139.203
139.163
139.134
139.11
139.091
139.081
139.091
139.131
139.201
139.283
139.343
139.342
139.257
139.107
138.965
138.95
139.192
139.792
140.774
142.073
143.548
145.026
146.343
147.395
148.143
148.616
148.881
149.016
149.089
149.148
149.215
149.296
149.388
149.484
149.581
149.677
149.772
149.866
149.96
150.053
150.145
150.234
150.322
150.41
150.504
150.605
150.709
150.805
150.875
150.877
150.825
150.649
150.458
139.381
139.456
139.497
139.498
139.462
139.4
139.328
139.26
139.204
139.163
139.133
139.109
139.089
139.081
139.093
139.135
139.205
139.285
139.34
139.333
139.245
139.096
138.961
138.956
139.208
139.813
140.792
142.083
143.547
145.014
146.327
147.379
148.132
148.612
148.882
149.021
149.095
149.153
149.218
149.297
149.388
149.484
149.581
149.677
149.772
149.866
149.96
150.053
150.145
150.234
150.322
150.411
150.505
150.607
150.711
150.808
150.869
150.88
150.813
150.581
139.288
139.381
139.454
139.495
139.496
139.461
139.4
139.329
139.261
139.206
139.164
139.133
139.108
139.088
139.081
139.095
139.138
139.208
139.285
139.336
139.325
139.234
139.086
138.958
138.962
139.223
139.832
140.81
142.092
143.546
145.003
146.311
147.363
148.121
148.608
148.884
149.025
149.101
149.158
149.221
149.298
149.387
149.483
149.58
149.677
149.772
149.866
149.96
150.053
150.145
150.234
150.321
150.411
150.506
150.608
150.714
150.807
150.867
150.89
150.72
139.196
139.29
139.381
139.453
139.493
139.494
139.46
139.4
139.33
139.263
139.207
139.164
139.132
139.106
139.087
139.081
139.097
139.142
139.211
139.286
139.332
139.316
139.222
139.077
138.955
138.968
139.238
139.852
140.827
142.102
143.545
144.993
146.296
147.348
148.111
148.603
148.885
149.03
149.106
149.162
149.224
149.299
149.387
149.482
149.58
149.676
149.772
149.866
149.96
150.053
150.144
150.233
150.321
150.412
150.507
150.61
150.716
150.805
150.885
150.817
139.118
139.199
139.291
139.38
139.451
139.491
139.492
139.459
139.4
139.331
139.264
139.208
139.165
139.131
139.105
139.087
139.082
139.099
139.145
139.214
139.286
139.328
139.308
139.212
139.068
138.952
138.975
139.253
139.871
140.844
142.111
143.544
144.983
146.281
147.333
148.1
148.598
148.885
149.034
149.112
149.167
149.226
149.3
149.387
149.482
149.579
149.676
149.772
149.867
149.961
150.053
150.144
150.233
150.321
150.412
150.508
150.613
150.713
150.819
150.851
139.063
139.121
139.2
139.291
139.38
139.45
139.489
139.49
139.458
139.4
139.332
139.266
139.209
139.165
139.131
139.104
139.086
139.082
139.101
139.148
139.217
139.286
139.324
139.299
139.201
139.06
138.95
138.981
139.268
139.889
140.86
142.12
143.543
144.974
146.266
147.319
148.089
148.593
148.886
149.038
149.117
149.171
149.229
149.302
149.387
149.481
149.579
149.676
149.772
149.867
149.961
150.053
150.144
150.233
150.321
150.412
150.511
150.612
150.721
150.825
139.031
139.065
139.123
139.202
139.292
139.379
139.448
139.487
139.489
139.457
139.4
139.333
139.267
139.21
139.165
139.13
139.103
139.085
139.083
139.103
139.151
139.219
139.286
139.32
139.291
139.191
139.052
138.948
138.988
139.282
139.906
140.875
142.128
143.542
144.964
146.252
147.305
148.079
148.588
148.886
149.042
149.122
149.176
149.233
149.303
149.388
149.481
149.578
149.675
149.772
149.867
149.961
150.053
150.143
150.232
150.321
150.413
150.511
150.611
150.757
139.021
139.033
139.067
139.124
139.203
139.292
139.379
139.447
139.485
139.487
139.456
139.4
139.334
139.268
139.211
139.166
139.13
139.102
139.085
139.083
139.105
139.154
139.221
139.286
139.315
139.282
139.181
139.044
138.947
138.995
139.296
139.924
140.891
142.136
143.541
144.955
146.239
147.291
148.069
148.583
148.886
149.046
149.127
149.181
149.236
149.305
149.388
149.48
149.577
149.675
149.771
149.867
149.961
150.053
150.143
150.232
150.321
150.415
150.503
150.665
139.026
139.022
139.034
139.068
139.126
139.204
139.293
139.378
139.445
139.483
139.485
139.455
139.4
139.335
139.269
139.212
139.166
139.129
139.101
139.084
139.084
139.108
139.157
139.224
139.285
139.311
139.274
139.172
139.037
138.946
139.001
139.309
139.94
140.905
142.145
143.541
144.947
146.226
147.277
148.058
148.578
148.886
149.049
149.132
149.185
149.239
149.306
149.388
149.48
149.577
149.675
149.771
149.867
149.961
150.053
150.143
150.231
150.323
150.403
150.565
139.041
139.026
139.022
139.035
139.069
139.127
139.205
139.293
139.377
139.444
139.481
139.484
139.454
139.4
139.335
139.271
139.213
139.166
139.129
139.101
139.084
139.085
139.11
139.16
139.225
139.284
139.306
139.266
139.162
139.03
138.945
139.008
139.323
139.957
140.92
142.152
143.54
144.939
146.213
147.264
148.048
148.573
148.886
149.052
149.137
149.19
149.242
149.308
149.388
149.48
149.576
149.674
149.771
149.867
149.961
150.053
150.142
150.234
150.309
150.466
139.063
139.041
139.026
139.022
139.035
139.07
139.128
139.206
139.293
139.377
139.443
139.479
139.482
139.453
139.4
139.336
139.272
139.214
139.166
139.128
139.1
139.084
139.086
139.112
139.162
139.227
139.283
139.301
139.258
139.153
139.024
138.944
139.015
139.336
139.972
140.933
142.16
143.54
144.931
146.2
147.251
148.038
148.568
148.885
149.055
149.141
149.194
149.245
149.309
149.389
149.479
149.576
149.674
149.771
149.867
149.961
150.052
150.145
150.219
150.37
139.088
139.063
139.041
139.026
139.022
139.036
139.071
139.13
139.207
139.293
139.376
139.441
139.478
139.48
139.452
139.4
139.337
139.273
139.215
139.167
139.128
139.099
139.084
139.087
139.114
139.165
139.229
139.282
139.296
139.25
139.145
139.018
138.944
139.022
139.349
139.988
140.947
142.168
143.539
144.923
146.188
147.239
148.028
148.562
148.885
149.058
149.146
149.199
149.249
149.311
149.389
149.479
149.575
149.673
149.771
149.867
149.96
150.055
150.131
150.277
139.117
139.088
139.062
139.04
139.026
139.022
139.037
139.073
139.131
139.208
139.294
139.376
139.44
139.476
139.479
139.451
139.4
139.338
139.274
139.216
139.167
139.128
139.099
139.084
139.088
139.116
139.167
139.23
139.281
139.291
139.242
139.136
139.012
138.943
139.029
139.361
140.003
140.96
142.175
143.539
144.916
146.177
147.226
148.018
148.557
148.884
149.061
149.15
149.203
149.252
149.313
149.39
149.479
149.575
149.673
149.771
149.866
149.963
150.041
150.187
139.15
139.118
139.088
139.062
139.04
139.025
139.023
139.037
139.074
139.132
139.209
139.294
139.375
139.439
139.474
139.478
139.45
139.4
139.338
139.275
139.216
139.167
139.127
139.098
139.084
139.089
139.118
139.17
139.231
139.279
139.286
139.235
139.128
139.006
138.944
139.035
139.374
140.018
140.973
142.182
143.538
144.909
146.165
147.214
148.008
148.551
148.883
149.063
149.154
149.207
149.255
149.315
149.391
149.479
149.574
149.673
149.77
149.869
149.95
150.097
139.185
139.15
139.118
139.088
139.062
139.04
139.025
139.023
139.038
139.075
139.133
139.21
139.294
139.374
139.437
139.473
139.476
139.449
139.4
139.339
139.275
139.217
139.167
139.127
139.098
139.084
139.09
139.121
139.172
139.232
139.277
139.281
139.227
139.12
139.001
138.944
139.042
139.386
140.032
140.985
142.189
143.538
144.902
146.154
147.202
147.999
148.546
148.882
149.065
149.158
149.212
149.259
149.317
149.391
149.479
149.574
149.671
149.772
149.856
150.006
139.223
139.185
139.15
139.117
139.088
139.061
139.039
139.025
139.023
139.039
139.076
139.134
139.21
139.294
139.374
139.436
139.471
139.475
139.449
139.4
139.339
139.276
139.218
139.167
139.127
139.098
139.084
139.092
139.123
139.174
139.233
139.275
139.276
139.22
139.112
138.996
138.944
139.049
139.398
140.046
140.997
142.196
143.538
144.895
146.143
147.19
147.989
148.54
148.88
149.068
149.162
149.216
149.262
149.319
149.392
149.479
149.573
149.674
149.759
149.913
139.262
139.223
139.185
139.15
139.117
139.088
139.061
139.039
139.025
139.024
139.04
139.077
139.136
139.211
139.295
139.373
139.435
139.47
139.473
139.448
139.4
139.34
139.277
139.218
139.167
139.126
139.098
139.085
139.093
139.125
139.176
139.233
139.273
139.271
139.212
139.105
138.992
138.945
139.056
139.409
140.06
141.009
142.203
143.538
144.888
146.133
147.179
147.98
148.534
148.879
149.07
149.166
149.22
149.265
149.321
149.393
149.478
149.576
149.66
149.817
139.299
139.261
139.223
139.186
139.15
139.117
139.087
139.061
139.039
139.025
139.024
139.04
139.078
139.137
139.212
139.295
139.373
139.434
139.468
139.472
139.447
139.4
139.34
139.278
139.219
139.167
139.126
139.097
139.085
139.094
139.127
139.178
139.234
139.271
139.266
139.205
139.098
138.987
138.945
139.062
139.421
140.073
141.021
142.209
143.538
144.882
146.122
147.168
147.97
148.529
148.877
149.071
149.17
149.224
149.269
149.323
149.393
149.481
149.561
149.719
139.331
139.298
139.261
139.223
139.186
139.15
139.117
139.087
139.06
139.038
139.025
139.024
139.041
139.079
139.138
139.213
139.295
139.372
139.433
139.467
139.471
139.446
139.4
139.341
139.278
139.219
139.167
139.126
139.097
139.086
139.096
139.129
139.18
139.234
139.269
139.261
139.198
139.091
138.983
138.946
139.069
139.432
140.086
141.032
142.216
143.538
144.876
146.112
147.156
147.961
148.523
148.876
149.073
149.174
149.228
149.272
149.325
149.398
149.467
149.621
139.355
139.33
139.298
139.261
139.223
139.186
139.15
139.117
139.087
139.06
139.038
139.025
139.024
139.042
139.08
139.139
139.213
139.295
139.372
139.431
139.466
139.47
139.446
139.4
139.341
139.279
139.22
139.168
139.126
139.097
139.086
139.097
139.131
139.181
139.234
139.267
139.256
139.191
139.084
138.979
138.947
139.076
139.443
140.099
141.043
142.222
143.538
144.87
146.102
147.146
147.952
148.517
148.874
149.075
149.177
149.232
149.275
149.33
149.385
149.526
139.37
139.354
139.33
139.298
139.262
139.224
139.186
139.15
139.117
139.087
139.06
139.038
139.025
139.025
139.043
139.081
139.14
139.214
139.295
139.371
139.43
139.464
139.468
139.445
139.4
139.342
139.28
139.22
139.168
139.126
139.097
139.087
139.098
139.133
139.183
139.234
139.264
139.251
139.184
139.078
138.975
138.948
139.082
139.454
140.112
141.054
142.228
143.538
144.864
146.093
147.135
147.943
148.512
148.872
149.076
149.18
149.235
149.281
149.319
149.439
139.374
139.369
139.354
139.329
139.298
139.262
139.224
139.186
139.151
139.117
139.086
139.059
139.038
139.025
139.025
139.043
139.082
139.141
139.215
139.295
139.37
139.429
139.463
139.467
139.444
139.4
139.342
139.28
139.22
139.168
139.126
139.097
139.088
139.1
139.134
139.185
139.234
139.262
139.246
139.177
139.071
138.972
138.95
139.089
139.465
140.124
141.065
142.234
143.538
144.859
146.083
147.125
147.934
148.506
148.87
149.077
149.183
149.242
149.273
149.368
139.371
139.374
139.368
139.353
139.329
139.298
139.262
139.224
139.186
139.151
139.117
139.086
139.059
139.037
139.025
139.025
139.044
139.083
139.142
139.215
139.295
139.37
139.428
139.462
139.466
139.443
139.399
139.342
139.281
139.221
139.168
139.126
139.098
139.088
139.101
139.136
139.186
139.234
139.259
139.24
139.171
139.065
138.968
138.951
139.095
139.476
140.136
141.075
142.24
143.538
144.853
146.074
147.114
147.925
148.5
148.868
149.078
149.189
149.236
149.314
139.366
139.372
139.373
139.368
139.353
139.329
139.298
139.262
139.224
139.187
139.151
139.117
139.086
139.059
139.037
139.025
139.026
139.045
139.084
139.143
139.216
139.295
139.369
139.427
139.46
139.465
139.443
139.399
139.343
139.281
139.221
139.168
139.126
139.098
139.089
139.103
139.138
139.187
139.234
139.256
139.235
139.164
139.059
138.965
138.953
139.102
139.486
140.148
141.085
142.246
143.538
144.848
146.065
147.104
147.916
148.495
148.866
149.081
149.183
149.271
139.36
139.366
139.372
139.373
139.367
139.352
139.329
139.298
139.262
139.224
139.187
139.151
139.117
139.086
139.058
139.037
139.025
139.026
139.045
139.085
139.144
139.217
139.295
139.369
139.426
139.459
139.464
139.442
139.399
139.343
139.281
139.221
139.168
139.126
139.098
139.09
139.104
139.14
139.188
139.233
139.254
139.23
139.158
139.053
138.962
138.954
139.108
139.497
140.16
141.095
142.251
143.538
144.843
146.057
147.094
147.908
148.488
148.865
149.074
149.223
139.351
139.36
139.367
139.372
139.373
139.367
139.352
139.328
139.298
139.262
139.225
139.187
139.151
139.117
139.085
139.058
139.037
139.025
139.027
139.046
139.086
139.144
139.217
139.295
139.368
139.425
139.458
139.463
139.442
139.399
139.343
139.282
139.222
139.168
139.126
139.098
139.091
139.106
139.142
139.189
139.233
139.251
139.225
139.151
139.048
138.96
138.956
139.115
139.507
140.171
141.105
142.257
143.538
144.838
146.048
147.085
147.899
148.485
148.853
149.135
139.332
139.35
139.36
139.368
139.372
139.373
139.366
139.352
139.328
139.298
139.262
139.225
139.187
139.151
139.117
139.085
139.058
139.036
139.025
139.027
139.047
139.087
139.145
139.218
139.295
139.368
139.424
139.457
139.462
139.441
139.399
139.343
139.282
139.222
139.168
139.126
139.099
139.092
139.107
139.143
139.19
139.232
139.248
139.22
139.145
139.042
138.957
138.958
139.121
139.517
140.182
141.114
142.263
143.538
144.833
146.04
147.075
147.893
148.461
148.96
139.297
139.33
139.349
139.361
139.368
139.373
139.373
139.366
139.351
139.328
139.297
139.262
139.225
139.187
139.151
139.117
139.085
139.058
139.036
139.025
139.027
139.048
139.088
139.146
139.218
139.295
139.367
139.423
139.456
139.461
139.44
139.399
139.344
139.283
139.222
139.168
139.126
139.099
139.093
139.109
139.145
139.191
139.231
139.245
139.215
139.139
139.037
138.955
138.959
139.128
139.526
140.193
141.124
142.268
143.538
144.828
146.031
147.07
147.854
148.644
139.245
139.295
139.329
139.349
139.362
139.369
139.373
139.373
139.366
139.351
139.328
139.297
139.262
139.225
139.187
139.151
139.116
139.085
139.057
139.036
139.025
139.028
139.048
139.088
139.147
139.219
139.295
139.367
139.422
139.454
139.46
139.44
139.399
139.344
139.283
139.223
139.169
139.126
139.1
139.094
139.11
139.146
139.192
139.231
139.242
139.21
139.133
139.032
138.952
138.961
139.134
139.536
140.204
141.133
142.273
143.539
144.822
146.031
147.009
148.141
139.184
139.244
139.293
139.328
139.349
139.362
139.37
139.373
139.373
139.365
139.35
139.327
139.297
139.262
139.225
139.187
139.151
139.116
139.085
139.057
139.036
139.025
139.028
139.049
139.089
139.148
139.219
139.295
139.366
139.421
139.453
139.459
139.439
139.398
139.344
139.283
139.223
139.169
139.126
139.1
139.095
139.112
139.148
139.193
139.23
139.239
139.205
139.128
139.027
138.95
138.963
139.14
139.546
140.215
141.142
142.279
143.537
144.831
145.945
147.42
139.121
139.185
139.244
139.293
139.328
139.35
139.363
139.371
139.374
139.373
139.365
139.35
139.327
139.297
139.262
139.225
139.188
139.151
139.116
139.084
139.057
139.036
139.025
139.028
139.049
139.09
139.148
139.22
139.295
139.366
139.421
139.453
139.458
139.439
139.399
139.344
139.284
139.223
139.169
139.126
139.101
139.096
139.113
139.149
139.193
139.228
139.236
139.2
139.122
139.023
138.948
138.965
139.146
139.555
140.224
141.151
142.28
143.558
144.721
146.49
139.055
139.12
139.184
139.242
139.289
139.324
139.347
139.361
139.369
139.373
139.372
139.365
139.35
139.327
139.297
139.263
139.226
139.188
139.152
139.117
139.085
139.058
139.037
139.026
139.03
139.051
139.091
139.149
139.22
139.295
139.364
139.418
139.449
139.455
139.436
139.397
139.343
139.283
139.224
139.17
139.128
139.103
139.098
139.116
139.152
139.194
139.228
139.232
139.195
139.115
139.017
138.947
138.968
139.155
139.566
140.236
141.152
142.305
143.408
145.349
138.985
139.062
139.132
139.195
139.252
139.298
139.332
139.354
139.367
139.374
139.376
139.374
139.365
139.349
139.326
139.295
139.26
139.222
139.184
139.147
139.112
139.08
139.052
139.032
139.022
139.027
139.05
139.092
139.153
139.225
139.302
139.372
139.427
139.458
139.462
139.441
139.399
139.342
139.28
139.218
139.163
139.12
139.096
139.093
139.113
139.151
139.196
139.23
139.233
139.193
139.111
139.009
138.937
138.961
139.155
139.582
140.264
141.246
142.234
144.263
138.863
138.94
139.015
139.087
139.154
139.214
139.266
139.306
139.335
139.354
139.366
139.372
139.373
139.368
139.356
139.336
139.31
139.279
139.243
139.206
139.169
139.134
139.1
139.07
139.046
139.032
139.029
139.043
139.075
139.125
139.189
139.26
139.33
139.389
139.43
139.448
139.441
139.413
139.368
139.312
139.253
139.197
139.15
139.118
139.104
139.113
139.14
139.177
139.21
139.222
139.198
139.135
139.048
138.972
138.963
139.089
139.399
139.994
140.622
142.366
)
;

boundaryField
{
    bottomwall
    {
        type            opaque;
        refValue        nonuniform List<scalar> 
60
(
143.312
145.501
146.741
147.505
148.003
148.343
148.585
148.768
148.912
149.034
149.145
149.25
149.351
149.447
149.541
149.631
149.722
149.814
149.907
150.003
150.1
150.197
150.291
150.378
150.459
150.534
150.611
150.698
150.8
150.908
150.993
151.014
150.932
150.751
150.547
150.487
150.815
151.8
153.663
156.498
160.224
164.578
169.15
173.468
177.088
179.691
181.121
181.363
180.486
178.602
175.838
172.347
168.323
164.009
159.674
155.578
151.904
148.71
145.812
142.59
)
;
        refGradient     uniform 0;
        valueFraction   uniform 1;