/*--------------------------------*- C++ -*----------------------------------*\
| =========                 |                                                 |
| \\      /  F ield         | OpenFOAM: The Open Source CFD Toolbox           |
|  \\    /   O peration     | Version:  2406                                  |
|   \\  /    A nd           | Website:  www.openfoam.com                      |
|    \\/     M anipulation  |                                                 |
\*---------------------------------------------------------------------------*/
FoamFile
{
    version     2.0;
    format      ascii;
    arch        "LSB;label=32;scalar=64";
    class       volScalarField;
    location    "5000";
    object      ILambda_16_0;
}
// * * * * * * * * * * * * * * * * * * * * * * * * * * * * * * * * * * * * * //

dimensions      [1 0 -3 0 0 0 0];

internalField   nonuniform List<scalar> 
3600
(
144.697
146.705
147.426
147.963
148.316
148.568
148.756
148.905
149.03
149.142
149.247
149.348
149.444
149.538
149.629
149.721
149.813
149.907
150.003
150.099
150.194
150.285
150.371
150.453
150.534
150.622
150.719
150.825
150.923
150.981
150.96
150.838
150.634
150.441
150.432
150.841
151.917
153.852
156.718
160.422
164.701
169.169
173.381
176.926
179.497
180.929
181.186
180.325
178.451
175.702
172.245
168.283
164.056
159.81
155.76
152.032
148.636
145.476
142.44
139.592
146.797
148.035
148.249
148.547
148.738
148.894
149.022
149.136
149.242
149.342
149.439
149.534
149.626
149.718
149.811
149.905
149.999
150.094
150.186
150.277
150.365
150.453
150.542
150.637
150.736
150.83
150.901
150.922
150.869
150.734
150.555
150.431
150.524
151.044
152.204
154.167
156.986
160.57
164.683
168.974
173.041
176.499
179.05
180.51
180.822
180.023
178.218
175.549
172.19
168.34
164.217
160.037
155.984
152.185
148.696
145.535
142.737
140.433
138.888
138.378
148.032
148.645
148.718
148.902
149.021
149.136
149.24
149.339
149.436
149.53
149.623
149.716
149.808
149.901
149.995
150.088
150.181
150.272
150.363
150.455
150.55
150.646
150.741
150.823
150.874
150.873
150.805
150.673
150.521
150.447
150.601
151.172
152.354
154.292
157.038
160.515
164.511
168.703
172.714
176.17
178.765
180.3
180.694
179.97
178.229
175.619
172.319
168.524
164.439
160.267
156.185
152.333
148.803
145.655
142.949
140.775
139.254
138.487
138.443
138.859
148.658
148.951
149.015
149.143
149.239
149.339
149.434
149.528
149.621
149.713
149.805
149.898
149.99
150.083
150.176
150.269
150.362
150.458
150.555
150.652
150.741
150.812
150.847
150.829
150.75
150.624
150.498
150.468
150.674
151.288
152.484
154.394
157.067
160.438
164.317
168.412
172.365
175.819
178.463
180.084
180.579
179.951
178.292
175.749
172.502
168.749
164.691
160.521
156.418
152.527
148.961
145.804
143.126
140.996
139.481
138.618
138.366
138.563
138.944
139.244
148.985
149.163
149.237
149.341
149.432
149.526
149.618
149.71
149.802
149.894
149.986
150.079
150.172
150.266
150.362
150.46
150.559
150.654
150.738
150.799
150.82
150.79
150.705
150.585
150.482
150.489
150.738
151.389
152.597
154.483
157.092
160.368
164.14
168.138
172.029
175.469
178.151
179.849
180.443
179.919
178.352
175.883
172.694
168.981
164.946
160.781
156.665
152.748
149.154
145.979
143.299
141.173
139.645
138.722
138.357
138.426
138.742
139.1
139.358
139.497
149.202
149.35
149.429
149.525
149.615
149.707
149.799
149.89
149.982
150.075
150.169
150.264
150.362
150.462
150.561
150.654
150.733
150.784
150.795
150.755
150.666
150.553
150.471
150.51
150.796
151.476
152.694
154.559
157.112
160.303
163.977
167.884
171.713
175.132
177.84
179.605
180.292
179.87
178.398
176.01
172.881
169.209
165.198
161.041
156.917
152.98
149.363
146.167
143.472
141.333
139.78
138.808
138.364
138.345
138.596
138.951
139.27
139.487
139.614
139.707
149.387
149.532
149.611
149.705
149.795
149.887
149.979
150.072
150.166
150.263
150.362
150.463
150.562
150.652
150.725
150.768
150.77
150.722
150.633
150.528
150.464
150.532
150.849
151.554
152.779
154.623
157.127
160.242
163.826
167.648
171.415
174.809
177.535
179.358
180.131
179.807
178.432
176.126
173.061
169.434
165.448
161.3
157.17
153.22
149.581
146.364
143.647
141.485
139.901
138.883
138.378
138.289
138.486
138.821
139.165
139.436
139.612
139.719
139.797
139.867
149.565
149.711
149.789
149.884
149.975
150.069
150.164
150.262
150.362
150.463
150.561
150.649
150.716
150.752
150.746
150.693
150.604
150.507
150.461
150.554
150.898
151.623
152.853
154.679
157.136
160.183
163.685
167.427
171.133
174.5
177.237
179.109
179.961
179.732
178.452
176.232
173.234
169.654
165.695
161.558
157.426
153.463
149.805
146.565
143.823
141.633
140.015
138.952
138.394
138.248
138.397
138.709
139.061
139.367
139.586
139.722
139.806
139.863
139.906
139.928
149.743
149.89
149.969
150.066
150.162
150.261
150.362
150.463
150.56
150.644
150.706
150.736
150.723
150.667
150.579
150.491
150.461
150.576
150.943
151.686
152.918
154.726
157.141
160.124
163.551
167.219
170.866
174.203
176.947
178.862
179.786
179.646
178.461
176.327
173.399
169.869
165.94
161.816
157.684
153.709
150.033
146.769
144
141.779
140.124
139.019
138.411
138.216
138.323
138.61
138.962
139.29
139.544
139.712
139.812
139.869
139.904
139.92
139.916
139.887
149.922
150.074
150.158
150.261
150.362
150.463
150.557
150.638
150.696
150.719
150.702
150.643
150.556
150.477
150.463
150.597
150.985
151.742
152.975
154.765
157.142
160.067
163.423
167.021
170.612
173.918
176.664
178.616
179.606
179.551
178.458
176.41
173.555
170.078
166.183
162.075
157.943
153.958
150.264
146.976
144.178
141.924
140.231
139.084
138.43
138.19
138.259
138.521
138.868
139.211
139.492
139.69
139.811
139.876
139.908
139.919
139.913
139.886
139.842
139.785
150.11
150.27
150.358
150.462
150.554
150.632
150.685
150.703
150.681
150.62
150.537
150.466
150.466
150.618
151.024
151.793
153.026
154.799
157.139
160.009
163.301
166.833
170.37
173.645
176.39
178.373
179.423
179.449
178.444
176.483
173.702
170.281
166.423
162.333
158.204
154.21
150.498
147.185
144.358
142.07
140.338
139.149
138.452
138.169
138.202
138.441
138.78
139.132
139.435
139.659
139.802
139.88
139.915
139.923
139.913
139.886
139.845
139.791
139.732
139.675
150.31
150.471
150.548
150.625
150.673
150.687
150.662
150.6
150.52
150.457
150.471
150.639
151.061
151.839
153.071
154.827
157.132
159.952
163.183
166.653
170.138
173.381
176.123
178.133
179.239
179.34
178.421
176.545
173.839
170.477
166.659
162.589
158.465
154.463
150.734
147.396
144.539
142.216
140.446
139.215
138.475
138.152
138.151
138.367
138.697
139.054
139.374
139.621
139.786
139.88
139.921
139.929
139.916
139.887
139.847
139.795
139.739
139.683
139.635
139.597
150.501
150.629
150.659
150.672
150.643
150.581
150.505
150.45
150.476
150.66
151.095
151.881
153.111
154.85
157.123
159.895
163.068
166.481
169.916
173.128
175.864
177.897
179.053
179.226
178.39
176.597
173.967
170.666
166.89
162.845
158.728
154.719
150.972
147.61
144.722
142.363
140.554
139.282
138.5
138.139
138.105
138.298
138.618
138.977
139.311
139.578
139.764
139.875
139.926
139.936
139.921
139.891
139.849
139.799
139.744
139.69
139.641
139.603
139.577
139.563
150.626
150.664
150.624
150.565
150.491
150.445
150.482
150.68
151.127
151.92
153.147
154.869
157.11
159.838
162.957
166.314
169.702
172.883
175.612
177.665
178.867
179.107
178.35
176.64
174.086
170.848
167.117
163.098
158.99
154.976
151.213
147.826
144.907
142.512
140.664
139.35
138.528
138.129
138.063
138.233
138.542
138.902
139.247
139.532
139.738
139.865
139.928
139.943
139.929
139.896
139.853
139.803
139.749
139.696
139.647
139.608
139.581
139.565
139.561
139.563
150.619
150.549
150.479
150.441
150.489
150.699
151.157
151.956
153.178
154.885
157.096
159.781
162.849
166.154
169.496
172.646
175.367
177.437
178.681
178.984
178.304
176.675
174.196
171.022
167.338
163.348
159.252
155.235
151.456
148.044
145.093
142.662
140.775
139.421
138.559
138.122
138.025
138.173
138.469
138.828
139.182
139.483
139.707
139.852
139.927
139.949
139.937
139.903
139.858
139.807
139.754
139.701
139.653
139.613
139.584
139.567
139.561
139.562
139.568
139.576
150.496
150.432
150.497
150.717
151.185
151.988
153.207
154.897
157.079
159.723
162.744
165.998
169.297
172.417
175.128
177.213
178.496
178.859
178.252
176.701
174.298
171.188
167.554
163.596
159.513
155.494
151.701
148.264
145.282
142.815
140.888
139.493
138.591
138.118
137.99
138.115
138.399
138.756
139.117
139.431
139.673
139.835
139.923
139.954
139.945
139.912
139.865
139.813
139.758
139.706
139.658
139.618
139.588
139.57
139.561
139.561
139.566
139.573
139.578
139.58
150.476
150.736
151.212
152.018
153.232
154.906
157.061
159.666
162.641
165.848
169.104
172.195
174.896
176.994
178.312
178.731
178.194
176.72
174.391
171.347
167.764
163.839
159.773
155.754
151.947
148.487
145.473
142.97
141.003
139.568
138.627
138.117
137.959
138.061
138.332
138.685
139.051
139.379
139.637
139.815
139.917
139.957
139.953
139.921
139.873
139.819
139.764
139.711
139.663
139.622
139.592
139.572
139.562
139.561
139.564
139.571
139.576
139.578
139.576
139.569
151.023
152.078
153.25
154.913
157.04
159.609
162.54
165.701
168.917
171.979
174.669
176.778
178.13
178.601
178.132
176.732
174.477
171.499
167.968
164.079
160.031
156.014
152.195
148.712
145.667
143.127
141.121
139.645
138.665
138.119
137.931
138.01
138.267
138.616
138.986
139.324
139.597
139.791
139.908
139.958
139.96
139.93
139.882
139.826
139.77
139.716
139.667
139.627
139.595
139.574
139.563
139.56
139.563
139.569
139.574
139.576
139.575
139.569
139.558
139.543
152.727
155.015
157.002
159.555
162.44
165.558
168.735
171.769
174.448
176.566
177.949
178.47
178.065
176.737
174.555
171.643
168.165
164.314
160.286
156.273
152.444
148.938
145.863
143.286
141.241
139.725
138.705
138.124
137.905
137.962
138.204
138.548
138.921
139.269
139.556
139.765
139.896
139.957
139.966
139.939
139.891
139.835
139.776
139.721
139.672
139.631
139.599
139.577
139.564
139.56
139.562
139.567
139.572
139.575
139.574
139.568
139.558
139.543
139.526
139.507
156.029
159.686
162.307
165.426
168.557
171.566
174.232
176.358
177.769
178.337
177.994
176.737
174.627
171.78
168.357
164.545
160.539
156.532
152.693
149.167
146.061
143.449
141.364
139.807
138.748
138.131
137.882
137.916
138.143
138.481
138.856
139.213
139.513
139.737
139.881
139.955
139.971
139.948
139.901
139.844
139.784
139.727
139.677
139.635
139.602
139.579
139.565
139.56
139.561
139.565
139.57
139.573
139.572
139.567
139.558
139.544
139.527
139.508
139.488
139.468
160.909
165.569
168.327
171.379
174.019
176.154
177.591
178.204
177.921
176.732
174.691
171.91
168.542
164.77
160.789
156.789
152.943
149.397
146.262
143.613
141.489
139.892
138.794
138.142
137.862
137.872
138.084
138.415
138.791
139.156
139.468
139.706
139.865
139.95
139.975
139.957
139.912
139.853
139.792
139.733
139.682
139.638
139.605
139.581
139.567
139.56
139.56
139.563
139.568
139.571
139.571
139.566
139.558
139.544
139.528
139.509
139.49
139.47
139.45
139.432
166.716
171.517
173.739
175.97
177.411
178.071
177.844
176.721
174.75
172.034
168.721
164.992
161.036
157.046
153.194
149.629
146.465
143.781
141.617
139.98
138.843
138.155
137.845
137.831
138.028
138.351
138.727
139.098
139.421
139.674
139.846
139.943
139.977
139.964
139.922
139.864
139.801
139.74
139.687
139.642
139.608
139.583
139.568
139.56
139.559
139.562
139.566
139.569
139.569
139.566
139.557
139.545
139.529
139.51
139.491
139.471
139.451
139.433
139.417
139.402
172.274
176.092
177.159
177.955
177.76
176.707
174.802
172.151
168.895
165.208
161.28
157.3
153.444
149.862
146.67
143.951
141.749
140.071
138.894
138.17
137.83
137.792
137.973
138.287
138.663
139.04
139.374
139.639
139.825
139.934
139.978
139.971
139.932
139.874
139.81
139.748
139.693
139.647
139.611
139.585
139.569
139.561
139.559
139.561
139.564
139.567
139.568
139.565
139.557
139.545
139.53
139.512
139.492
139.472
139.453
139.434
139.418
139.403
139.39
139.379
176.232
178.049
177.616
176.704
174.845
172.263
169.061
165.419
161.52
157.553
153.694
150.096
146.878
144.124
141.883
140.164
138.949
138.189
137.818
137.756
137.919
138.225
138.6
138.981
139.325
139.603
139.802
139.924
139.977
139.977
139.941
139.885
139.82
139.756
139.699
139.651
139.614
139.587
139.57
139.561
139.558
139.56
139.563
139.566
139.566
139.564
139.556
139.545
139.53
139.513
139.493
139.474
139.454
139.436
139.419
139.404
139.391
139.379
139.37
139.363
177.508
176.753
174.855
172.378
169.22
165.626
161.756
157.804
153.944
150.331
147.087
144.3
142.02
140.261
139.006
138.21
137.808
137.722
137.868
138.164
138.536
138.922
139.275
139.565
139.778
139.911
139.975
139.982
139.951
139.896
139.831
139.765
139.706
139.656
139.617
139.589
139.571
139.561
139.558
139.559
139.561
139.564
139.565
139.563
139.556
139.545
139.531
139.514
139.495
139.475
139.455
139.437
139.42
139.404
139.391
139.38
139.371
139.363
139.357
139.351
175.645
172.368
169.385
165.828
161.987
158.053
154.193
150.567
147.298
144.478
142.16
140.361
139.067
138.234
137.801
137.69
137.818
138.104
138.474
138.863
139.225
139.526
139.751
139.897
139.971
139.986
139.959
139.906
139.841
139.775
139.713
139.662
139.621
139.592
139.572
139.562
139.557
139.558
139.56
139.563
139.564
139.561
139.555
139.545
139.531
139.514
139.496
139.476
139.457
139.438
139.421
139.405
139.392
139.38
139.371
139.363
139.357
139.351
139.347
139.343
170.929
165.748
162.267
158.29
154.442
150.803
147.511
144.659
142.303
140.464
139.131
138.262
137.796
137.66
137.77
138.046
138.411
138.804
139.173
139.486
139.723
139.882
139.966
139.989
139.968
139.917
139.852
139.784
139.721
139.667
139.625
139.594
139.574
139.562
139.557
139.557
139.559
139.561
139.562
139.56
139.555
139.545
139.532
139.515
139.497
139.477
139.458
139.439
139.422
139.406
139.393
139.381
139.371
139.363
139.357
139.352
139.347
139.343
139.339
139.335
164.258
158.144
154.772
151.022
147.728
144.841
142.449
140.571
139.197
138.292
137.795
137.632
137.724
137.988
138.35
138.744
139.121
139.444
139.694
139.864
139.959
139.991
139.975
139.927
139.863
139.794
139.73
139.674
139.629
139.597
139.575
139.562
139.556
139.556
139.558
139.56
139.561
139.559
139.554
139.545
139.532
139.516
139.498
139.479
139.459
139.44
139.423
139.407
139.393
139.382
139.372
139.364
139.357
139.352
139.347
139.343
139.339
139.335
139.33
139.324
156.844
150.827
148.043
145.004
142.603
140.679
139.268
138.325
137.795
137.607
137.679
137.932
138.289
138.685
139.068
139.401
139.663
139.845
139.951
139.992
139.982
139.938
139.874
139.805
139.738
139.68
139.634
139.599
139.576
139.562
139.556
139.555
139.556
139.558
139.56
139.558
139.553
139.545
139.532
139.517
139.499
139.48
139.46
139.442
139.424
139.408
139.394
139.382
139.372
139.364
139.357
139.352
139.347
139.343
139.339
139.335
139.33
139.324
139.318
139.311
149.87
144.788
142.853
140.768
139.346
138.36
137.799
137.584
137.636
137.876
138.228
138.625
139.014
139.357
139.63
139.825
139.942
139.991
139.988
139.947
139.886
139.816
139.748
139.688
139.639
139.603
139.578
139.563
139.556
139.554
139.555
139.557
139.558
139.557
139.553
139.544
139.532
139.517
139.5
139.481
139.462
139.443
139.425
139.409
139.395
139.383
139.373
139.364
139.357
139.352
139.347
139.343
139.339
139.334
139.33
139.324
139.318
139.311
139.303
139.294
144.222
140.56
139.507
138.378
137.811
137.562
137.596
137.822
138.168
138.565
138.96
139.312
139.596
139.803
139.931
139.99
139.993
139.956
139.897
139.827
139.757
139.695
139.644
139.606
139.579
139.563
139.555
139.553
139.554
139.556
139.557
139.556
139.552
139.544
139.533
139.518
139.501
139.482
139.463
139.444
139.426
139.41
139.396
139.383
139.373
139.365
139.358
139.352
139.347
139.343
139.339
139.334
139.33
139.324
139.318
139.311
139.303
139.294
139.285
139.275
140.342
138.2
137.881
137.527
137.561
137.768
138.109
138.505
138.905
139.266
139.561
139.779
139.919
139.987
139.997
139.965
139.908
139.838
139.767
139.703
139.65
139.61
139.581
139.564
139.555
139.552
139.552
139.554
139.556
139.555
139.551
139.544
139.533
139.518
139.502
139.483
139.464
139.445
139.427
139.411
139.397
139.384
139.374
139.365
139.358
139.352
139.347
139.343
139.339
139.334
139.33
139.324
139.318
139.311
139.303
139.294
139.285
139.275
139.266
139.256
138.231
137.395
137.56
137.706
138.053
138.445
138.85
139.218
139.525
139.755
139.905
139.983
140
139.973
139.918
139.849
139.778
139.712
139.656
139.614
139.584
139.565
139.555
139.551
139.551
139.553
139.554
139.554
139.55
139.543
139.533
139.519
139.503
139.484
139.465
139.447
139.429
139.412
139.397
139.385
139.374
139.365
139.358
139.352
139.347
139.343
139.339
139.334
139.33
139.324
139.318
139.311
139.303
139.295
139.285
139.276
139.266
139.257
139.248
139.241
137.554
137.624
138.009
138.38
138.796
139.17
139.488
139.728
139.89
139.977
140.003
139.981
139.929
139.861
139.788
139.721
139.663
139.618
139.586
139.566
139.555
139.55
139.55
139.552
139.553
139.553
139.549
139.543
139.533
139.519
139.503
139.485
139.467
139.448
139.43
139.413
139.398
139.385
139.375
139.366
139.358
139.352
139.347
139.343
139.339
139.334
139.33
139.324
139.318
139.311
139.304
139.295
139.286
139.276
139.267
139.258
139.249
139.241
139.234
139.228
137.807
138.342
138.738
139.12
139.449
139.701
139.874
139.971
140.004
139.988
139.939
139.872
139.799
139.73
139.67
139.623
139.589
139.567
139.554
139.549
139.549
139.55
139.552
139.551
139.549
139.542
139.533
139.52
139.504
139.486
139.468
139.449
139.431
139.414
139.399
139.386
139.375
139.366
139.358
139.352
139.347
139.343
139.339
139.334
139.33
139.324
139.318
139.311
139.304
139.295
139.286
139.277
139.267
139.258
139.249
139.242
139.235
139.229
139.224
139.22
138.483
139.115
139.401
139.673
139.856
139.963
140.004
139.994
139.949
139.883
139.81
139.739
139.678
139.628
139.592
139.568
139.555
139.549
139.547
139.549
139.55
139.55
139.548
139.542
139.533
139.52
139.505
139.487
139.469
139.45
139.432
139.415
139.4
139.387
139.376
139.366
139.359
139.352
139.347
139.343
139.338
139.334
139.33
139.324
139.318
139.312
139.304
139.296
139.287
139.277
139.268
139.259
139.25
139.242
139.235
139.229
139.224
139.22
139.216
139.213
139.189
139.687
139.826
139.957
140.003
140
139.958
139.894
139.821
139.749
139.685
139.634
139.596
139.57
139.555
139.548
139.546
139.547
139.549
139.549
139.547
139.541
139.532
139.52
139.505
139.488
139.47
139.451
139.433
139.416
139.401
139.388
139.376
139.367
139.359
139.353
139.347
139.343
139.338
139.334
139.33
139.324
139.318
139.312
139.304
139.296
139.287
139.278
139.268
139.259
139.251
139.243
139.235
139.229
139.224
139.22
139.216
139.213
139.21
139.206
139.702
139.978
139.993
140.007
139.967
139.906
139.832
139.759
139.694
139.64
139.599
139.572
139.555
139.547
139.545
139.546
139.547
139.548
139.546
139.541
139.532
139.52
139.506
139.489
139.471
139.453
139.435
139.417
139.402
139.388
139.377
139.367
139.359
139.353
139.347
139.343
139.338
139.334
139.329
139.324
139.318
139.312
139.304
139.296
139.287
139.278
139.269
139.26
139.251
139.243
139.236
139.23
139.224
139.22
139.216
139.213
139.21
139.206
139.202
139.198
139.954
140.026
139.971
139.918
139.843
139.77
139.702
139.646
139.603
139.574
139.556
139.547
139.544
139.544
139.546
139.546
139.545
139.54
139.532
139.521
139.506
139.49
139.472
139.454
139.436
139.419
139.403
139.389
139.377
139.368
139.36
139.353
139.347
139.343
139.338
139.334
139.329
139.324
139.319
139.312
139.305
139.296
139.288
139.279
139.269
139.26
139.252
139.244
139.236
139.23
139.225
139.22
139.216
139.213
139.21
139.206
139.202
139.198
139.192
139.186
139.99
139.93
139.853
139.781
139.711
139.653
139.608
139.576
139.557
139.546
139.543
139.543
139.544
139.545
139.544
139.539
139.532
139.521
139.507
139.491
139.473
139.455
139.437
139.42
139.404
139.39
139.378
139.368
139.36
139.353
139.347
139.343
139.338
139.334
139.329
139.324
139.319
139.312
139.305
139.297
139.288
139.279
139.27
139.261
139.252
139.244
139.237
139.23
139.225
139.22
139.217
139.213
139.21
139.206
139.202
139.198
139.192
139.186
139.179
139.172
139.898
139.786
139.721
139.66
139.613
139.579
139.558
139.546
139.542
139.541
139.543
139.544
139.543
139.539
139.531
139.521
139.507
139.492
139.474
139.456
139.438
139.421
139.405
139.391
139.379
139.369
139.36
139.353
139.348
139.343
139.338
139.334
139.329
139.324
139.319
139.312
139.305
139.297
139.288
139.279
139.27
139.261
139.252
139.244
139.237
139.231
139.225
139.221
139.217
139.213
139.21
139.206
139.202
139.198
139.192
139.186
139.18
139.172
139.164
139.156
139.766
139.659
139.62
139.582
139.559
139.546
139.541
139.54
139.541
139.542
139.541
139.538
139.531
139.521
139.508
139.492
139.475
139.457
139.439
139.422
139.406
139.392
139.379
139.369
139.361
139.353
139.348
139.343
139.338
139.334
139.329
139.324
139.319
139.312
139.305
139.297
139.289
139.28
139.271
139.262
139.253
139.245
139.238
139.231
139.226
139.221
139.217
139.213
139.21
139.206
139.202
139.198
139.192
139.186
139.18
139.172
139.165
139.156
139.148
139.14
139.651
139.578
139.562
139.546
139.54
139.538
139.54
139.541
139.54
139.537
139.531
139.521
139.508
139.493
139.476
139.458
139.44
139.423
139.407
139.393
139.38
139.37
139.361
139.354
139.348
139.343
139.338
139.334
139.329
139.324
139.319
139.312
139.305
139.297
139.289
139.28
139.271
139.262
139.253
139.245
139.238
139.232
139.226
139.221
139.217
139.213
139.21
139.206
139.202
139.198
139.192
139.187
139.18
139.173
139.165
139.157
139.149
139.141
139.133
139.126
139.578
139.541
139.54
139.537
139.538
139.539
139.539
139.536
139.53
139.521
139.509
139.494
139.477
139.459
139.441
139.424
139.408
139.394
139.381
139.37
139.361
139.354
139.348
139.343
139.338
139.334
139.329
139.324
139.319
139.312
139.305
139.298
139.289
139.28
139.271
139.263
139.254
139.246
139.238
139.232
139.226
139.221
139.217
139.213
139.21
139.206
139.202
139.198
139.192
139.187
139.18
139.173
139.165
139.157
139.149
139.141
139.134
139.127
139.121
139.115
139.544
139.533
139.537
139.537
139.538
139.535
139.53
139.521
139.509
139.494
139.478
139.46
139.443
139.425
139.409
139.394
139.382
139.371
139.362
139.354
139.348
139.343
139.338
139.334
139.329
139.324
139.319
139.313
139.306
139.298
139.29
139.281
139.272
139.263
139.254
139.246
139.239
139.232
139.226
139.221
139.217
139.213
139.21
139.206
139.202
139.198
139.193
139.187
139.18
139.173
139.165
139.157
139.149
139.142
139.134
139.127
139.121
139.116
139.111
139.107
139.535
139.535
139.537
139.534
139.529
139.521
139.509
139.495
139.479
139.461
139.444
139.426
139.41
139.395
139.382
139.371
139.362
139.354
139.348
139.343
139.338
139.334
139.329
139.324
139.319
139.313
139.306
139.298
139.29
139.281
139.272
139.263
139.255
139.247
139.239
139.233
139.227
139.222
139.217
139.213
139.21
139.206
139.202
139.198
139.193
139.187
139.18
139.173
139.166
139.158
139.15
139.142
139.134
139.128
139.121
139.116
139.111
139.107
139.104
139.1
139.535
139.533
139.529
139.521
139.509
139.495
139.479
139.462
139.445
139.427
139.411
139.396
139.383
139.372
139.362
139.355
139.348
139.343
139.338
139.334
139.329
139.324
139.319
139.313
139.306
139.298
139.29
139.282
139.273
139.264
139.255
139.247
139.24
139.233
139.227
139.222
139.217
139.213
139.21
139.206
139.202
139.198
139.193
139.187
139.181
139.174
139.166
139.158
139.15
139.142
139.135
139.128
139.122
139.116
139.111
139.107
139.104
139.1
139.097
139.094
139.53
139.52
139.51
139.496
139.48
139.463
139.446
139.429
139.412
139.397
139.384
139.373
139.363
139.355
139.348
139.343
139.338
139.334
139.329
139.324
139.319
139.313
139.306
139.299
139.29
139.282
139.273
139.264
139.256
139.248
139.24
139.233
139.227
139.222
139.218
139.214
139.21
139.206
139.202
139.198
139.193
139.187
139.181
139.174
139.166
139.159
139.151
139.143
139.135
139.128
139.122
139.116
139.112
139.107
139.104
139.1
139.097
139.094
139.092
139.09
139.514
139.496
139.481
139.464
139.447
139.43
139.413
139.398
139.385
139.373
139.363
139.355
139.349
139.343
139.338
139.334
139.329
139.324
139.319
139.313
139.306
139.299
139.291
139.282
139.274
139.265
139.256
139.248
139.241
139.234
139.228
139.222
139.218
139.214
139.21
139.206
139.202
139.198
139.193
139.187
139.181
139.174
139.167
139.159
139.151
139.143
139.136
139.129
139.122
139.117
139.112
139.107
139.104
139.1
139.097
139.094
139.092
139.09
139.089
139.09
139.489
139.464
139.448
139.431
139.414
139.399
139.386
139.374
139.364
139.356
139.349
139.343
139.338
139.334
139.329
139.324
139.319
139.313
139.306
139.299
139.291
139.283
139.274
139.265
139.257
139.249
139.241
139.234
139.228
139.223
139.218
139.214
139.21
139.206
139.202
139.198
139.193
139.187
139.181
139.174
139.167
139.159
139.151
139.144
139.136
139.129
139.123
139.117
139.112
139.108
139.104
139.1
139.097
139.094
139.092
139.09
139.089
139.09
139.093
139.099
139.457
139.43
139.416
139.4
139.386
139.374
139.364
139.356
139.349
139.343
139.338
139.334
139.329
139.324
139.319
139.313
139.306
139.299
139.291
139.283
139.274
139.266
139.257
139.249
139.241
139.235
139.228
139.223
139.218
139.214
139.21
139.206
139.202
139.198
139.193
139.187
139.181
139.174
139.167
139.16
139.152
139.144
139.137
139.13
139.123
139.117
139.112
139.108
139.104
139.1
139.097
139.094
139.092
139.09
139.089
139.09
139.094
139.099
139.108
139.119
139.425
139.399
139.388
139.375
139.365
139.356
139.349
139.343
139.338
139.333
139.329
139.324
139.319
139.313
139.307
139.299
139.292
139.283
139.275
139.266
139.258
139.249
139.242
139.235
139.229
139.223
139.218
139.214
139.21
139.206
139.202
139.198
139.193
139.187
139.181
139.175
139.167
139.16
139.152
139.144
139.137
139.13
139.123
139.118
139.112
139.108
139.104
139.1
139.097
139.094
139.092
139.09
139.09
139.091
139.094
139.1
139.108
139.119
139.131
139.144
139.395
139.374
139.366
139.357
139.349
139.343
139.338
139.333
139.329
139.324
139.319
139.313
139.307
139.3
139.292
139.284
139.275
139.266
139.258
139.25
139.242
139.235
139.229
139.223
139.219
139.214
139.21
139.206
139.202
139.198
139.193
139.187
139.181
139.175
139.168
139.16
139.153
139.145
139.137
139.13
139.124
139.118
139.113
139.108
139.104
139.1
139.097
139.094
139.092
139.09
139.09
139.091
139.094
139.1
139.108
139.119
139.131
139.143
139.155
139.165
139.372
139.356
139.35
139.343
139.338
139.333
139.329
139.324
139.319
139.313
139.307
139.3
139.292
139.284
139.275
139.267
139.258
139.25
139.243
139.236
139.229
139.224
139.219
139.214
139.21
139.206
139.202
139.198
139.193
139.188
139.182
139.175
139.168
139.161
139.153
139.145
139.138
139.131
139.124
139.118
139.113
139.108
139.104
139.1
139.097
139.094
139.092
139.09
139.09
139.091
139.095
139.1
139.108
139.118
139.13
139.142
139.154
139.163
139.17
139.173
139.354
139.343
139.339
139.333
139.329
139.324
139.319
139.313
139.307
139.3
139.292
139.284
139.276
139.267
139.259
139.251
139.243
139.236
139.23
139.224
139.219
139.214
139.21
139.206
139.202
139.198
139.193
139.188
139.182
139.175
139.168
139.161
139.153
139.146
139.138
139.131
139.125
139.119
139.113
139.108
139.104
139.1
139.097
139.094
139.092
139.09
139.09
139.092
139.095
139.101
139.108
139.118
139.13
139.141
139.152
139.162
139.169
139.172
139.171
139.167
139.341
139.333
139.329
139.324
139.319
139.313
139.307
139.3
139.293
139.285
139.276
139.268
139.259
139.251
139.243
139.236
139.23
139.224
139.219
139.215
139.21
139.206
139.202
139.198
139.193
139.188
139.182
139.175
139.168
139.161
139.154
139.146
139.139
139.132
139.125
139.119
139.113
139.108
139.104
139.1
139.097
139.094
139.092
139.09
139.09
139.092
139.095
139.101
139.108
139.118
139.129
139.14
139.151
139.161
139.167
139.171
139.171
139.167
139.161
139.152
139.331
139.323
139.319
139.313
139.307
139.3
139.293
139.285
139.277
139.268
139.26
139.252
139.244
139.237
139.23
139.225
139.219
139.215
139.21
139.206
139.202
139.198
139.193
139.188
139.182
139.176
139.169
139.161
139.154
139.146
139.139
139.132
139.125
139.119
139.113
139.109
139.104
139.1
139.097
139.094
139.092
139.091
139.091
139.092
139.096
139.101
139.109
139.118
139.129
139.14
139.151
139.16
139.167
139.171
139.171
139.168
139.162
139.153
139.142
139.129
139.321
139.312
139.307
139.3
139.293
139.285
139.277
139.268
139.26
139.252
139.244
139.237
139.23
139.224
139.219
139.215
139.21
139.206
139.202
139.197
139.193
139.187
139.182
139.175
139.169
139.161
139.154
139.147
139.139
139.132
139.126
139.119
139.114
139.109
139.105
139.101
139.097
139.094
139.092
139.091
139.091
139.093
139.096
139.101
139.108
139.117
139.128
139.138
139.149
139.158
139.164
139.168
139.169
139.166
139.161
139.152
139.141
139.128
139.112
139.093
139.312
139.302
139.295
139.287
139.279
139.27
139.262
139.254
139.246
139.239
139.232
139.226
139.221
139.216
139.212
139.208
139.204
139.199
139.195
139.19
139.184
139.178
139.171
139.163
139.156
139.148
139.141
139.134
139.127
139.12
139.115
139.109
139.104
139.1
139.096
139.093
139.091
139.089
139.089
139.09
139.094
139.099
139.107
139.116
139.127
139.138
139.149
139.159
139.167
139.172
139.174
139.172
139.168
139.161
139.15
139.137
139.12
139.099
139.074
139.043
139.289
139.277
139.27
139.262
139.254
139.246
139.239
139.232
139.226
139.22
139.215
139.211
139.206
139.202
139.197
139.193
139.188
139.182
139.176
139.169
139.162
139.155
139.148
139.141
139.134
139.127
139.121
139.115
139.11
139.105
139.101
139.098
139.095
139.093
139.093
139.093
139.095
139.098
139.103
139.109
139.117
139.126
139.136
139.145
139.153
139.16
139.165
139.166
139.165
139.16
139.152
139.141
139.127
139.109
139.089
139.065
139.039
139.009
138.978
138.947
)
;

boundaryField
{
    bottomwall
    {
        type            opaque;
        refValue        nonuniform List<scalar> 
60
(
143.312
145.501
146.741
147.505
148.003
148.343
148.585
148.768
148.912
149.034
149.145
149.25
149.351
149.447
149.541
149.631
149.722
149.814
149.907
150.003
150.1
150.197
150.291
150.378
150.459
150.534
150.611
150.698
150.8
150.908
150.993
151.014
150.932
150.751
150.547
150.487
150.815
151.8
153.663
156.498
160.224
164.578
169.15
173.468
177.088
179.691
181.121
181.363
180.486
178.602
175.838
172.347
168.323
164.009
159.674
155.578
151.904
148.71
145.812
142.59
)
;
        refGradient     uniform 0;
        valueFraction   uniform 1;