/*--------------------------------*- C++ -*----------------------------------*\
| =========                 |                                                 |
| \\      /  F ield         | OpenFOAM: The Open Source CFD Toolbox           |
|  \\    /   O peration     | Version:  2406                                  |
|   \\  /    A nd           | Website:  www.openfoam.com                      |
|    \\/     M anipulation  |                                                 |
\*---------------------------------------------------------------------------*/
FoamFile
{
    version     2.0;
    format      ascii;
    arch        "LSB;label=32;scalar=64";
    class       volScalarField;
    location    "5000";
    object      ILambda_6_0;
}
// * * * * * * * * * * * * * * * * * * * * * * * * * * * * * * * * * * * * * //

dimensions      [1 0 -3 0 0 0 0];

internalField   nonuniform List<scalar> 
3600
(
139.005
139.036
139.064
139.09
139.113
139.137
139.165
139.198
139.237
139.28
139.324
139.363
139.394
139.411
139.413
139.399
139.371
139.333
139.288
139.242
139.199
139.161
139.131
139.11
139.096
139.089
139.087
139.089
139.094
139.1
139.107
139.115
139.125
139.137
139.152
139.172
139.195
139.223
139.254
139.288
139.324
139.359
139.392
139.422
139.447
139.465
139.475
139.476
139.47
139.455
139.432
139.403
139.369
139.332
139.293
139.253
139.214
139.177
139.146
139.103
139.101
139.126
139.147
139.168
139.194
139.228
139.271
139.318
139.366
139.407
139.434
139.444
139.433
139.405
139.361
139.307
139.25
139.196
139.149
139.113
139.088
139.074
139.069
139.071
139.078
139.087
139.096
139.105
139.115
139.124
139.136
139.15
139.168
139.19
139.218
139.249
139.285
139.322
139.36
139.397
139.43
139.458
139.479
139.491
139.494
139.487
139.472
139.447
139.416
139.379
139.338
139.295
139.251
139.209
139.169
139.134
139.103
139.076
139.057
139.036
139.143
139.16
139.182
139.214
139.255
139.304
139.353
139.397
139.427
139.438
139.429
139.402
139.359
139.306
139.251
139.199
139.154
139.119
139.096
139.083
139.079
139.081
139.087
139.094
139.102
139.109
139.117
139.125
139.135
139.148
139.164
139.186
139.212
139.243
139.277
139.314
139.352
139.388
139.421
139.449
139.469
139.482
139.486
139.481
139.467
139.445
139.415
139.38
139.341
139.3
139.258
139.218
139.179
139.144
139.114
139.088
139.067
139.051
139.039
139.032
139.178
139.208
139.249
139.298
139.351
139.397
139.431
139.445
139.438
139.411
139.367
139.313
139.255
139.201
139.154
139.118
139.094
139.081
139.076
139.079
139.085
139.092
139.1
139.108
139.116
139.124
139.134
139.146
139.163
139.184
139.21
139.241
139.275
139.312
139.35
139.387
139.421
139.449
139.471
139.484
139.489
139.484
139.471
139.449
139.419
139.384
139.345
139.303
139.261
139.219
139.18
139.144
139.113
139.086
139.065
139.049
139.037
139.03
139.026
139.03
139.238
139.29
139.345
139.396
139.433
139.45
139.445
139.417
139.372
139.316
139.257
139.2
139.152
139.116
139.091
139.079
139.075
139.078
139.085
139.093
139.102
139.11
139.117
139.125
139.134
139.146
139.162
139.182
139.208
139.238
139.273
139.31
139.348
139.385
139.419
139.448
139.47
139.485
139.49
139.486
139.472
139.45
139.421
139.386
139.346
139.305
139.262
139.22
139.181
139.145
139.114
139.087
139.065
139.049
139.037
139.03
139.027
139.029
139.031
139.043
139.337
139.393
139.435
139.456
139.453
139.425
139.379
139.321
139.259
139.201
139.151
139.114
139.089
139.077
139.074
139.078
139.085
139.094
139.103
139.11
139.118
139.125
139.134
139.145
139.16
139.18
139.206
139.236
139.27
139.307
139.345
139.383
139.418
139.447
139.47
139.485
139.491
139.487
139.474
139.452
139.423
139.388
139.349
139.307
139.264
139.222
139.182
139.146
139.114
139.088
139.066
139.049
139.037
139.03
139.027
139.028
139.032
139.039
139.045
139.064
139.439
139.463
139.461
139.434
139.386
139.326
139.261
139.201
139.149
139.111
139.087
139.075
139.073
139.077
139.086
139.095
139.104
139.112
139.118
139.125
139.133
139.144
139.159
139.179
139.203
139.233
139.267
139.305
139.343
139.381
139.416
139.446
139.47
139.485
139.492
139.488
139.476
139.455
139.426
139.391
139.351
139.309
139.266
139.224
139.184
139.147
139.115
139.088
139.066
139.049
139.037
139.03
139.027
139.028
139.032
139.038
139.047
139.058
139.068
139.091
139.473
139.444
139.394
139.331
139.263
139.2
139.147
139.109
139.084
139.073
139.072
139.077
139.086
139.096
139.105
139.113
139.119
139.126
139.133
139.144
139.158
139.177
139.201
139.231
139.265
139.302
139.341
139.379
139.414
139.445
139.469
139.486
139.493
139.49
139.478
139.457
139.428
139.393
139.353
139.311
139.268
139.225
139.185
139.148
139.116
139.089
139.066
139.049
139.037
139.03
139.027
139.028
139.031
139.038
139.046
139.057
139.069
139.083
139.095
139.122
139.404
139.336
139.265
139.199
139.145
139.106
139.081
139.071
139.07
139.077
139.086
139.097
139.106
139.114
139.12
139.126
139.133
139.143
139.156
139.175
139.199
139.228
139.262
139.299
139.338
139.377
139.413
139.444
139.469
139.486
139.493
139.491
139.48
139.459
139.43
139.395
139.356
139.313
139.27
139.227
139.186
139.149
139.117
139.089
139.067
139.05
139.037
139.03
139.027
139.027
139.031
139.037
139.046
139.056
139.068
139.082
139.097
139.113
139.127
139.157
139.268
139.199
139.143
139.102
139.078
139.068
139.069
139.076
139.087
139.098
139.107
139.115
139.121
139.127
139.133
139.142
139.155
139.173
139.197
139.225
139.259
139.296
139.336
139.374
139.411
139.443
139.469
139.486
139.494
139.493
139.481
139.461
139.433
139.398
139.358
139.315
139.271
139.228
139.188
139.15
139.117
139.09
139.067
139.05
139.037
139.03
139.027
139.027
139.031
139.037
139.046
139.056
139.068
139.081
139.096
139.112
139.129
139.147
139.163
139.194
139.139
139.099
139.075
139.066
139.068
139.076
139.088
139.099
139.109
139.116
139.122
139.127
139.133
139.142
139.154
139.171
139.194
139.223
139.256
139.294
139.333
139.372
139.409
139.442
139.468
139.486
139.495
139.494
139.483
139.463
139.435
139.4
139.36
139.317
139.273
139.23
139.189
139.151
139.118
139.09
139.067
139.05
139.037
139.03
139.026
139.027
139.03
139.037
139.045
139.056
139.068
139.081
139.096
139.111
139.128
139.146
139.164
139.184
139.201
139.232
139.07
139.063
139.067
139.076
139.088
139.1
139.11
139.118
139.123
139.128
139.133
139.141
139.153
139.17
139.192
139.22
139.254
139.291
139.33
139.37
139.408
139.441
139.468
139.486
139.496
139.495
139.485
139.465
139.437
139.402
139.363
139.32
139.275
139.232
139.19
139.152
139.119
139.091
139.068
139.05
139.037
139.03
139.026
139.027
139.03
139.036
139.045
139.055
139.067
139.08
139.095
139.111
139.127
139.145
139.164
139.183
139.202
139.222
139.239
139.269
139.064
139.076
139.089
139.101
139.111
139.119
139.124
139.128
139.133
139.141
139.152
139.168
139.19
139.218
139.251
139.288
139.328
139.368
139.406
139.44
139.467
139.487
139.497
139.497
139.487
139.468
139.44
139.405
139.365
139.322
139.277
139.233
139.192
139.154
139.12
139.091
139.068
139.05
139.037
139.03
139.026
139.026
139.03
139.036
139.044
139.055
139.067
139.08
139.094
139.11
139.127
139.144
139.163
139.182
139.201
139.221
139.24
139.259
139.276
139.301
139.09
139.103
139.113
139.12
139.125
139.129
139.133
139.14
139.151
139.166
139.188
139.215
139.248
139.285
139.325
139.365
139.404
139.438
139.466
139.487
139.497
139.498
139.489
139.47
139.442
139.407
139.367
139.324
139.279
139.235
139.193
139.155
139.121
139.092
139.068
139.05
139.037
139.03
139.026
139.026
139.03
139.036
139.044
139.054
139.066
139.079
139.094
139.109
139.126
139.143
139.162
139.181
139.2
139.22
139.239
139.258
139.276
139.294
139.308
139.328
139.115
139.122
139.126
139.13
139.134
139.14
139.15
139.165
139.186
139.213
139.245
139.282
139.322
139.363
139.402
139.437
139.466
139.487
139.498
139.5
139.491
139.472
139.444
139.41
139.37
139.326
139.281
139.237
139.195
139.156
139.121
139.092
139.069
139.05
139.037
139.029
139.026
139.026
139.029
139.035
139.044
139.054
139.066
139.079
139.093
139.109
139.125
139.143
139.161
139.18
139.199
139.219
139.238
139.257
139.276
139.293
139.308
139.322
139.333
139.348
139.127
139.13
139.134
139.139
139.149
139.163
139.183
139.21
139.242
139.279
139.319
139.36
139.4
139.436
139.465
139.487
139.499
139.501
139.492
139.474
139.447
139.412
139.372
139.328
139.283
139.239
139.196
139.157
139.122
139.093
139.069
139.051
139.037
139.029
139.026
139.026
139.029
139.035
139.043
139.054
139.065
139.078
139.093
139.108
139.124
139.142
139.16
139.179
139.198
139.218
139.238
139.257
139.275
139.292
139.308
139.322
139.334
139.344
139.352
139.362
139.134
139.139
139.148
139.161
139.181
139.207
139.239
139.276
139.316
139.358
139.398
139.434
139.464
139.487
139.5
139.502
139.494
139.476
139.449
139.415
139.375
139.331
139.285
139.24
139.197
139.158
139.123
139.093
139.069
139.051
139.037
139.029
139.025
139.026
139.029
139.035
139.043
139.053
139.065
139.078
139.092
139.107
139.124
139.141
139.159
139.178
139.197
139.217
139.237
139.256
139.274
139.292
139.307
139.322
139.334
139.344
139.353
139.36
139.365
139.372
139.147
139.16
139.179
139.205
139.237
139.273
139.314
139.355
139.396
139.433
139.464
139.487
139.5
139.504
139.496
139.479
139.452
139.417
139.377
139.333
139.287
139.242
139.199
139.159
139.124
139.094
139.069
139.051
139.037
139.029
139.025
139.025
139.029
139.035
139.043
139.053
139.064
139.077
139.091
139.107
139.123
139.14
139.158
139.177
139.197
139.216
139.236
139.255
139.273
139.291
139.307
139.321
139.334
139.344
139.353
139.36
139.365
139.37
139.374
139.381
139.177
139.202
139.234
139.27
139.311
139.352
139.393
139.431
139.463
139.487
139.501
139.505
139.498
139.481
139.454
139.42
139.38
139.335
139.289
139.244
139.2
139.16
139.125
139.094
139.07
139.051
139.037
139.029
139.025
139.025
139.028
139.034
139.042
139.052
139.064
139.077
139.091
139.106
139.122
139.139
139.158
139.176
139.196
139.215
139.235
139.254
139.273
139.29
139.306
139.321
139.334
139.344
139.353
139.36
139.365
139.369
139.374
139.378
139.382
139.389
139.23
139.267
139.307
139.35
139.391
139.429
139.462
139.487
139.502
139.506
139.5
139.483
139.457
139.422
139.382
139.338
139.292
139.246
139.202
139.161
139.125
139.095
139.07
139.051
139.037
139.029
139.025
139.025
139.028
139.034
139.042
139.052
139.064
139.076
139.09
139.105
139.122
139.139
139.157
139.175
139.195
139.214
139.234
139.253
139.272
139.29
139.306
139.321
139.333
139.344
139.353
139.36
139.365
139.369
139.373
139.377
139.381
139.385
139.391
139.392
139.304
139.347
139.389
139.428
139.461
139.486
139.502
139.508
139.502
139.485
139.459
139.425
139.385
139.34
139.294
139.247
139.203
139.162
139.126
139.095
139.07
139.051
139.037
139.029
139.025
139.025
139.028
139.034
139.042
139.052
139.063
139.076
139.09
139.105
139.121
139.138
139.156
139.174
139.194
139.213
139.233
139.252
139.271
139.289
139.305
139.32
139.333
139.344
139.353
139.36
139.365
139.369
139.373
139.376
139.38
139.384
139.389
139.39
139.395
139.378
139.386
139.426
139.46
139.486
139.503
139.509
139.504
139.488
139.462
139.428
139.387
139.343
139.296
139.249
139.205
139.164
139.127
139.096
139.071
139.051
139.037
139.029
139.025
139.024
139.027
139.033
139.041
139.051
139.063
139.075
139.089
139.104
139.12
139.137
139.155
139.174
139.193
139.212
139.232
139.252
139.27
139.288
139.305
139.32
139.333
139.344
139.353
139.36
139.365
139.369
139.372
139.376
139.379
139.383
139.387
139.389
139.391
139.384
139.38
139.331
139.459
139.486
139.503
139.51
139.506
139.49
139.464
139.43
139.39
139.345
139.298
139.251
139.206
139.165
139.128
139.097
139.071
139.051
139.037
139.029
139.024
139.024
139.027
139.033
139.041
139.051
139.062
139.075
139.089
139.104
139.12
139.136
139.154
139.173
139.192
139.211
139.231
139.251
139.27
139.288
139.304
139.319
139.333
139.344
139.353
139.36
139.365
139.369
139.372
139.375
139.378
139.381
139.385
139.388
139.389
139.385
139.375
139.352
139.329
139.237
139.505
139.512
139.507
139.492
139.467
139.433
139.392
139.347
139.3
139.253
139.208
139.166
139.129
139.097
139.071
139.052
139.037
139.028
139.024
139.024
139.027
139.033
139.041
139.051
139.062
139.075
139.088
139.103
139.119
139.136
139.153
139.172
139.191
139.21
139.23
139.25
139.269
139.287
139.304
139.319
139.332
139.344
139.353
139.36
139.365
139.369
139.372
139.375
139.377
139.38
139.383
139.386
139.387
139.384
139.375
139.356
139.325
139.275
139.226
139.095
139.51
139.495
139.47
139.436
139.395
139.35
139.302
139.255
139.209
139.167
139.13
139.098
139.072
139.052
139.037
139.028
139.024
139.024
139.027
139.032
139.04
139.05
139.062
139.074
139.088
139.102
139.118
139.135
139.152
139.171
139.19
139.21
139.229
139.249
139.268
139.286
139.303
139.318
139.332
139.343
139.353
139.36
139.365
139.369
139.372
139.374
139.376
139.379
139.382
139.384
139.385
139.383
139.375
139.358
139.328
139.284
139.224
139.148
139.071
138.931
139.473
139.439
139.398
139.352
139.305
139.257
139.211
139.168
139.13
139.098
139.072
139.052
139.037
139.028
139.024
139.023
139.026
139.032
139.04
139.05
139.061
139.074
139.087
139.102
139.117
139.134
139.152
139.17
139.189
139.209
139.228
139.248
139.267
139.285
139.303
139.318
139.332
139.343
139.353
139.36
139.365
139.369
139.372
139.374
139.376
139.378
139.38
139.382
139.384
139.382
139.375
139.359
139.331
139.289
139.232
139.159
139.073
138.983
138.894
138.8
139.401
139.355
139.307
139.259
139.212
139.169
139.131
139.099
139.072
139.052
139.037
139.028
139.024
139.023
139.026
139.032
139.04
139.05
139.061
139.073
139.087
139.101
139.117
139.133
139.151
139.169
139.188
139.208
139.227
139.247
139.266
139.285
139.302
139.318
139.331
139.343
139.353
139.36
139.366
139.369
139.372
139.374
139.375
139.377
139.379
139.381
139.382
139.381
139.374
139.36
139.334
139.295
139.239
139.169
139.085
138.994
138.902
138.83
138.76
138.788
139.31
139.261
139.214
139.171
139.132
139.099
139.073
139.052
139.037
139.028
139.023
139.023
139.026
139.032
139.04
139.049
139.06
139.073
139.086
139.101
139.116
139.133
139.15
139.168
139.187
139.207
139.226
139.246
139.265
139.284
139.301
139.317
139.331
139.343
139.353
139.36
139.366
139.369
139.372
139.373
139.375
139.376
139.377
139.379
139.38
139.379
139.374
139.361
139.337
139.3
139.247
139.178
139.096
139.006
138.915
138.835
138.776
138.768
138.762
138.98
139.215
139.172
139.133
139.1
139.073
139.052
139.037
139.028
139.023
139.023
139.026
139.031
139.039
139.049
139.06
139.072
139.086
139.1
139.116
139.132
139.149
139.167
139.186
139.206
139.225
139.245
139.265
139.283
139.301
139.317
139.331
139.343
139.352
139.36
139.366
139.37
139.372
139.373
139.374
139.375
139.376
139.377
139.378
139.378
139.373
139.361
139.34
139.305
139.254
139.188
139.107
139.017
138.926
138.844
138.784
138.762
138.784
138.888
138.99
139.439
139.133
139.1
139.073
139.052
139.037
139.028
139.023
139.023
139.025
139.031
139.039
139.049
139.06
139.072
139.085
139.1
139.115
139.131
139.148
139.166
139.185
139.205
139.225
139.244
139.264
139.282
139.3
139.316
139.33
139.342
139.352
139.36
139.366
139.37
139.372
139.373
139.374
139.374
139.375
139.376
139.377
139.376
139.372
139.362
139.342
139.309
139.261
139.197
139.118
139.029
138.938
138.854
138.791
138.763
138.784
138.868
139.018
139.267
139.502
140.173
139.073
139.052
139.037
139.028
139.023
139.022
139.025
139.031
139.039
139.048
139.059
139.071
139.085
139.099
139.114
139.13
139.148
139.166
139.184
139.204
139.224
139.243
139.263
139.282
139.299
139.316
139.33
139.342
139.352
139.36
139.366
139.37
139.372
139.373
139.374
139.374
139.374
139.375
139.375
139.374
139.371
139.361
139.343
139.313
139.268
139.206
139.129
139.041
138.95
138.864
138.798
138.766
138.781
138.858
139.007
139.233
139.533
139.932
140.297
141.133
139.037
139.027
139.023
139.022
139.025
139.031
139.038
139.048
139.059
139.071
139.084
139.098
139.114
139.13
139.147
139.165
139.183
139.203
139.223
139.242
139.262
139.281
139.299
139.315
139.329
139.342
139.352
139.36
139.366
139.37
139.372
139.373
139.373
139.373
139.373
139.373
139.373
139.373
139.369
139.361
139.345
139.316
139.274
139.215
139.14
139.054
138.962
138.875
138.806
138.769
138.779
138.85
138.993
139.213
139.513
139.89
140.33
140.848
141.307
142.217
139.022
139.022
139.025
139.03
139.038
139.048
139.059
139.071
139.084
139.098
139.113
139.129
139.146
139.164
139.183
139.202
139.222
139.241
139.261
139.28
139.298
139.314
139.329
139.342
139.352
139.36
139.366
139.37
139.372
139.373
139.373
139.373
139.372
139.372
139.372
139.371
139.368
139.361
139.346
139.32
139.28
139.223
139.151
139.066
138.974
138.886
138.814
138.772
138.777
138.842
138.979
139.194
139.489
139.862
140.305
140.804
141.341
141.922
142.422
143.304
139.024
139.03
139.038
139.047
139.058
139.07
139.083
139.097
139.112
139.128
139.145
139.163
139.182
139.201
139.221
139.241
139.26
139.279
139.297
139.314
139.329
139.341
139.352
139.36
139.366
139.37
139.372
139.373
139.373
139.373
139.372
139.371
139.37
139.369
139.366
139.36
139.346
139.322
139.285
139.232
139.162
139.078
138.987
138.898
138.823
138.777
138.776
138.835
138.965
139.174
139.465
139.835
140.276
140.775
141.316
141.883
142.454
143.031
143.514
144.288
139.037
139.047
139.058
139.07
139.083
139.097
139.112
139.128
139.144
139.162
139.181
139.2
139.22
139.24
139.259
139.278
139.297
139.313
139.328
139.341
139.352
139.36
139.366
139.37
139.373
139.373
139.373
139.372
139.371
139.37
139.369
139.367
139.365
139.359
139.347
139.325
139.29
139.239
139.172
139.091
139
138.91
138.832
138.782
138.775
138.828
138.952
139.155
139.441
139.808
140.247
140.745
141.287
141.855
142.431
142.999
143.541
144.057
144.478
145.093
139.057
139.069
139.082
139.096
139.111
139.127
139.144
139.161
139.18
139.199
139.219
139.239
139.258
139.278
139.296
139.313
139.328
139.341
139.352
139.36
139.366
139.37
139.373
139.374
139.373
139.372
139.371
139.369
139.368
139.366
139.363
139.357
139.346
139.327
139.294
139.247
139.183
139.103
139.013
138.922
138.842
138.788
138.775
138.821
138.939
139.136
139.417
139.78
140.217
140.715
141.258
141.828
142.407
142.977
143.524
144.034
144.498
144.917
145.249
145.686
139.082
139.096
139.111
139.126
139.143
139.16
139.179
139.198
139.218
139.238
139.257
139.277
139.295
139.312
139.327
139.341
139.351
139.36
139.366
139.37
139.373
139.374
139.373
139.372
139.37
139.368
139.366
139.364
139.361
139.356
139.346
139.328
139.298
139.254
139.193
139.116
139.027
138.935
138.853
138.794
138.776
138.815
138.926
139.117
139.393
139.752
140.187
140.685
141.229
141.801
142.382
142.955
143.505
144.018
144.485
144.901
145.261
145.566
145.801
146.064
139.11
139.126
139.142
139.16
139.178
139.197
139.217
139.237
139.256
139.276
139.294
139.312
139.327
139.34
139.351
139.36
139.366
139.37
139.373
139.374
139.373
139.372
139.37
139.368
139.366
139.363
139.36
139.355
139.345
139.329
139.302
139.26
139.202
139.128
139.041
138.949
138.864
138.801
138.778
138.81
138.913
139.098
139.369
139.724
140.157
140.654
141.199
141.773
142.357
142.933
143.486
144.002
144.472
144.89
145.252
145.557
145.806
145.998
146.139
146.246
139.141
139.159
139.177
139.196
139.216
139.236
139.255
139.275
139.294
139.311
139.327
139.34
139.351
139.36
139.366
139.37
139.373
139.374
139.373
139.372
139.37
139.368
139.365
139.362
139.358
139.353
139.344
139.33
139.305
139.266
139.212
139.14
139.055
138.963
138.876
138.809
138.78
138.805
138.901
139.079
139.344
139.696
140.126
140.623
141.17
141.746
142.333
142.912
143.467
143.985
144.458
144.878
145.243
145.55
145.8
145.996
146.139
146.229
146.284
146.263
139.176
139.195
139.215
139.235
139.254
139.274
139.293
139.31
139.326
139.34
139.351
139.36
139.366
139.37
139.373
139.374
139.373
139.372
139.37
139.367
139.364
139.361
139.357
139.351
139.343
139.33
139.307
139.272
139.22
139.152
139.069
138.977
138.889
138.818
138.783
138.801
138.89
139.06
139.32
139.667
140.095
140.592
141.139
141.718
142.308
142.89
143.448
143.969
144.444
144.867
145.233
145.542
145.795
145.992
146.137
146.231
146.281
146.285
146.269
146.158
139.214
139.234
139.253
139.273
139.292
139.31
139.326
139.34
139.351
139.36
139.366
139.37
139.373
139.373
139.373
139.372
139.37
139.367
139.364
139.36
139.355
139.35
139.342
139.329
139.309
139.276
139.229
139.164
139.083
138.992
138.902
138.828
138.787
138.798
138.879
139.042
139.295
139.638
140.064
140.56
141.109
141.69
142.283
142.868
143.429
143.953
144.431
144.855
145.224
145.535
145.789
145.988
146.135
146.232
146.283
146.292
146.265
146.205
146.137
145.982
139.252
139.272
139.291
139.309
139.325
139.339
139.351
139.36
139.366
139.371
139.373
139.373
139.373
139.372
139.37
139.367
139.364
139.359
139.354
139.348
139.34
139.329
139.31
139.28
139.236
139.175
139.097
139.008
138.917
138.839
138.792
138.796
138.868
139.023
139.27
139.608
140.032
140.528
141.078
141.662
142.258
142.846
143.411
143.938
144.417
144.844
145.214
145.527
145.783
145.984
146.133
146.233
146.286
146.297
146.271
146.215
146.134
146.037
145.944
145.798
139.29
139.308
139.325
139.339
139.351
139.36
139.367
139.371
139.373
139.373
139.373
139.372
139.37
139.367
139.363
139.359
139.353
139.347
139.339
139.328
139.31
139.284
139.243
139.185
139.111
139.023
138.932
138.851
138.798
138.794
138.858
139.005
139.245
139.578
140
140.495
141.047
141.633
142.233
142.825
143.392
143.922
144.404
144.832
145.204
145.519
145.777
145.98
146.131
146.233
146.288
146.301
146.277
146.222
146.142
146.047
145.943
145.843
145.755
145.668
139.324
139.339
139.351
139.36
139.367
139.371
139.373
139.373
139.373
139.371
139.369
139.367
139.363
139.359
139.353
139.346
139.337
139.326
139.31
139.286
139.249
139.196
139.125
139.039
138.948
138.864
138.805
138.793
138.848
138.987
139.219
139.548
139.966
140.462
141.015
141.604
142.207
142.803
143.374
143.906
144.39
144.821
145.194
145.511
145.771
145.976
146.129
146.233
146.29
146.306
146.284
146.23
146.151
146.055
145.951
145.848
145.756
145.686
145.633
145.639
139.351
139.36
139.367
139.371
139.373
139.373
139.372
139.371
139.369
139.367
139.363
139.359
139.353
139.345
139.336
139.325
139.31
139.288
139.254
139.205
139.138
139.056
138.965
138.878
138.814
138.794
138.84
138.969
139.194
139.517
139.933
140.428
140.983
141.576
142.182
142.782
143.356
143.891
144.377
144.809
145.184
145.502
145.764
145.971
146.127
146.233
146.293
146.31
146.29
146.237
146.159
146.063
145.958
145.854
145.76
145.685
145.636
145.622
145.625
145.726
139.368
139.372
139.373
139.373
139.372
139.371
139.369
139.366
139.363
139.359
139.353
139.345
139.335
139.324
139.309
139.288
139.258
139.213
139.151
139.072
138.982
138.893
138.824
138.796
138.832
138.952
139.168
139.485
139.898
140.393
140.95
141.546
142.157
142.76
143.338
143.875
144.364
144.798
145.174
145.494
145.757
145.967
146.124
146.232
146.295
146.314
146.296
146.245
146.167
146.071
145.966
145.86
145.763
145.686
145.634
145.614
145.628
145.678
145.739
145.906
139.374
139.374
139.372
139.37
139.368
139.366
139.363
139.359
139.353
139.345
139.335
139.322
139.308
139.288
139.261
139.221
139.163
139.089
139
138.91
138.835
138.799
138.825
138.934
139.142
139.453
139.862
140.357
140.917
141.517
142.132
142.739
143.32
143.86
144.351
144.786
145.164
145.485
145.751
145.962
146.121
146.232
146.296
146.318
146.302
146.252
146.176
146.08
145.974
145.866
145.767
145.687
145.632
145.609
145.621
145.666
145.741
145.843
145.943
146.124
139.372
139.37
139.367
139.365
139.363
139.359
139.353
139.345
139.334
139.321
139.306
139.288
139.263
139.227
139.175
139.105
139.019
138.928
138.849
138.804
138.82
138.918
139.115
139.419
139.826
140.321
140.883
141.487
142.107
142.719
143.303
143.846
144.338
144.775
145.154
145.477
145.743
145.957
146.118
146.231
146.298
146.322
146.308
146.26
146.184
146.089
145.982
145.873
145.772
145.688
145.63
145.604
145.613
145.657
145.731
145.831
145.945
146.065
146.174
146.309
139.367
139.364
139.362
139.359
139.354
139.346
139.335
139.321
139.305
139.286
139.263
139.231
139.185
139.12
139.039
138.948
138.865
138.811
138.815
138.901
139.088
139.385
139.788
140.283
140.848
141.457
142.082
142.698
143.286
143.831
144.325
144.763
145.144
145.467
145.736
145.951
146.115
146.23
146.3
146.326
146.313
146.267
146.193
146.098
145.99
145.88
145.777
145.69
145.629
145.599
145.605
145.647
145.721
145.82
145.936
146.058
146.174
146.274
146.355
146.4
139.361
139.358
139.354
139.347
139.336
139.321
139.304
139.285
139.263
139.234
139.193
139.135
139.059
138.969
138.882
138.821
138.813
138.886
139.061
139.349
139.748
140.244
140.813
141.427
142.057
142.678
143.27
143.817
144.313
144.751
145.133
145.458
145.728
145.946
146.112
146.23
146.301
146.33
146.319
146.274
146.201
146.107
145.999
145.887
145.782
145.692
145.627
145.594
145.598
145.637
145.71
145.81
145.927
146.05
146.169
146.273
146.353
146.399
146.427
146.367
139.354
139.348
139.337
139.323
139.304
139.284
139.261
139.235
139.199
139.148
139.078
138.992
138.903
138.833
138.813
138.871
139.034
139.313
139.707
140.203
140.776
141.396
142.033
142.659
143.254
143.804
144.3
144.74
145.122
145.448
145.72
145.94
146.108
146.229
146.302
146.333
146.324
146.281
146.209
146.116
146.008
145.895
145.787
145.695
145.626
145.59
145.59
145.627
145.699
145.799
145.917
146.043
146.164
146.27
146.353
146.405
146.423
146.401
146.366
146.216
139.339
139.324
139.305
139.283
139.259
139.234
139.203
139.159
139.097
139.016
138.926
138.849
138.815
138.858
139.006
139.274
139.664
140.161
140.738
141.365
142.009
142.641
143.24
143.791
144.288
144.728
145.111
145.438
145.712
145.934
146.105
146.228
146.304
146.337
146.33
146.288
146.218
146.124
146.017
145.903
145.793
145.698
145.626
145.586
145.582
145.617
145.688
145.787
145.907
146.035
146.159
146.268
146.353
146.408
146.427
146.411
146.361
146.275
146.187
145.984
139.308
139.284
139.258
139.232
139.204
139.167
139.114
139.041
138.952
138.869
138.821
138.847
138.978
139.234
139.618
140.116
140.699
141.334
141.986
142.624
143.226
143.779
144.276
144.716
145.099
145.427
145.703
145.927
146.101
146.227
146.305
146.34
146.335
146.295
146.225
146.133
146.026
145.911
145.8
145.702
145.626
145.582
145.575
145.607
145.676
145.776
145.896
146.026
146.153
146.266
146.354
146.411
146.432
146.417
146.367
146.286
146.181
146.053
145.935
145.722
139.259
139.23
139.202
139.171
139.128
139.065
138.981
138.893
138.832
138.838
138.95
139.191
139.569
140.068
140.658
141.303
141.963
142.608
143.214
143.768
144.264
144.703
145.086
145.416
145.693
145.92
146.097
146.226
146.307
146.344
146.34
146.301
146.233
146.142
146.035
145.92
145.807
145.706
145.627
145.578
145.567
145.596
145.664
145.763
145.886
146.018
146.148
146.263
146.354
146.414
146.437
146.424
146.375
146.295
146.188
146.063
145.928
145.785
145.666
145.474
139.199
139.17
139.137
139.087
139.014
138.924
138.85
138.834
138.922
139.146
139.515
140.015
140.615
141.271
141.942
142.594
143.203
143.757
144.253
144.69
145.073
145.404
145.683
145.913
146.094
146.225
146.308
146.347
146.345
146.308
146.241
146.15
146.044
145.929
145.815
145.711
145.628
145.575
145.56
145.585
145.651
145.751
145.874
146.009
146.142
146.261
146.355
146.416
146.442
146.43
146.382
146.303
146.196
146.07
145.933
145.79
145.654
145.52
145.423
145.245
139.137
139.103
139.046
138.963
138.877
138.836
138.895
139.097
139.456
139.958
140.568
141.239
141.923
142.583
143.195
143.748
144.241
144.677
145.059
145.39
145.673
145.906
146.09
146.224
146.31
146.351
146.351
146.314
146.248
146.158
146.052
145.938
145.823
145.717
145.63
145.573
145.553
145.575
145.638
145.737
145.862
146
146.137
146.259
146.355
146.419
146.447
146.436
146.39
146.311
146.204
146.078
145.939
145.795
145.653
145.519
145.402
145.281
145.211
144.978
139.072
139.009
138.918
138.849
138.872
139.043
139.388
139.894
140.518
141.206
141.906
142.575
143.19
143.741
144.23
144.662
145.043
145.376
145.661
145.899
146.086
146.224
146.312
146.355
146.356
146.32
146.255
146.166
146.061
145.946
145.831
145.723
145.633
145.571
145.546
145.564
145.624
145.723
145.85
145.991
146.131
146.256
146.356
146.423
146.452
146.443
146.397
146.318
146.212
146.086
145.945
145.799
145.655
145.518
145.393
145.278
145.175
145.039
144.962
144.542
138.984
138.888
138.858
138.984
139.309
139.819
140.463
141.175
141.893
142.573
143.19
143.737
144.219
144.646
145.025
145.36
145.65
145.891
146.083
146.224
146.315
146.359
146.36
146.326
146.261
146.172
146.068
145.954
145.839
145.73
145.637
145.571
145.541
145.553
145.61
145.708
145.836
145.981
146.125
146.255
146.358
146.426
146.457
146.449
146.404
146.326
146.22
146.093
145.952
145.805
145.658
145.517
145.388
145.27
145.159
145.043
144.908
144.691
144.521
143.762
138.879
138.922
139.21
139.729
140.404
141.148
141.89
142.58
143.197
143.737
144.21
144.631
145.008
145.345
145.64
145.887
146.083
146.226
146.319
146.363
146.366
146.331
146.266
146.178
146.074
145.96
145.845
145.735
145.64
145.57
145.535
145.543
145.597
145.694
145.824
145.972
146.121
146.255
146.361
146.432
146.463
146.455
146.41
146.333
146.228
146.101
145.959
145.81
145.661
145.519
145.387
145.266
145.153
145.038
144.903
144.719
144.462
144.071
143.677
142.525
139.003
139.599
140.356
141.156
141.922
142.614
143.22
143.745
144.206
144.619
144.995
145.338
145.641
145.895
146.095
146.239
146.331
146.375
146.376
146.34
146.274
146.184
146.078
145.963
145.846
145.733
145.634
145.56
145.52
145.524
145.577
145.676
145.812
145.969
146.126
146.266
146.375
146.446
146.476
146.467
146.422
146.344
146.238
146.109
145.965
145.813
145.662
145.518
145.385
145.265
145.155
145.046
144.922
144.754
144.509
144.154
143.663
143.011
142.26
140.936
)
;

boundaryField
{
    bottomwall
    {
        type            opaque;
        refValue        uniform 0;
        refGradient     uniform 0;
        valueFraction   uniform 0;
        source          uniform 0;
        value           nonuniform List<scalar> 
60
(
139.005
139.036
139.064
139.09
139.113
139.137
139.165
139.198
139.237
139.28
139.324
139.363
139.394
139.411
139.413
139.399
139.371
139.333
139.288
139.242
139.199
139.161
139.131
139.11
139.096
139.089
139.087
139.089
139.094
139.1
139.107
139.115
139.125
139.137
139.152
139.172
139.195
139.223
139.254
139.288
139.324
139.359
139.392
139.422
139.447
139.465
139.475
139.476
139.47
139.455
139.432
139.403
139.369
139.332
139.293
139.253
139.214