/*--------------------------------*- C++ -*----------------------------------*\
| =========                 |                                                 |
| \\      /  F ield         | OpenFOAM: The Open Source CFD Toolbox           |
|  \\    /   O peration     | Version:  2406                                  |
|   \\  /    A nd           | Website:  www.openfoam.com                      |
|    \\/     M anipulation  |                                                 |
\*---------------------------------------------------------------------------*/
FoamFile
{
    version     2.0;
    format      ascii;
    arch        "LSB;label=32;scalar=64";
    class       volScalarField;
    location    "5000";
    object      p;
}
// * * * * * * * * * * * * * * * * * * * * * * * * * * * * * * * * * * * * * //

dimensions      [0 2 -2 0 0 0 0];

internalField   nonuniform List<scalar> 
3600
(
0
-0.000189684
-0.000669246
-0.00119593
-0.00175438
-0.00234722
-0.00299539
-0.00372187
-0.00454421
-0.00547185
-0.00650536
-0.00763719
-0.00885312
-0.0101341
-0.0114585
-0.0128032
-0.0141462
-0.0154667
-0.0167468
-0.0179712
-0.019128
-0.0202084
-0.0212062
-0.0221183
-0.0229435
-0.0236829
-0.0243395
-0.0249174
-0.0254215
-0.0258573
-0.0262309
-0.0265494
-0.0268231
-0.0270678
-0.0273076
-0.0275764
-0.0279167
-0.0283732
-0.028982
-0.0297532
-0.0306541
-0.0315984
-0.0324513
-0.0330577
-0.0332758
-0.0330131
-0.0322393
-0.0309785
-0.0292933
-0.0272725
-0.0250231
-0.022663
-0.0203159
-0.0181044
-0.0161349
-0.0144843
-0.0131942
-0.0122761
-0.0116872
-0.0116491
-0.162707
-0.162554
-0.16273
-0.163011
-0.163393
-0.163864
-0.164427
-0.16509
-0.165858
-0.166732
-0.167709
-0.168779
-0.169926
-0.171131
-0.172375
-0.173636
-0.174892
-0.176125
-0.177318
-0.178457
-0.179531
-0.180532
-0.181455
-0.182297
-0.183056
-0.183735
-0.184335
-0.184861
-0.185318
-0.185712
-0.18605
-0.186339
-0.186589
-0.18681
-0.187018
-0.187229
-0.187465
-0.187745
-0.188086
-0.188486
-0.188921
-0.189342
-0.189674
-0.189845
-0.18979
-0.189469
-0.18886
-0.187956
-0.186767
-0.185327
-0.183693
-0.181946
-0.180185
-0.178516
-0.177036
-0.175824
-0.174932
-0.174386
-0.174143
-0.174475
-0.325345
-0.325053
-0.325032
-0.325119
-0.325337
-0.325676
-0.326135
-0.326717
-0.327421
-0.328243
-0.329174
-0.330201
-0.331305
-0.332466
-0.333663
-0.334872
-0.336074
-0.337249
-0.338381
-0.339456
-0.340465
-0.341399
-0.342254
-0.343027
-0.343719
-0.344331
-0.344865
-0.345327
-0.34572
-0.346052
-0.346329
-0.346556
-0.346743
-0.346895
-0.34702
-0.347128
-0.347229
-0.347336
-0.347458
-0.347597
-0.347743
-0.347867
-0.347937
-0.347927
-0.347818
-0.347589
-0.34721
-0.346641
-0.345848
-0.344824
-0.343597
-0.342233
-0.340824
-0.339477
-0.3383
-0.337379
-0.336775
-0.336516
-0.336531
-0.337056
-0.488076
-0.487762
-0.487639
-0.487602
-0.487696
-0.487928
-0.488299
-0.488811
-0.489461
-0.490239
-0.491131
-0.492122
-0.493189
-0.494309
-0.49546
-0.496618
-0.497763
-0.498875
-0.499939
-0.500943
-0.501876
-0.502732
-0.503508
-0.504201
-0.504812
-0.505342
-0.505796
-0.506177
-0.50649
-0.506742
-0.506938
-0.507084
-0.507185
-0.507246
-0.50727
-0.507261
-0.507226
-0.507173
-0.50711
-0.507045
-0.506982
-0.506917
-0.506851
-0.506796
-0.506761
-0.50673
-0.506652
-0.506448
-0.506044
-0.505399
-0.50452
-0.503466
-0.502325
-0.501212
-0.500241
-0.499509
-0.499081
-0.498983
-0.499118
-0.49968
-0.650906
-0.650608
-0.650438
-0.650331
-0.650346
-0.650501
-0.650807
-0.651267
-0.651875
-0.652621
-0.653486
-0.65445
-0.655489
-0.656577
-0.657689
-0.658802
-0.659894
-0.660947
-0.661946
-0.662879
-0.663737
-0.664514
-0.665206
-0.665815
-0.666338
-0.666781
-0.667145
-0.667435
-0.667657
-0.667816
-0.667918
-0.667967
-0.667967
-0.667922
-0.667833
-0.667704
-0.667539
-0.667345
-0.667135
-0.666924
-0.666729
-0.666569
-0.666472
-0.666477
-0.666606
-0.666832
-0.667075
-0.667215
-0.667147
-0.666809
-0.666198
-0.66537
-0.664417
-0.663455
-0.662609
-0.661982
-0.661645
-0.661618
-0.661795
-0.66234
-0.813846
-0.813565
-0.813382
-0.813244
-0.813217
-0.813328
-0.813595
-0.814023
-0.814607
-0.815334
-0.816183
-0.81713
-0.818148
-0.81921
-0.820288
-0.821359
-0.822401
-0.823397
-0.824331
-0.825194
-0.825977
-0.826675
-0.827285
-0.827807
-0.828243
-0.828596
-0.828868
-0.829064
-0.82919
-0.829251
-0.829252
-0.829197
-0.829091
-0.828936
-0.828735
-0.82849
-0.828208
-0.827899
-0.827577
-0.827267
-0.826997
-0.826807
-0.826747
-0.826868
-0.827198
-0.82769
-0.828229
-0.828667
-0.828875
-0.82878
-0.828377
-0.827718
-0.826897
-0.826035
-0.825257
-0.824676
-0.824366
-0.82435
-0.824521
-0.825041
-0.976876
-0.976604
-0.976425
-0.976279
-0.976237
-0.976331
-0.976581
-0.976997
-0.977573
-0.978294
-0.979137
-0.980074
-0.981078
-0.982117
-0.983165
-0.984197
-0.985192
-0.986132
-0.987006
-0.987801
-0.988512
-0.989135
-0.989666
-0.990107
-0.990459
-0.990725
-0.990909
-0.991015
-0.991048
-0.991013
-0.990916
-0.990761
-0.990551
-0.990291
-0.989985
-0.989638
-0.989256
-0.988854
-0.988451
-0.988076
-0.987772
-0.987589
-0.987594
-0.987845
-0.988368
-0.989094
-0.989881
-0.990559
-0.990984
-0.99108
-0.990836
-0.990308
-0.989583
-0.988784
-0.988039
-0.987464
-0.987142
-0.987103
-0.987244
-0.987742
-1.13997
-1.1397
-1.13953
-1.13939
-1.13935
-1.13944
-1.1397
-1.14012
-1.1407
-1.14142
-1.14227
-1.1432
-1.14419
-1.14521
-1.14623
-1.14723
-1.14818
-1.14906
-1.14988
-1.15061
-1.15126
-1.15181
-1.15227
-1.15263
-1.15291
-1.1531
-1.1532
-1.15323
-1.15317
-1.15305
-1.15287
-1.15262
-1.15232
-1.15197
-1.15157
-1.15114
-1.15067
-1.1502
-1.14974
-1.14933
-1.14901
-1.14885
-1.14892
-1.14929
-1.14996
-1.15087
-1.15184
-1.15269
-1.15328
-1.15353
-1.15341
-1.15298
-1.15233
-1.15158
-1.15084
-1.15025
-1.1499
-1.14981
-1.14992
-1.1504
-1.3031
-1.30282
-1.30266
-1.30253
-1.3025
-1.30261
-1.30288
-1.30332
-1.30392
-1.30465
-1.3055
-1.30644
-1.30742
-1.30842
-1.30941
-1.31037
-1.31127
-1.31211
-1.31287
-1.31354
-1.31412
-1.31461
-1.31501
-1.31531
-1.31552
-1.31564
-1.31567
-1.31563
-1.31551
-1.31531
-1.31505
-1.31473
-1.31435
-1.31393
-1.31346
-1.31295
-1.31243
-1.3119
-1.3114
-1.31097
-1.31065
-1.31051
-1.31063
-1.31107
-1.31184
-1.31286
-1.31395
-1.31492
-1.31563
-1.31598
-1.31597
-1.31563
-1.31504
-1.31432
-1.31359
-1.31297
-1.31257
-1.31244
-1.3125
-1.31296
-1.46623
-1.46594
-1.46579
-1.46567
-1.46567
-1.46581
-1.4661
-1.46656
-1.46718
-1.46793
-1.46879
-1.46972
-1.4707
-1.47167
-1.47263
-1.47355
-1.47441
-1.4752
-1.47591
-1.47652
-1.47705
-1.47748
-1.47782
-1.47806
-1.47822
-1.47828
-1.47826
-1.47816
-1.47798
-1.47773
-1.47742
-1.47704
-1.4766
-1.47612
-1.47559
-1.47504
-1.47447
-1.47391
-1.47338
-1.47293
-1.47261
-1.47248
-1.47262
-1.47309
-1.4739
-1.47496
-1.4761
-1.47714
-1.47792
-1.47836
-1.47843
-1.47817
-1.47764
-1.47695
-1.47621
-1.47557
-1.47512
-1.47494
-1.47495
-1.47539
-1.62935
-1.62904
-1.6289
-1.62881
-1.62883
-1.62899
-1.62932
-1.62981
-1.63045
-1.63123
-1.63209
-1.63302
-1.63397
-1.63493
-1.63585
-1.63673
-1.63754
-1.63828
-1.63894
-1.6395
-1.63998
-1.64036
-1.64065
-1.64084
-1.64095
-1.64097
-1.64091
-1.64077
-1.64055
-1.64026
-1.6399
-1.63948
-1.639
-1.63848
-1.63792
-1.63733
-1.63673
-1.63615
-1.6356
-1.63514
-1.63481
-1.63467
-1.63481
-1.63526
-1.63604
-1.63708
-1.63822
-1.63927
-1.64009
-1.64058
-1.64072
-1.64053
-1.64006
-1.6394
-1.63868
-1.63801
-1.63752
-1.63729
-1.63727
-1.63767
-1.79244
-1.79212
-1.79199
-1.79191
-1.79196
-1.79216
-1.79252
-1.79304
-1.79371
-1.79449
-1.79536
-1.79628
-1.79722
-1.79814
-1.79903
-1.79986
-1.80063
-1.80132
-1.80192
-1.80244
-1.80287
-1.8032
-1.80345
-1.80361
-1.80368
-1.80367
-1.80357
-1.8034
-1.80315
-1.80283
-1.80245
-1.802
-1.8015
-1.80096
-1.80037
-1.79977
-1.79915
-1.79856
-1.798
-1.79753
-1.79718
-1.79702
-1.79711
-1.7975
-1.79821
-1.79917
-1.80025
-1.80127
-1.80209
-1.80262
-1.80281
-1.80268
-1.80226
-1.80165
-1.80095
-1.80027
-1.79975
-1.79948
-1.79941
-1.79978
-1.95548
-1.95515
-1.95503
-1.95497
-1.95505
-1.95528
-1.95568
-1.95623
-1.95692
-1.95772
-1.95858
-1.95949
-1.9604
-1.96128
-1.96213
-1.96292
-1.96363
-1.96427
-1.96483
-1.9653
-1.96569
-1.96599
-1.9662
-1.96633
-1.96637
-1.96633
-1.96621
-1.96602
-1.96576
-1.96542
-1.96503
-1.96457
-1.96406
-1.9635
-1.96291
-1.9623
-1.96168
-1.96107
-1.96051
-1.96001
-1.95964
-1.95944
-1.95946
-1.95977
-1.96036
-1.9612
-1.96216
-1.96311
-1.9639
-1.96443
-1.96466
-1.96458
-1.96423
-1.96367
-1.963
-1.96234
-1.9618
-1.96149
-1.96139
-1.96171
-2.11847
-2.11813
-2.11802
-2.11798
-2.11809
-2.11835
-2.11878
-2.11936
-2.12007
-2.12087
-2.12173
-2.12261
-2.12349
-2.12434
-2.12514
-2.12588
-2.12655
-2.12714
-2.12765
-2.12808
-2.12843
-2.12869
-2.12887
-2.12897
-2.129
-2.12894
-2.12881
-2.12861
-2.12833
-2.128
-2.1276
-2.12714
-2.12663
-2.12607
-2.12548
-2.12487
-2.12425
-2.12364
-2.12307
-2.12255
-2.12215
-2.12189
-2.12183
-2.12201
-2.12246
-2.12314
-2.12395
-2.12479
-2.12551
-2.12603
-2.12628
-2.12625
-2.12596
-2.12545
-2.12483
-2.12419
-2.12365
-2.12332
-2.12319
-2.12346
-2.2814
-2.28106
-2.28096
-2.28094
-2.28107
-2.28137
-2.28183
-2.28243
-2.28315
-2.28395
-2.28479
-2.28564
-2.28648
-2.28729
-2.28804
-2.28873
-2.28935
-2.2899
-2.29037
-2.29076
-2.29107
-2.29131
-2.29146
-2.29154
-2.29155
-2.29148
-2.29134
-2.29114
-2.29086
-2.29053
-2.29013
-2.28968
-2.28918
-2.28864
-2.28806
-2.28745
-2.28683
-2.28622
-2.28563
-2.2851
-2.28465
-2.28432
-2.28416
-2.28421
-2.28449
-2.28498
-2.28562
-2.28631
-2.28693
-2.28741
-2.28766
-2.28767
-2.28744
-2.287
-2.28643
-2.28583
-2.28531
-2.28497
-2.28482
-2.28503
-2.44425
-2.44391
-2.44383
-2.44382
-2.44399
-2.44431
-2.4448
-2.44541
-2.44614
-2.44693
-2.44775
-2.44857
-2.44937
-2.45013
-2.45083
-2.45147
-2.45205
-2.45255
-2.45298
-2.45334
-2.45362
-2.45383
-2.45396
-2.45403
-2.45402
-2.45395
-2.45381
-2.4536
-2.45333
-2.45301
-2.45262
-2.45218
-2.4517
-2.45116
-2.4506
-2.45
-2.44939
-2.44878
-2.44818
-2.44762
-2.44712
-2.44671
-2.44644
-2.44635
-2.44644
-2.44673
-2.44717
-2.44769
-2.44819
-2.44859
-2.44884
-2.44887
-2.4487
-2.44833
-2.44783
-2.44728
-2.44679
-2.44645
-2.44629
-2.44644
-2.60703
-2.60669
-2.60662
-2.60664
-2.60683
-2.60718
-2.60768
-2.60831
-2.60903
-2.6098
-2.61059
-2.61138
-2.61213
-2.61285
-2.6135
-2.6141
-2.61463
-2.61509
-2.61548
-2.61581
-2.61606
-2.61625
-2.61637
-2.61642
-2.61641
-2.61633
-2.6162
-2.616
-2.61574
-2.61542
-2.61505
-2.61463
-2.61416
-2.61364
-2.61309
-2.61251
-2.6119
-2.61129
-2.61067
-2.61008
-2.60953
-2.60905
-2.60866
-2.60841
-2.60832
-2.60839
-2.60862
-2.60895
-2.60931
-2.60962
-2.60983
-2.60988
-2.60976
-2.60946
-2.60904
-2.60856
-2.60811
-2.60779
-2.60762
-2.60771
-2.76973
-2.7694
-2.76933
-2.76937
-2.76958
-2.76995
-2.77047
-2.7711
-2.77181
-2.77256
-2.77333
-2.77407
-2.77478
-2.77545
-2.77606
-2.77661
-2.7771
-2.77753
-2.77789
-2.77818
-2.77842
-2.77859
-2.77869
-2.77874
-2.77872
-2.77864
-2.77851
-2.77832
-2.77807
-2.77776
-2.77741
-2.77701
-2.77655
-2.77606
-2.77552
-2.77495
-2.77435
-2.77374
-2.77311
-2.77248
-2.77188
-2.77131
-2.77081
-2.7704
-2.77012
-2.76998
-2.76999
-2.77011
-2.77031
-2.77053
-2.77069
-2.77074
-2.77066
-2.77044
-2.77009
-2.76968
-2.76929
-2.76899
-2.76883
-2.76886
-2.93233
-2.93201
-2.93196
-2.93202
-2.93225
-2.93264
-2.93317
-2.93379
-2.93449
-2.93521
-2.93594
-2.93664
-2.93731
-2.93793
-2.9385
-2.93901
-2.93947
-2.93986
-2.94019
-2.94047
-2.94068
-2.94083
-2.94093
-2.94097
-2.94095
-2.94088
-2.94075
-2.94056
-2.94033
-2.94004
-2.9397
-2.93932
-2.93888
-2.93841
-2.93789
-2.93733
-2.93673
-2.93611
-2.93547
-2.93481
-2.93414
-2.93349
-2.93287
-2.93231
-2.93185
-2.9315
-2.93129
-2.93122
-2.93125
-2.93135
-2.93145
-2.9315
-2.93145
-2.93129
-2.93103
-2.9307
-2.93036
-2.9301
-2.92995
-2.92992
-3.09484
-3.09453
-3.0945
-3.09458
-3.09482
-3.09522
-3.09575
-3.09637
-3.09705
-3.09775
-3.09844
-3.0991
-3.09973
-3.10031
-3.10084
-3.10131
-3.10173
-3.1021
-3.10241
-3.10266
-3.10286
-3.103
-3.10309
-3.10313
-3.10311
-3.10304
-3.10291
-3.10274
-3.10252
-3.10225
-3.10193
-3.10156
-3.10114
-3.10068
-3.10018
-3.09963
-3.09904
-3.09841
-3.09775
-3.09706
-3.09633
-3.0956
-3.09487
-3.09416
-3.09352
-3.09297
-3.09255
-3.09228
-3.09215
-3.09212
-3.09216
-3.09219
-3.09217
-3.09207
-3.09189
-3.09163
-3.09137
-3.09114
-3.091
-3.09093
-3.25725
-3.25696
-3.25694
-3.25703
-3.2573
-3.25771
-3.25823
-3.25884
-3.2595
-3.26016
-3.26082
-3.26145
-3.26203
-3.26258
-3.26307
-3.26352
-3.26391
-3.26425
-3.26454
-3.26478
-3.26496
-3.2651
-3.26518
-3.26521
-3.2652
-3.26513
-3.26502
-3.26486
-3.26465
-3.26439
-3.26408
-3.26373
-3.26334
-3.26289
-3.2624
-3.26186
-3.26128
-3.26064
-3.25996
-3.25922
-3.25845
-3.25763
-3.25679
-3.25595
-3.25513
-3.2544
-3.25379
-3.25333
-3.25303
-3.25289
-3.25285
-3.25286
-3.25286
-3.25282
-3.2527
-3.25253
-3.25233
-3.25214
-3.25202
-3.25191
-3.41957
-3.41928
-3.41928
-3.41939
-3.41967
-3.42008
-3.4206
-3.4212
-3.42183
-3.42247
-3.42309
-3.42368
-3.42423
-3.42475
-3.42521
-3.42563
-3.426
-3.42632
-3.4266
-3.42682
-3.427
-3.42713
-3.42721
-3.42724
-3.42723
-3.42717
-3.42706
-3.42691
-3.42671
-3.42647
-3.42618
-3.42584
-3.42546
-3.42503
-3.42455
-3.42402
-3.42344
-3.42279
-3.42209
-3.42132
-3.42048
-3.41959
-3.41865
-3.41767
-3.41671
-3.4158
-3.41501
-3.41438
-3.41393
-3.41367
-3.41356
-3.41355
-3.41357
-3.41357
-3.41352
-3.41342
-3.41328
-3.41314
-3.41304
-3.41289
-3.58177
-3.58151
-3.58152
-3.58164
-3.58193
-3.58235
-3.58286
-3.58344
-3.58405
-3.58466
-3.58525
-3.58581
-3.58634
-3.58682
-3.58726
-3.58766
-3.58801
-3.58832
-3.58858
-3.5888
-3.58897
-3.58909
-3.58917
-3.58921
-3.5892
-3.58914
-3.58904
-3.5889
-3.58872
-3.58849
-3.58821
-3.58789
-3.58753
-3.58711
-3.58664
-3.58611
-3.58553
-3.58487
-3.58414
-3.58334
-3.58245
-3.58148
-3.58044
-3.57935
-3.57824
-3.57718
-3.57623
-3.57544
-3.57486
-3.5745
-3.57432
-3.57429
-3.57432
-3.57436
-3.57438
-3.57434
-3.57426
-3.57416
-3.57408
-3.57391
-3.74387
-3.74363
-3.74365
-3.74379
-3.74408
-3.7445
-3.74501
-3.74557
-3.74616
-3.74674
-3.74731
-3.74784
-3.74834
-3.74881
-3.74923
-3.74961
-3.74995
-3.75025
-3.7505
-3.75071
-3.75088
-3.751
-3.75108
-3.75112
-3.75111
-3.75107
-3.75098
-3.75085
-3.75067
-3.75046
-3.75019
-3.74989
-3.74953
-3.74913
-3.74866
-3.74814
-3.74755
-3.74688
-3.74613
-3.74528
-3.74434
-3.74331
-3.74217
-3.74098
-3.73975
-3.73855
-3.73746
-3.73654
-3.73585
-3.73539
-3.73516
-3.7351
-3.73514
-3.73523
-3.73529
-3.73531
-3.73529
-3.73523
-3.73517
-3.73498
-3.90586
-3.90564
-3.90568
-3.90583
-3.90613
-3.90655
-3.90705
-3.9076
-3.90816
-3.90872
-3.90927
-3.90978
-3.91026
-3.91071
-3.91112
-3.91149
-3.91182
-3.91211
-3.91236
-3.91257
-3.91274
-3.91286
-3.91294
-3.91298
-3.91298
-3.91294
-3.91286
-3.91274
-3.91258
-3.91237
-3.91212
-3.91183
-3.91148
-3.91108
-3.91062
-3.9101
-3.9095
-3.90882
-3.90804
-3.90717
-3.90617
-3.90507
-3.90386
-3.90256
-3.90123
-3.89992
-3.89871
-3.89768
-3.89689
-3.89636
-3.89609
-3.89601
-3.89606
-3.89618
-3.89629
-3.89637
-3.89639
-3.89636
-3.89632
-3.89613
-4.06775
-4.06755
-4.0676
-4.06776
-4.06807
-4.06848
-4.06898
-4.06951
-4.07006
-4.0706
-4.07113
-4.07163
-4.0721
-4.07253
-4.07293
-4.0733
-4.07363
-4.07391
-4.07416
-4.07437
-4.07454
-4.07467
-4.07475
-4.0748
-4.07481
-4.07477
-4.0747
-4.07459
-4.07443
-4.07424
-4.074
-4.07371
-4.07338
-4.07298
-4.07253
-4.072
-4.07139
-4.0707
-4.0699
-4.06898
-4.06794
-4.06677
-4.06549
-4.06411
-4.06269
-4.06129
-4.05999
-4.05887
-4.05801
-4.05743
-4.05712
-4.05703
-4.0571
-4.05724
-4.05739
-4.05751
-4.05758
-4.05759
-4.05757
-4.05737
-4.22952
-4.22935
-4.22941
-4.22958
-4.2299
-4.23031
-4.2308
-4.23132
-4.23186
-4.23239
-4.2329
-4.23339
-4.23385
-4.23428
-4.23468
-4.23504
-4.23537
-4.23566
-4.23591
-4.23612
-4.2363
-4.23643
-4.23652
-4.23657
-4.23659
-4.23656
-4.23649
-4.23639
-4.23625
-4.23606
-4.23583
-4.23555
-4.23522
-4.23483
-4.23437
-4.23384
-4.23322
-4.23251
-4.23168
-4.23073
-4.22965
-4.22843
-4.22708
-4.22563
-4.22413
-4.22266
-4.2213
-4.22013
-4.21922
-4.2186
-4.21827
-4.21817
-4.21825
-4.21842
-4.21861
-4.21877
-4.21888
-4.21892
-4.21891
-4.21872
-4.39119
-4.39104
-4.39111
-4.3913
-4.39162
-4.39203
-4.39251
-4.39303
-4.39355
-4.39407
-4.39458
-4.39506
-4.39552
-4.39595
-4.39635
-4.39672
-4.39705
-4.39735
-4.39761
-4.39782
-4.398
-4.39814
-4.39824
-4.3983
-4.39832
-4.3983
-4.39825
-4.39815
-4.39801
-4.39783
-4.39761
-4.39733
-4.39701
-4.39662
-4.39616
-4.39562
-4.39499
-4.39426
-4.39341
-4.39242
-4.39129
-4.39002
-4.38862
-4.38712
-4.38557
-4.38405
-4.38265
-4.38144
-4.38051
-4.37988
-4.37954
-4.37945
-4.37954
-4.37973
-4.37995
-4.38014
-4.38028
-4.38035
-4.38036
-4.38017
-4.55275
-4.55263
-4.55272
-4.55291
-4.55324
-4.55365
-4.55413
-4.55464
-4.55515
-4.55567
-4.55617
-4.55665
-4.55712
-4.55755
-4.55796
-4.55833
-4.55867
-4.55898
-4.55925
-4.55947
-4.55966
-4.55981
-4.55992
-4.55998
-4.56001
-4.56
-4.55995
-4.55986
-4.55973
-4.55956
-4.55934
-4.55907
-4.55874
-4.55835
-4.55789
-4.55734
-4.5567
-4.55594
-4.55507
-4.55405
-4.55288
-4.55157
-4.55013
-4.54859
-4.54701
-4.54547
-4.54405
-4.54284
-4.5419
-4.54128
-4.54094
-4.54086
-4.54096
-4.54117
-4.54141
-4.54163
-4.5418
-4.54189
-4.54192
-4.54175
-4.71421
-4.71411
-4.71421
-4.71442
-4.71475
-4.71517
-4.71564
-4.71615
-4.71666
-4.71718
-4.71768
-4.71817
-4.71863
-4.71908
-4.7195
-4.71988
-4.72024
-4.72055
-4.72083
-4.72107
-4.72127
-4.72143
-4.72155
-4.72162
-4.72166
-4.72166
-4.72161
-4.72153
-4.7214
-4.72123
-4.72102
-4.72075
-4.72042
-4.72003
-4.71956
-4.719
-4.71834
-4.71756
-4.71666
-4.71561
-4.71442
-4.71307
-4.7116
-4.71004
-4.70845
-4.70691
-4.70551
-4.70432
-4.70341
-4.7028
-4.70248
-4.70241
-4.70252
-4.70274
-4.703
-4.70325
-4.70344
-4.70355
-4.70359
-4.70344
-4.87557
-4.8755
-4.87561
-4.87583
-4.87617
-4.87659
-4.87706
-4.87756
-4.87808
-4.87859
-4.8791
-4.8796
-4.88008
-4.88053
-4.88097
-4.88137
-4.88174
-4.88207
-4.88236
-4.88262
-4.88283
-4.883
-4.88313
-4.88321
-4.88326
-4.88326
-4.88322
-4.88315
-4.88303
-4.88286
-4.88264
-4.88237
-4.88204
-4.88164
-4.88116
-4.88059
-4.87991
-4.87912
-4.87819
-4.87711
-4.87589
-4.87453
-4.87305
-4.87149
-4.86992
-4.8684
-4.86704
-4.86589
-4.86502
-4.86445
-4.86416
-4.86411
-4.86422
-4.86445
-4.86472
-4.86498
-4.86519
-4.86531
-4.86536
-4.86523
-5.03684
-5.03679
-5.03692
-5.03715
-5.03749
-5.03791
-5.03838
-5.03889
-5.0394
-5.03993
-5.04044
-5.04095
-5.04144
-5.04192
-5.04237
-5.04279
-5.04317
-5.04352
-5.04383
-5.0441
-5.04433
-5.04451
-5.04465
-5.04475
-5.0448
-5.04481
-5.04478
-5.04471
-5.04459
-5.04443
-5.04421
-5.04393
-5.0436
-5.04319
-5.0427
-5.04211
-5.04141
-5.0406
-5.03965
-5.03855
-5.03732
-5.03595
-5.03447
-5.03294
-5.0314
-5.02995
-5.02865
-5.02757
-5.02676
-5.02624
-5.02597
-5.02594
-5.02606
-5.02629
-5.02656
-5.02682
-5.02704
-5.02717
-5.02723
-5.02713
-5.19801
-5.198
-5.19813
-5.19837
-5.19872
-5.19914
-5.19961
-5.20012
-5.20064
-5.20117
-5.2017
-5.20222
-5.20273
-5.20322
-5.20369
-5.20414
-5.20454
-5.20491
-5.20524
-5.20553
-5.20577
-5.20597
-5.20612
-5.20623
-5.20629
-5.20631
-5.20628
-5.20621
-5.2061
-5.20593
-5.20571
-5.20543
-5.20508
-5.20466
-5.20416
-5.20355
-5.20284
-5.202
-5.20103
-5.19993
-5.19869
-5.19733
-5.19588
-5.19439
-5.19293
-5.19155
-5.19034
-5.18935
-5.18862
-5.18815
-5.18793
-5.1879
-5.18802
-5.18824
-5.18851
-5.18876
-5.18898
-5.18912
-5.18919
-5.18911
-5.35909
-5.35912
-5.35926
-5.35951
-5.35986
-5.36029
-5.36076
-5.36127
-5.3618
-5.36234
-5.36288
-5.36342
-5.36395
-5.36446
-5.36495
-5.36541
-5.36584
-5.36624
-5.36659
-5.36689
-5.36715
-5.36736
-5.36753
-5.36765
-5.36772
-5.36774
-5.36772
-5.36765
-5.36753
-5.36736
-5.36713
-5.36685
-5.36649
-5.36605
-5.36553
-5.36491
-5.36418
-5.36333
-5.36235
-5.36124
-5.36001
-5.35868
-5.35728
-5.35587
-5.3545
-5.35323
-5.35213
-5.35125
-5.35061
-5.3502
-5.35001
-5.34999
-5.35011
-5.35031
-5.35055
-5.3508
-5.351
-5.35114
-5.35121
-5.35117
-5.5201
-5.52016
-5.52031
-5.52057
-5.52092
-5.52135
-5.52183
-5.52234
-5.52288
-5.52343
-5.52398
-5.52453
-5.52508
-5.52562
-5.52613
-5.52662
-5.52707
-5.52749
-5.52786
-5.52818
-5.52846
-5.52869
-5.52886
-5.52899
-5.52907
-5.5291
-5.52908
-5.52901
-5.52889
-5.52871
-5.52848
-5.52818
-5.52781
-5.52735
-5.52681
-5.52617
-5.52543
-5.52456
-5.52358
-5.52249
-5.52129
-5.52001
-5.51869
-5.51737
-5.51612
-5.51498
-5.51402
-5.51326
-5.51271
-5.51237
-5.51221
-5.5122
-5.5123
-5.51247
-5.51269
-5.5129
-5.51309
-5.51322
-5.51329
-5.51328
-5.68104
-5.68113
-5.68129
-5.68156
-5.68192
-5.68234
-5.68282
-5.68334
-5.68388
-5.68444
-5.68501
-5.68558
-5.68614
-5.6867
-5.68724
-5.68775
-5.68823
-5.68866
-5.68905
-5.6894
-5.68969
-5.68993
-5.69012
-5.69026
-5.69034
-5.69038
-5.69036
-5.69029
-5.69016
-5.68998
-5.68973
-5.68941
-5.68903
-5.68856
-5.688
-5.68734
-5.68658
-5.68572
-5.68474
-5.68367
-5.68252
-5.68131
-5.68009
-5.6789
-5.6778
-5.67681
-5.676
-5.67536
-5.67491
-5.67464
-5.67451
-5.67449
-5.67457
-5.67471
-5.67489
-5.67506
-5.67522
-5.67534
-5.6754
-5.67542
-5.84192
-5.84204
-5.84221
-5.84249
-5.84284
-5.84327
-5.84375
-5.84427
-5.84481
-5.84538
-5.84596
-5.84655
-5.84713
-5.84771
-5.84827
-5.8488
-5.8493
-5.84976
-5.85017
-5.85053
-5.85084
-5.8511
-5.8513
-5.85144
-5.85153
-5.85157
-5.85155
-5.85147
-5.85133
-5.85114
-5.85087
-5.85054
-5.85014
-5.84965
-5.84907
-5.8484
-5.84764
-5.84678
-5.84583
-5.8448
-5.84372
-5.84261
-5.84152
-5.84048
-5.83953
-5.83872
-5.83806
-5.83755
-5.8372
-5.83699
-5.83688
-5.83687
-5.83691
-5.83701
-5.83713
-5.83726
-5.83738
-5.83747
-5.83753
-5.83758
-6.00275
-6.0029
-6.00308
-6.00336
-6.00371
-6.00414
-6.00462
-6.00514
-6.00569
-6.00626
-6.00685
-6.00745
-6.00805
-6.00865
-6.00923
-6.00978
-6.0103
-6.01077
-6.0112
-6.01158
-6.0119
-6.01217
-6.01238
-6.01253
-6.01262
-6.01266
-6.01263
-6.01254
-6.0124
-6.01219
-6.01191
-6.01156
-6.01113
-6.01062
-6.01003
-6.00935
-6.00859
-6.00775
-6.00684
-6.00587
-6.00489
-6.0039
-6.00296
-6.00209
-6.00132
-6.00069
-6.00018
-5.99981
-5.99956
-5.9994
-5.99931
-5.99928
-5.99929
-5.99934
-5.9994
-5.99947
-5.99955
-5.99961
-5.99966
-5.99973
-6.16354
-6.16372
-6.16391
-6.16419
-6.16454
-6.16496
-6.16544
-6.16595
-6.1665
-6.16708
-6.16768
-6.16829
-6.16891
-6.16952
-6.17011
-6.17068
-6.17121
-6.17171
-6.17215
-6.17254
-6.17288
-6.17315
-6.17336
-6.17352
-6.17361
-6.17364
-6.1736
-6.17351
-6.17334
-6.17311
-6.17281
-6.17244
-6.17199
-6.17147
-6.17087
-6.17019
-6.16944
-6.16863
-6.16778
-6.1669
-6.16603
-6.16519
-6.16441
-6.16373
-6.16315
-6.16269
-6.16235
-6.1621
-6.16194
-6.16183
-6.16176
-6.16171
-6.16169
-6.16167
-6.16167
-6.16168
-6.1617
-6.16173
-6.16176
-6.16185
-6.3243
-6.32452
-6.32471
-6.32499
-6.32534
-6.32576
-6.32622
-6.32673
-6.32728
-6.32786
-6.32846
-6.32908
-6.3297
-6.33032
-6.33093
-6.33151
-6.33205
-6.33256
-6.33301
-6.33341
-6.33375
-6.33403
-6.33425
-6.3344
-6.33448
-6.3345
-6.33446
-6.33434
-6.33416
-6.33391
-6.33359
-6.3332
-6.33273
-6.33219
-6.33159
-6.33092
-6.33019
-6.32943
-6.32866
-6.32789
-6.32715
-6.32648
-6.32588
-6.32539
-6.32501
-6.32473
-6.32453
-6.3244
-6.32431
-6.32425
-6.32419
-6.32413
-6.32406
-6.32399
-6.32392
-6.32386
-6.32383
-6.32382
-6.32382
-6.32393
-6.48506
-6.48531
-6.4855
-6.48578
-6.48612
-6.48653
-6.48698
-6.48749
-6.48803
-6.48861
-6.48921
-6.48982
-6.49045
-6.49107
-6.49168
-6.49227
-6.49282
-6.49333
-6.49379
-6.49419
-6.49453
-6.49481
-6.49502
-6.49517
-6.49524
-6.49525
-6.49518
-6.49505
-6.49485
-6.49457
-6.49423
-6.49382
-6.49333
-6.49279
-6.49218
-6.49154
-6.49086
-6.49016
-6.48948
-6.48884
-6.48826
-6.48776
-6.48736
-6.48706
-6.48687
-6.48675
-6.48669
-6.48667
-6.48666
-6.48663
-6.48657
-6.48649
-6.48638
-6.48625
-6.48612
-6.486
-6.4859
-6.48585
-6.48583
-6.48593
-6.64582
-6.6461
-6.64629
-6.64657
-6.6469
-6.64729
-6.64774
-6.64823
-6.64876
-6.64933
-6.64993
-6.65054
-6.65116
-6.65178
-6.65239
-6.65297
-6.65352
-6.65403
-6.65448
-6.65488
-6.65522
-6.65549
-6.65569
-6.65582
-6.65588
-6.65587
-6.65579
-6.65563
-6.6554
-6.6551
-6.65474
-6.6543
-6.65381
-6.65326
-6.65268
-6.65206
-6.65144
-6.65083
-6.65027
-6.64977
-6.64935
-6.64904
-6.64883
-6.64873
-6.64871
-6.64874
-6.64881
-6.64888
-6.64893
-6.64893
-6.64888
-6.64878
-6.64863
-6.64845
-6.64825
-6.64806
-6.64791
-6.64781
-6.64776
-6.64786
-6.8066
-6.8069
-6.80709
-6.80737
-6.80769
-6.80807
-6.8085
-6.80898
-6.8095
-6.81005
-6.81063
-6.81124
-6.81185
-6.81246
-6.81306
-6.81363
-6.81417
-6.81467
-6.81511
-6.8155
-6.81582
-6.81608
-6.81627
-6.81638
-6.81642
-6.81638
-6.81627
-6.81609
-6.81583
-6.81551
-6.81512
-6.81467
-6.81417
-6.81363
-6.81307
-6.81251
-6.81196
-6.81146
-6.81102
-6.81068
-6.81044
-6.81031
-6.81029
-6.81036
-6.8105
-6.81068
-6.81085
-6.811
-6.8111
-6.81112
-6.81108
-6.81096
-6.81077
-6.81054
-6.81029
-6.81005
-6.80984
-6.80969
-6.80961
-6.80969
-6.96741
-6.96774
-6.96793
-6.9682
-6.9685
-6.96887
-6.96928
-6.96974
-6.97025
-6.97078
-6.97135
-6.97194
-6.97253
-6.97312
-6.9737
-6.97426
-6.97478
-6.97526
-6.97568
-6.97605
-6.97635
-6.97659
-6.97675
-6.97684
-6.97685
-6.97678
-6.97664
-6.97643
-6.97615
-6.9758
-6.97539
-6.97493
-6.97444
-6.97392
-6.9734
-6.9729
-6.97244
-6.97205
-6.97176
-6.97157
-6.97151
-6.97156
-6.97172
-6.97195
-6.97223
-6.97253
-6.9728
-6.97301
-6.97315
-6.97319
-6.97315
-6.97301
-6.9728
-6.97253
-6.97223
-6.97193
-6.97167
-6.97148
-6.97137
-6.97141
-7.12827
-7.12863
-7.12881
-7.12907
-7.12936
-7.12971
-7.1301
-7.13055
-7.13103
-7.13154
-7.13209
-7.13265
-7.13322
-7.13379
-7.13434
-7.13487
-7.13537
-7.13582
-7.13622
-7.13655
-7.13683
-7.13703
-7.13716
-7.13722
-7.13719
-7.1371
-7.13692
-7.13668
-7.13637
-7.136
-7.13558
-7.13512
-7.13463
-7.13415
-7.13368
-7.13325
-7.1329
-7.13263
-7.13248
-7.13246
-7.13256
-7.13278
-7.1331
-7.13348
-7.13388
-7.13428
-7.13462
-7.13489
-7.13506
-7.13512
-7.13507
-7.13492
-7.13469
-7.13438
-7.13405
-7.13371
-7.1334
-7.13317
-7.13303
-7.13303
-7.2892
-7.28957
-7.28976
-7.29
-7.29028
-7.29061
-7.29098
-7.2914
-7.29186
-7.29235
-7.29287
-7.2934
-7.29394
-7.29448
-7.295
-7.29549
-7.29595
-7.29636
-7.29673
-7.29703
-7.29726
-7.29743
-7.29752
-7.29754
-7.29748
-7.29735
-7.29714
-7.29686
-7.29653
-7.29614
-7.29571
-7.29525
-7.29479
-7.29434
-7.29394
-7.2936
-7.29335
-7.29322
-7.29321
-7.29334
-7.2936
-7.29398
-7.29443
-7.29493
-7.29544
-7.29591
-7.29632
-7.29662
-7.29682
-7.29689
-7.29684
-7.29669
-7.29643
-7.29611
-7.29574
-7.29537
-7.29503
-7.29476
-7.2946
-7.29455
-7.4502
-7.45059
-7.45077
-7.45101
-7.45127
-7.45158
-7.45193
-7.45233
-7.45276
-7.45322
-7.45371
-7.4542
-7.45471
-7.4552
-7.45568
-7.45613
-7.45655
-7.45692
-7.45724
-7.4575
-7.45769
-7.45781
-7.45786
-7.45783
-7.45773
-7.45756
-7.45732
-7.45701
-7.45665
-7.45625
-7.45581
-7.45537
-7.45494
-7.45454
-7.45421
-7.45396
-7.45383
-7.45382
-7.45395
-7.45423
-7.45463
-7.45513
-7.4557
-7.45631
-7.45689
-7.45743
-7.45788
-7.45822
-7.45843
-7.45851
-7.45846
-7.4583
-7.45804
-7.4577
-7.45731
-7.45692
-7.45656
-7.45626
-7.45607
-7.45596
-7.6113
-7.6117
-7.61188
-7.61211
-7.61235
-7.61264
-7.61297
-7.61334
-7.61374
-7.61417
-7.61462
-7.61507
-7.61553
-7.61598
-7.61642
-7.61682
-7.61719
-7.61751
-7.61777
-7.61798
-7.61812
-7.6182
-7.6182
-7.61813
-7.61799
-7.61777
-7.6175
-7.61716
-7.61678
-7.61637
-7.61594
-7.61551
-7.61512
-7.61478
-7.61452
-7.61437
-7.61434
-7.61445
-7.61471
-7.61511
-7.61563
-7.61624
-7.61691
-7.61759
-7.61824
-7.61883
-7.61931
-7.61967
-7.6199
-7.61999
-7.61994
-7.61978
-7.61951
-7.61916
-7.61877
-7.61837
-7.618
-7.61769
-7.61747
-7.6173
-7.7725
-7.77291
-7.77308
-7.7733
-7.77353
-7.7738
-7.7741
-7.77444
-7.77481
-7.7752
-7.77561
-7.77603
-7.77644
-7.77684
-7.77722
-7.77757
-7.77788
-7.77814
-7.77836
-7.77851
-7.7786
-7.77862
-7.77857
-7.77846
-7.77827
-7.77802
-7.77771
-7.77735
-7.77695
-7.77653
-7.77611
-7.77572
-7.77536
-7.77508
-7.7749
-7.77483
-7.7749
-7.77512
-7.77549
-7.776
-7.77662
-7.77732
-7.77806
-7.7788
-7.77949
-7.78011
-7.78062
-7.781
-7.78123
-7.78133
-7.78129
-7.78113
-7.78087
-7.78053
-7.78014
-7.77974
-7.77937
-7.77905
-7.77882
-7.77858
-7.93381
-7.93423
-7.9344
-7.9346
-7.93482
-7.93506
-7.93534
-7.93565
-7.93598
-7.93634
-7.9367
-7.93707
-7.93743
-7.93777
-7.9381
-7.93839
-7.93864
-7.93885
-7.939
-7.9391
-7.93914
-7.93911
-7.93901
-7.93885
-7.93862
-7.93833
-7.93799
-7.93761
-7.9372
-7.93678
-7.93638
-7.93601
-7.93569
-7.93547
-7.93536
-7.93537
-7.93553
-7.93585
-7.93631
-7.9369
-7.93759
-7.93835
-7.93915
-7.93993
-7.94066
-7.94129
-7.94182
-7.94221
-7.94246
-7.94256
-7.94253
-7.94238
-7.94214
-7.94181
-7.94145
-7.94106
-7.9407
-7.94037
-7.94014
-7.93983
-8.09523
-8.09567
-8.09583
-8.09603
-8.09622
-8.09645
-8.09669
-8.09697
-8.09726
-8.09758
-8.09789
-8.09821
-8.09851
-8.0988
-8.09906
-8.0993
-8.09949
-8.09964
-8.09973
-8.09978
-8.09976
-8.09968
-8.09953
-8.09932
-8.09906
-8.09873
-8.09837
-8.09797
-8.09755
-8.09714
-8.09675
-8.09641
-8.09614
-8.09597
-8.09592
-8.096
-8.09624
-8.09662
-8.09715
-8.09781
-8.09855
-8.09936
-8.10019
-8.101
-8.10174
-8.1024
-8.10293
-8.10333
-8.10359
-8.10371
-8.1037
-8.10357
-8.10335
-8.10306
-8.10272
-8.10236
-8.10202
-8.10171
-8.10147
-8.10109
-8.25679
-8.25723
-8.25738
-8.25757
-8.25775
-8.25795
-8.25816
-8.2584
-8.25865
-8.25892
-8.25918
-8.25944
-8.25969
-8.25992
-8.26013
-8.2603
-8.26043
-8.26052
-8.26056
-8.26055
-8.26048
-8.26035
-8.26016
-8.25991
-8.25961
-8.25926
-8.25887
-8.25846
-8.25804
-8.25763
-8.25726
-8.25694
-8.25671
-8.25658
-8.25659
-8.25673
-8.25702
-8.25746
-8.25804
-8.25874
-8.25952
-8.26035
-8.2612
-8.26202
-8.26277
-8.26344
-8.26398
-8.26439
-8.26467
-8.26481
-8.26483
-8.26473
-8.26455
-8.2643
-8.264
-8.26368
-8.26338
-8.26308
-8.26286
-8.26242
-8.41849
-8.41893
-8.41908
-8.41925
-8.4194
-8.41957
-8.41975
-8.41994
-8.42015
-8.42036
-8.42057
-8.42078
-8.42097
-8.42114
-8.42128
-8.42139
-8.42147
-8.4215
-8.42149
-8.42142
-8.4213
-8.42113
-8.4209
-8.42062
-8.42028
-8.41991
-8.4195
-8.41908
-8.41866
-8.41826
-8.4179
-8.41761
-8.41741
-8.41732
-8.41737
-8.41755
-8.41789
-8.41837
-8.41898
-8.4197
-8.4205
-8.42134
-8.42219
-8.42302
-8.42377
-8.42444
-8.425
-8.42542
-8.42572
-8.4259
-8.42595
-8.4259
-8.42577
-8.42557
-8.42533
-8.42507
-8.42481
-8.42454
-8.42433
-8.42384
-8.58033
-8.58078
-8.58091
-8.58106
-8.58119
-8.58131
-8.58144
-8.58158
-8.58174
-8.58189
-8.58205
-8.58219
-8.58233
-8.58244
-8.58252
-8.58258
-8.5826
-8.58258
-8.58252
-8.58241
-8.58224
-8.58203
-8.58176
-8.58145
-8.58109
-8.5807
-8.58028
-8.57985
-8.57943
-8.57903
-8.57869
-8.57842
-8.57824
-8.57818
-8.57826
-8.57847
-8.57883
-8.57934
-8.57996
-8.58069