/*--------------------------------*- C++ -*----------------------------------*\
| =========                 |                                                 |
| \\      /  F ield         | OpenFOAM: The Open Source CFD Toolbox           |
|  \\    /   O peration     | Version:  2406                                  |
|   \\  /    A nd           | Website:  www.openfoam.com                      |
|    \\/     M anipulation  |                                                 |
\*---------------------------------------------------------------------------*/
FoamFile
{
    version     2.0;
    format      ascii;
    arch        "LSB;label=32;scalar=64";
    class       volScalarField;
    location    "5000";
    object      p_rgh;
}
// * * * * * * * * * * * * * * * * * * * * * * * * * * * * * * * * * * * * * //

dimensions      [0 2 -2 0 0 0 0];

internalField   nonuniform List<scalar> 
3600
(
0.0813431
0.0807477
0.0800406
0.0793751
0.0787265
0.0780721
0.0773801
0.0766207
0.0757725
0.0748233
0.0737709
0.0726217
0.0713893
0.0700923
0.0687524
0.067392
0.0660334
0.0646972
0.0634012
0.0621608
0.0609878
0.0598913
0.0588773
0.0579493
0.0571084
0.0563533
0.0556811
0.0550875
0.0545675
0.0541159
0.0537275
0.0533959
0.0531109
0.0528553
0.0526008
0.0523061
0.0519191
0.0513847
0.0506588
0.0497278
0.0486289
0.0474621
0.046385
0.0455809
0.0452195
0.0454113
0.0461919
0.0475298
0.0493484
0.0515437
0.0539951
0.0565738
0.0591475
0.0615866
0.0637805
0.0656509
0.0671619
0.0683186
0.0692038
0.0696885
0.0819088
0.0811172
0.080301
0.0795868
0.0789066
0.0782238
0.0775054
0.0767242
0.0758612
0.0749062
0.0738578
0.0727223
0.0715122
0.0702448
0.0689399
0.0676185
0.0663009
0.0650061
0.0637507
0.0625488
0.0614114
0.0603466
0.05936
0.0584549
0.0576321
0.0568905
0.0562273
0.0556384
0.0551187
0.0546627
0.0542645
0.0539171
0.0536102
0.0533281
0.0530463
0.0527308
0.0523391
0.0518267
0.051159
0.0503271
0.0493655
0.0483634
0.0474608
0.0468206
0.0465948
0.0468752
0.0476829
0.0489811
0.0506961
0.052735
0.0549936
0.0573618
0.0597257
0.061973
0.0640084
0.0657667
0.0672221
0.0683967
0.0694137
0.0701106
0.0827552
0.0819259
0.0810871
0.0803646
0.079682
0.0789977
0.0782746
0.0774842
0.0766078
0.0756363
0.0745698
0.073416
0.0721886
0.0709059
0.0695884
0.0682572
0.066933
0.0656343
0.0643776
0.0631764
0.0620412
0.0609796
0.0599965
0.0590946
0.0582743
0.0575343
0.0568717
0.0562823
0.055761
0.0553021
0.0548997
0.054547
0.0542345
0.0539486
0.0536676
0.0533603
0.0529859
0.0524985
0.0518578
0.0510465
0.0500925
0.0490866
0.0481837
0.0475692
0.0474186
0.0478256
0.0487888
0.050237
0.0520671
0.0541711
0.0564447
0.0587849
0.061089
0.0632559
0.0651995
0.0668627
0.0682286
0.0693298
0.0703121
0.0710028
0.0835617
0.0827563
0.08196
0.0812749
0.0806219
0.0799563
0.0792391
0.0784422
0.077549
0.0765533
0.0754584
0.0742752
0.0730199
0.0717126
0.0703751
0.0690289
0.0676947
0.0663909
0.065133
0.0639338
0.0628031
0.0617478
0.0607718
0.059877
0.0590635
0.0583295
0.0576718
0.0570862
0.0565675
0.0561104
0.0557089
0.0553566
0.0550453
0.0547625
0.0544887
0.0541934
0.0538344
0.0533601
0.0527197
0.0518839
0.0508733
0.0497856
0.0488037
0.0481567
0.048059
0.0486079
0.049767
0.0514135
0.0534011
0.055601
0.0579091
0.060234
0.0624898
0.06459
0.0664573
0.068039
0.0693212
0.0703407
0.0712552
0.0719102
0.0842809
0.0835275
0.0827965
0.0821655
0.0815533
0.0809122
0.080202
0.0793956
0.0784795
0.0774518
0.0763201
0.0750994
0.0738094
0.0724726
0.071112
0.0697501
0.0684074
0.0671015
0.0658472
0.0646561
0.0635368
0.0624952
0.0615344
0.0606554
0.0598574
0.0591382
0.0584943
0.0579214
0.0574143
0.0569677
0.056576
0.056233
0.055931
0.055658
0.0553947
0.0551095
0.0547556
0.0542726
0.0535965
0.052684
0.0515495
0.0503034
0.0491662
0.0484235
0.0483358
0.049009
0.0503673
0.052227
0.0543904
0.0567036
0.0590619
0.0613888
0.0636195
0.0656838
0.0675138
0.0690584
0.0703028
0.0712815
0.072155
0.0727849
0.0848848
0.0841831
0.0835009
0.082905
0.0823127
0.0816749
0.080951
0.0801161
0.0791604
0.0780869
0.0769082
0.0756439
0.0743174
0.0729534
0.0715764
0.0702088
0.0688705
0.067578
0.0663445
0.0651799
0.064091
0.0630821
0.0621553
0.0613103
0.0605454
0.0598577
0.0592433
0.0586977
0.0582155
0.0577916
0.0574203
0.0570954
0.0568089
0.0565488
0.0562944
0.0560115
0.0556478
0.055133
0.0543894
0.05336
0.052054
0.0505965
0.0492492
0.0483596
0.0482361
0.0489985
0.0505308
0.0525852
0.0549089
0.0573213
0.0597195
0.0620469
0.0642647
0.066323
0.0681641
0.0697372
0.0710214
0.0720404
0.0729463
0.0735967
0.0853797
0.0847074
0.0840352
0.0834324
0.0828172
0.0821416
0.0813668
0.0804713
0.0794498
0.0783107
0.0770717
0.0757567
0.0743923
0.0730052
0.0716206
0.0702602
0.0689427
0.0676827
0.0664911
0.0653755
0.0643406
0.0633885
0.0625194
0.0617318
0.0610226
0.0603881
0.0598236
0.0593239
0.0588838
0.0584975
0.0581592
0.0578621
0.0575978
0.0573526
0.0571042
0.0568151
0.0564274
0.0558617
0.0550281
0.0538577
0.0523554
0.0506608
0.0490742
0.0480013
0.047798
0.0486011
0.0502616
0.0524712
0.054923
0.0574107
0.0598353
0.0621629
0.0643844
0.066472
0.0683792
0.0700536
0.0714629
0.0726124
0.0736364
0.0743719
0.0857871
0.0851075
0.0843966
0.0837356
0.0830453
0.0822821
0.0814117
0.0804173
0.0792992
0.0780711
0.0767557
0.0753809
0.0739758
0.0725682
0.071183
0.069841
0.0685587
0.0673481
0.0662176
0.0651719
0.064213
0.0633406
0.0625527
0.061846
0.0612159
0.0606571
0.060164
0.0597308
0.0593512
0.0590191
0.0587277
0.0584695
0.0582344
0.0580075
0.0577639
0.0574627
0.0570412
0.0564125
0.0554775
0.0541579
0.0524554
0.0505209
0.0486869
0.0474075
0.0470845
0.0478743
0.0496078
0.0519251
0.0544704
0.0570123
0.0594567
0.0617922
0.0640406
0.0661965
0.0682244
0.0700682
0.0716804
0.0730422
0.0742644
0.0751557
0.0861352
0.0854043
0.084605
0.0838353
0.0830194
0.0821209
0.0811118
0.0799817
0.0787373
0.0773977
0.0759903
0.0745461
0.073096
0.0716681
0.0702863
0.0689694
0.0677313
0.0665814
0.0655247
0.0645632
0.0636959
0.06292
0.062231
0.0616237
0.0610915
0.0606277
0.0602252
0.0598769
0.0595754
0.0593133
0.0590829
0.058875
0.058678
0.0584747
0.0582376
0.057923
0.057464
0.056769
0.0557325
0.0542699
0.0523806
0.0502227
0.0481509
0.0466558
0.0461792
0.046902
0.0486508
0.0510278
0.0536353
0.056218
0.0586852
0.0610452
0.0633489
0.0656122
0.0678092
0.0698788
0.0717561
0.0733957
0.074882
0.0759967
0.0864514
0.0856245
0.0846919
0.0837693
0.0827848
0.0817106
0.0805269
0.0792308
0.0778358
0.0763666
0.0748547
0.0733336
0.0718348
0.0703858
0.0690087
0.0677198
0.06653
0.0654454
0.0644681
0.063597
0.0628286
0.0621573
0.0615767
0.061079
0.0606564
0.0603001
0.0600013
0.0597515
0.0595417
0.059363
0.0592059
0.0590594
0.0589098
0.0587373
0.0585121
0.0581875
0.0576941
0.0569375
0.055809
0.054221
0.0521711
0.0498202
0.0475346
0.0458277
0.0451737
0.0457801
0.0474883
0.04988
0.0525234
0.0551409
0.0576411
0.0600482
0.062437
0.0648431
0.0672487
0.0695867
0.0717745
0.0737398
0.0755404
0.0769373
0.0867603
0.0857956
0.0846912
0.0835793
0.0823921
0.0811113
0.0797258
0.0782415
0.0766789
0.0750683
0.0734447
0.0718429
0.0702942
0.0688244
0.0674528
0.0661928
0.0650517
0.0640325
0.0631343
0.0623532
0.0616832
0.0611167
0.0606452
0.0602593
0.0599494
0.059705
0.0595159
0.0593716
0.0592615
0.0591749
0.0591002
0.0590243
0.0589307
0.0587974
0.0585917
0.0582648
0.0577455
0.0569386
0.0557351
0.0540471
0.051871
0.0493662
0.0469009
0.044998
0.044154
0.0446075
0.0462222
0.0485868
0.0512445
0.0538952
0.0564423
0.0589208
0.0614227
0.0640014
0.0666452
0.0692814
0.07181
0.0741337
0.0762841
0.0780109
0.0870818
0.0859426
0.0846342
0.0833038
0.0818875
0.0803771
0.078771
0.0770841
0.0753443
0.0735871
0.0718502
0.0701687
0.0685725
0.0670845
0.0657206
0.0644902
0.0633972
0.0624411
0.0616182
0.0609223
0.0603452
0.0598777
0.0595097
0.0592305
0.0590291
0.0588939
0.058813
0.0587745
0.058766
0.0587749
0.0587873
0.0587878
0.0587573
0.058671
0.0584936
0.0581744
0.0576415
0.0568
0.0555431
0.0537847
0.0515206
0.0489058
0.0463012
0.0442277
0.0431945
0.0434701
0.0449528
0.0472495
0.0499014
0.0525849
0.055193
0.0577657
0.0604051
0.0631801
0.0660833
0.0690365
0.0719236
0.0746252
0.0771482
0.0792415
0.087432
0.0860863
0.0845471
0.0829744
0.0813088
0.079552
0.0777128
0.0758155
0.0738954
0.0719925
0.0701462
0.0683908
0.0667532
0.0652525
0.0639003
0.0627014
0.061656
0.0607603
0.0600079
0.0593903
0.0588978
0.0585201
0.0582459
0.0580637
0.0579616
0.0579272
0.0579475
0.0580093
0.0580987
0.0582011
0.0583008
0.0583798
0.0584166
0.0583834
0.0582427
0.0579421
0.0574092
0.0565511
0.0552642
0.0534661
0.0511528
0.0484723
0.0457721
0.043561
0.0423513
0.0424384
0.0437621
0.0459612
0.0485843
0.051299
0.0539798
0.056666
0.0594636
0.0624532
0.06563
0.0689101
0.0721633
0.0752515
0.0781586
0.0806435
0.0878236
0.0862441
0.084451
0.0826161
0.0806847
0.0786695
0.0765898
0.0744796
0.0723813
0.0703385
0.0683912
0.0665713
0.0649016
0.0633963
0.0620615
0.0608976
0.0599004
0.059063
0.0583761
0.0578298
0.0574131
0.0571146
0.0569228
0.0568256
0.0568108
0.0568655
0.0569761
0.0571285
0.0573077
0.0574976
0.0576806
0.0578366
0.0579415
0.0579651
0.0578677
0.0575953
0.0570758
0.0562187
0.0549249
0.0531165
0.0507903
0.0480863
0.0453343
0.0430235
0.0416607
0.0415628
0.0427132
0.0447933
0.0473711
0.05011
0.0528716
0.0556866
0.0586594
0.0618779
0.0653373
0.0689476
0.0725659
0.0760398
0.0793324
0.082223
0.0882673
0.0864296
0.0843625
0.082248
0.0800375
0.0777552
0.0754314
0.07311
0.0708396
0.0686666
0.0666298
0.0647574
0.063067
0.0615665
0.0602565
0.0591319
0.0581845
0.0574039
0.0567787
0.0562973
0.0559478
0.0557184
0.0555974
0.0555728
0.0556322
0.0557629
0.0559511
0.0561821
0.0564404
0.0567086
0.0569678
0.0571958
0.0573667
0.057448
0.0573978
0.0571612
0.0566666
0.0558261
0.0545459
0.0527533
0.0504464
0.0477569
0.0449946
0.0426241
0.0411395
0.0408726
0.0418488
0.0437977
0.0463173
0.0490748
0.0519205
0.0548763
0.0580381
0.0614964
0.0652437
0.0691823
0.0731581
0.0770082
0.0806785
0.0839779
0.0887719
0.0866542
0.0842948
0.0818855
0.0793847
0.0768292
0.0742609
0.071733
0.0692997
0.0670085
0.0648957
0.0629843
0.0612853
0.0597999
0.0585222
0.0574418
0.0565462
0.0558218
0.0552552
0.0548333
0.0545436
0.0543742
0.0543133
0.0543495
0.0544705
0.0546642
0.0549168
0.0552138
0.055539
0.0558747
0.0562007
0.0564936
0.0567256
0.0568624
0.0568607
0.0566646
0.0562033
0.055392
0.0541423
0.0523869
0.050126
0.0474831
0.0447478
0.0423572
0.0407868
0.0403767
0.0411899
0.0430057
0.0454596
0.0482312
0.0511638
0.0542686
0.0576323
0.0613388
0.0653763
0.0696371
0.0739567
0.0781663
0.0821978
0.0858986
0.0893454
0.0869274
0.0842591
0.0815409
0.0787407
0.0759082
0.0730972
0.0703699
0.0677847
0.0653888
0.0632143
0.0612776
0.0595822
0.0581218
0.0568838
0.0558524
0.0550107
0.0543423
0.0538317
0.0534648
0.0532287
0.0531114
0.0531014
0.0531879
0.0533593
0.0536039
0.0539084
0.0542587
0.0546387
0.0550304
0.0554128
0.0557617
0.056048
0.056236
0.0562811
0.056127
0.055704
0.0549306
0.0537236
0.0520218
0.0498274
0.047257
0.0445803
0.0422063
0.0405882
0.0400674
0.0407386
0.0424294
0.0448169
0.0476008
0.0506235
0.0538851
0.0574622
0.0614248
0.0657518
0.0703248
0.0749697
0.0795153
0.0838844
0.087969
0.0899946
0.0872574
0.0842646
0.0812251
0.0781177
0.0750062
0.0719562
0.069038
0.066313
0.0638264
0.0616043
0.0596556
0.0579751
0.0565487
0.055357
0.0543787
0.0535929
0.0529803
0.0525238
0.0522082
0.0520204
0.0519485
0.0519817
0.0521097
0.0523215
0.0526064
0.0529517
0.0533438
0.053767
0.0542032
0.0546314
0.0550267
0.055359
0.0555918
0.0556797
0.0555663
0.0551832
0.0544522
0.0532955
0.051658
0.0495444
0.0470657
0.0444732
0.0421482
0.0405195
0.0399243
0.0404817
0.0420642
0.0443924
0.0471918
0.0503096
0.0537369
0.0575382
0.0617638
0.0663783
0.0712501
0.0761965
0.0810489
0.0857254
0.0901674
0.0907254
0.0876513
0.0843195
0.0809474
0.0775266
0.0741354
0.0708513
0.0677517
0.0648993
0.0623354
0.0600793
0.0581306
0.0564752
0.0550906
0.0539506
0.0530287
0.0523001
0.051743
0.0513386
0.0510712
0.0509274
0.0508956
0.0509655
0.0511275
0.0513716
0.0516877
0.0520641
0.0524879
0.0529437
0.0534139
0.0538775
0.0543092
0.0546786
0.0549486
0.0550732
0.0549964
0.0546514
0.0539635
0.0528603
0.0512926
0.0492683
0.046894
0.0444048
0.042156
0.0405511
0.0399186
0.0403954
0.0418935
0.0441768
0.0470007
0.0502228
0.0538271
0.0578631
0.0623578
0.0672558
0.0724094
0.0776296
0.0827544
0.0877029
0.092468
0.0915433
0.0881153
0.0844311
0.0807161
0.0769766
0.0733061
0.0697935
0.0665221
0.0635543
0.0609263
0.0586482
0.0567102
0.0550884
0.053752
0.052668
0.0518047
0.0511341
0.0506318
0.0502778
0.0500558
0.0499523
0.0499561
0.0500574
0.0502475
0.050517
0.0508569
0.0512563
0.0517029
0.0521821
0.0526767
0.0531658
0.0536244
0.0540216
0.0543201
0.054474
0.0544278
0.0541163
0.0534686
0.0524177
0.0509205
0.0489888
0.0467258
0.0443531
0.0422022
0.0406517
0.0400179
0.0404497
0.0418928
0.0441527
0.0470171
0.0503577
0.0541532
0.0584352
0.0632033
0.0683772
0.073792
0.0792544
0.0846136
0.0897946
0.0948424
0.0924526
0.0886548
0.0846055
0.0805384
0.0764759
0.0725271
0.0687918
0.0653581
0.0622864
0.0596058
0.0573167
0.0553984
0.0538172
0.0525338
0.0515087
0.0507055
0.0500927
0.0496441
0.0493387
0.0491594
0.0490931
0.0491287
0.0492573
0.0494705
0.0497601
0.0501177
0.0505332
0.0509952
0.0514899
0.0520003
0.0525061
0.0529822
0.0533981
0.0537161
0.0538906
0.053867
0.0535822
0.052969
0.0519658
0.0505359
0.0486952
0.0465456
0.0442973
0.0422607
0.0407907
0.0401897
0.0406131
0.0420348
0.0442993
0.0472273
0.0507064
0.0547107
0.0592505
0.064294
0.0697314
0.0753818
0.0810509
0.0866034
0.0919753
0.0972613
0.0934572
0.0892743
0.0848481
0.0804202
0.076031
0.0718054
0.0678533
0.0642663
0.0611011
0.0583783
0.0560874
0.0541962
0.052661
0.0514341
0.0504696
0.0497267
0.0491711
0.0487748
0.0485158
0.0483769
0.0483449
0.0484093
0.0485615
0.048794
0.0490993
0.0494696
0.0498958
0.0503671
0.0508702
0.051389
0.0519034
0.0523885
0.0528138
0.0531421
0.0533279
0.0533178
0.053051
0.052464
0.0515011
0.0501318
0.0483774
0.0463394
0.044219
0.0423088
0.0409415
0.0404045
0.0408561
0.0422935
0.0445964
0.047618
0.0512617
0.0554955
0.0603042
0.0656208
0.0713042
0.0771588
0.082995
0.0886976
0.0942177
0.0996957
0.09456
0.0899775
0.0851633
0.0803666
0.0756476
0.0711466
0.0669834
0.0632512
0.0600019
0.0572461
0.0549611
0.053103
0.0516177
0.0504492
0.0495459
0.0488628
0.048363
0.048017
0.0478022
0.0477012
0.0477009
0.0477912
0.0479642
0.0482127
0.0485302
0.0489092
0.0493416
0.049817
0.0503229
0.0508435
0.051359
0.051845
0.0522711
0.0526002
0.0527876
0.0527809
0.052522
0.0519513
0.051019
0.0497015
0.0480258
0.0460947
0.044103
0.0423279
0.0410822
0.0406382
0.0411545
0.0426474
0.0450281
0.0481796
0.0520193
0.0565051
0.0615915
0.0671734
0.0730778
0.0790996
0.0850596
0.0908679
0.096494
0.102118
0.0957631
0.0907674
0.0855545
0.0803818
0.0753299
0.0705551
0.0661859
0.0623162
0.0589911
0.0562099
0.0539372
0.0521166
0.0506837
0.0495745
0.0487318
0.048107
0.0476609
0.0473629
0.0471898
0.0471242
0.0471531
0.047267
0.0474581
0.0477201
0.0480467
0.0484314
0.0488661
0.0493413
0.0498449
0.0503613
0.0508713
0.0513506
0.0517689
0.0520895
0.0522684
0.0522546
0.0519924
0.0514269
0.0505141
0.049238
0.0476319
0.0458017
0.0439376
0.0423043
0.041197
0.0408737
0.0414915
0.0430825
0.0455854
0.0489089
0.0529794
0.0577395
0.0631076
0.068939
0.0750314
0.081177
0.0872151
0.0930848
0.0987767
0.104502
0.097068
0.0916461
0.0860245
0.0804686
0.0750813
0.070034
0.0654636
0.0614633
0.0580697
0.0552697
0.0530142
0.0512342
0.0498549
0.0488048
0.0480212
0.0474524
0.0470573
0.0468045
0.0466703
0.0466374
0.0466931
0.0468282
0.0470352
0.0473083
0.0476417
0.0480291
0.0484631
0.0489344
0.0494311
0.0499382
0.0504364
0.0509017
0.051304
0.0516068
0.0517669
0.0517348
0.0514578
0.0508855
0.0499806
0.0487347
0.0471889
0.0454529
0.0437152
0.04223
0.0412774
0.0411023
0.0418595
0.0435941
0.046268
0.0498095
0.0541471
0.0592002
0.0648464
0.0709012
0.0771398
0.0833607
0.0894296
0.0953185
0.101039
0.106826
0.0984755
0.0926149
0.0865752
0.0806295
0.0749041
0.0695857
0.0648186
0.0606937
0.0572381
0.0544248
0.0521903
0.0504528
0.0491272
0.0481347
0.0474079
0.0468921
0.0465447
0.0463337
0.0462353
0.0462324
0.0463124
0.0464662
0.0466871
0.0469692
0.0473072
0.0476949
0.0481253
0.0485892
0.049075
0.0495678
0.0500484
0.0504927
0.0508708
0.0511465
0.0512774
0.0512158
0.0509121
0.050321
0.0494121
0.0481856
0.0466911
0.045044
0.0434323
0.0421028
0.0413224
0.0413245
0.0422613
0.0441882
0.0470851
0.0508924
0.0555306
0.060888
0.0667974
0.0730381
0.0793724
0.085616
0.0916691
0.0975386
0.103257
0.109071
0.0999856
0.0936746
0.0872076
0.080866
0.0748001
0.069212
0.0642523
0.0600085
0.0564964
0.0536743
0.0514635
0.0497693
0.0484964
0.0475592
0.0468859
0.0464193
0.0461158
0.045943
0.0458769
0.0459008
0.0460023
0.0461727
0.0464051
0.0466943
0.0470347
0.0474205
0.0478446
0.048298
0.0487691
0.0492428
0.0496999
0.0501163
0.0504621
0.0507015
0.0507928
0.0506905
0.0503484
0.0497266
0.0488026
0.0475859
0.0461357
0.0445741
0.043091
0.0419274
0.0413397
0.0415508
0.0427104
0.0448813
0.0480547
0.0521731
0.0571385
0.0627992
0.0689429
0.0753193
0.0816914
0.0879036
0.0938975
0.0997153
0.105408
0.111222
0.101598
0.094825
0.0879224
0.081179
0.0747705
0.068914
0.0637658
0.0594082
0.0558446
0.0530173
0.0508321
0.0491809
0.0479589
0.0470737
0.0464498
0.046028
0.045764
0.045625
0.0455875
0.0456348
0.0457549
0.0459392
0.046181
0.046475
0.0468158
0.0471974
0.0476126
0.0480523
0.0485046
0.0489545
0.0493825
0.0497641
0.0500696
0.0502633
0.0503049
0.0501509
0.0497592
0.0490959
0.048147
0.0469325
0.045522
0.0440466
0.0426986
0.0417157
0.0413452
0.0418014
0.0432309
0.0456997
0.0492014
0.0536689
0.0589743
0.0649208
0.0712532
0.0777036
0.0840506
0.0901792
0.096077
0.101819
0.10747
0.113267
0.103311
0.0960656
0.0887195
0.081569
0.0748162
0.0686929
0.06336
0.0588934
0.0552827
0.0524533
0.0502945
0.0486853
0.0475113
0.0466741
0.0460948
0.0457127
0.0454831
0.0453732
0.04536
0.045427
0.0455625
0.0457579
0.0460066
0.0463031
0.046642
0.0470169
0.0474204
0.047843
0.0482728
0.048694
0.0490869
0.0494269
0.0496839
0.049823
0.0498049
0.0495888
0.049137
0.0484228
0.0474417
0.0462252
0.0448547
0.0434706
0.0422698
0.0414877
0.0413644
0.0421066
0.043856
0.0466759
0.0505519
0.0553936
0.0610322
0.0672251
0.0736838
0.0801366
0.0863951
0.092394
0.0981685
0.103822
0.109425
0.115197
0.105122
0.0973951
0.0895982
0.0820359
0.0749376
0.0685492
0.0630356
0.058465
0.0548111
0.0519816
0.0498493
0.0482801
0.0471504
0.0463565
0.0458163
0.0454683
0.0452674
0.0451815
0.0451879
0.0452705
0.0454177
0.0456211
0.0458739
0.0461704
0.0465048
0.0468703
0.0472591
0.0476612
0.0480641
0.0484516
0.0488035
0.0490947
0.0492953
0.0493708
0.0492836
0.048996
0.0484757
0.0477039
0.0466869
0.0454686
0.0441436
0.0428626
0.0418278
0.0412734
0.0414335
0.0425066
0.044626
0.0478446
0.0521274
0.057348
0.0632898
0.0696661
0.0761724
0.0825513
0.088662
0.0944958
0.100133
0.105697
0.11126
0.117009
0.10703
0.0988115
0.0905576
0.0825795
0.0751349
0.0684838
0.062794
0.0581234
0.0544296
0.0516014
0.0494952
0.0479635
0.046874
0.0461178
0.0456107
0.0452904
0.0451122
0.0450446
0.0450654
0.045159
0.045314
0.0455218
0.0457755
0.046069
0.0463959
0.046749
0.0471197
0.0474975
0.047869
0.0482176
0.0485223
0.0487578
0.0488942
0.0488979
0.0487334
0.0483667
0.047772
0.0469395
0.0458874
0.0446737
0.0434064
0.0422475
0.041405
0.0411123
0.0415972
0.0430478
0.0455835
0.049236
0.053937
0.0595135
0.0656999
0.072176
0.0786392
0.0848687
0.090783
0.0964313
0.101932
0.107421
0.112962
0.118702
0.10903
0.100312
0.0915959
0.0831989
0.0754084
0.0684977
0.0626355
0.057869
0.0541381
0.0513125
0.0492312
0.0477338
0.0466797
0.0459553
0.0454746
0.0451752
0.0450131
0.0449576
0.0449872
0.0450868
0.045245
0.0454533
0.0457042
0.0459913
0.0463075
0.0466447
0.0469936
0.0473428
0.0476783
0.0479826
0.0482341
0.0484072
0.0484723
0.048397
0.0481486
0.047698
0.0470265
0.0461351
0.0450548
0.0438587
0.0426693
0.0416596
0.0410434
0.0410526
0.0419066
0.0437786
0.0467659
0.050867
0.0559683
0.0618451
0.0681887
0.0746634
0.0809897
0.0870025
0.0926881
0.0981489
0.103533
0.108974
0.114524
0.120281
0.111118
0.101894
0.092711
0.0838934
0.0757584
0.068591
0.0625603
0.0577018
0.0539367
0.0511145
0.0490565
0.0475898
0.0465656
0.0458664
0.0454051
0.0451195
0.0449665
0.0449165
0.0449488
0.0450488
0.0452054
0.0454096
0.0456536
0.0459304
0.0462321
0.0465495
0.0468725
0.0471888
0.0474834
0.0477379
0.0479304
0.0480351
0.0480229
0.0478634
0.0475273
0.0469913
0.0462457
0.0453029
0.0442085
0.0430512
0.041968
0.0411429
0.0407937
0.0411486
0.0424143
0.0447422
0.0481967
0.0527316
0.0581802
0.0642678
0.0706566
0.0770187
0.0831206
0.0888661
0.0943111
0.099603
0.104906
0.110342
0.115942
0.121753
0.113289
0.103553
0.0939004
0.084662
0.076184
0.0687632
0.0625685
0.057622
0.0538252
0.0510066
0.04897
0.0475298
0.0465298
0.0458491
0.0453998
0.0451205
0.0449692
0.0449178
0.0449464
0.045041
0.0451904
0.0453856
0.0456182
0.0458803
0.0461631
0.0464565
0.0467492
0.047028
0.0472769
0.0474767
0.0476051
0.0476365
0.047543
0.0472965
0.0468724
0.0462546
0.0454432
0.0444639
0.0433776
0.0422887
0.0413485
0.04075
0.0407124
0.0414557
0.0431673
0.0459672
0.0498759
0.0547937
0.0604991
0.0666777
0.0729842
0.079124
0.0849288
0.0903795
0.0955953
0.100757
0.10603
0.111516
0.11722
0.123129
0.115536
0.105284
0.0951613
0.0855025
0.0766842
0.0690141
0.06266
0.0576293
0.0538029
0.0509877
0.0489701
0.047552
0.0465702
0.0459011
0.0454564
0.0451758
0.045019
0.044959
0.0449773
0.0450601
0.0451966
0.0453773
0.0455933
0.0458359
0.0460954
0.0463603
0.0466183
0.0468551
0.0470538
0.0471947
0.0472551
0.0472102
0.0470338
0.0467014
0.0461938
0.0455035
0.044642
0.0436489
0.0426012
0.0416186
0.0408649
0.0405389
0.0408567
0.0420232
0.0441976
0.0474581
0.0517722
0.0569827
0.0628204
0.0689498
0.0750436
0.0808651
0.0863235
0.0914779
0.0964987
0.101585
0.106893
0.112494
0.118361
0.124425
0.117852
0.107083
0.0964897
0.0864125
0.0772574
0.0693428
0.0628338
0.0577226
0.0538682
0.0510561
0.0490547
0.0476541
0.0466848
0.0460204
0.0455731
0.0452838
0.045114
0.0450384
0.0450394
0.0451041
0.0452215
0.0453821
0.0455762
0.0457944
0.0460256
0.0462574
0.0464764
0.0466672
0.0468122
0.0468912
0.0468818
0.0467603
0.0465031
0.0460903
0.0455096
0.0447631
0.0438748
0.0428991
0.0419283
0.0410964
0.0405761
0.0405677
0.0412769
0.042885
0.045513
0.0491879
0.0538192
0.0591966
0.0650182
0.0709518
0.0767145
0.0821456
0.0872369
0.0921183
0.0969972
0.102077
0.107493
0.11328
0.119376
0.125656
0.120229
0.108942
0.0978809
0.0873889
0.0779018
0.0697478
0.0630884
0.0578998
0.0540188
0.0512087
0.0492207
0.0478333
0.0468706
0.0462047
0.0457478
0.0454429
0.0452532
0.0451551
0.0451323
0.0451723
0.0452647
0.0453993
0.045566
0.0457546
0.0459529
0.0461474
0.0463236
0.0464654
0.0465544
0.0465705
0.0464921
0.0462973
0.0459662
0.0454843
0.0448474
0.0440684
0.0431845
0.0422646
0.0414153
0.0407815
0.0405405
0.0408868
0.0420075
0.0440504
0.0470892
0.0510943
0.055919
0.0613118
0.0669604
0.0725622
0.0779004
0.0828995
0.0876316
0.0922839
0.0970865
0.102235
0.107837
0.113884
0.12028
0.126843
0.122657
0.110855
0.0993297
0.0884282
0.0786147
0.0702266
0.0634213
0.058158
0.054251
0.0514418
0.0494642
0.0480856
0.0471245
0.0464512
0.0459789
0.0456521
0.0454362
0.0453093
0.0452564
0.0452658
0.0453271
0.0454302
0.0455644
0.0457187
0.0458799
0.0460335
0.0461643
0.0462554
0.0462883
0.0462434
0.0461003
0.04584
0.045447
0.0449135
0.0442444
0.0434639
0.0426223
0.0418021
0.0411213
0.0407312
0.0408071
0.0415296
0.0430578
0.0454971
0.0488677
0.0530838
0.0579522
0.0631994
0.0685278
0.0736874
0.0785412
0.083099
0.0875035
0.0919843
0.0967817
0.102076
0.107939
0.114321
0.121088
0.128005
0.125125
0.112812
0.10083
0.0895258
0.0793927
0.070776
0.0638288
0.0584928
0.0545599
0.05175
0.0497799
0.0484063
0.0474423
0.046757
0.0462641
0.0459104
0.0456631
0.0455022
0.0454138
0.0453872
0.0454123
0.0454789
0.045576
0.045692
0.0458128
0.0459233
0.0460076
0.0460486
0.0460281
0.0459273
0.0457282
0.0454152
0.0449784
0.0444172
0.0437464
0.0430014
0.0422446
0.0415696
0.0411016
0.0409925
0.0414076
0.0425046
0.0444061
0.0471688
0.0507592
0.0550423
0.0597949
0.0647446
0.0696315
0.0742744
0.0786198
0.0827551
0.0868801
0.0912527
0.0961144
0.101625
0.107822
0.114611
0.12182
0.129162
0.12762
0.114806
0.102375
0.0906769
0.0802314
0.0713919
0.0643061
0.0588986
0.0549392
0.0521265
0.0501611
0.0487891
0.047819
0.047118
0.0466013
0.0462169
0.0459345
0.0457355
0.0456076
0.0455409
0.0455258
0.0455521
0.0456088
0.0456838
0.0457625
0.0458295
0.0458685
0.0458628
0.0457948
0.0456476
0.0454057
0.0450582
0.0446011
0.0440419
0.0434047
0.0427357
0.0421069
0.0416193
0.0413998
0.0415935
0.0423476
0.0437891
0.0459976
0.0489802
0.0526548
0.0568515
0.0613373
0.0658634
0.0702249
0.074316
0.0781618
0.0819141
0.0858157
0.0901417
0.09513
0.100919
0.107514
0.114777
0.122495
0.130336
0.130132
0.116827
0.103958
0.0918757
0.081126
0.0720691
0.0648473
0.0593686
0.0553811
0.0525632
0.0505997
0.0492269
0.0482482
0.0475298
0.0469873
0.0465706
0.0462511
0.046012
0.0458423
0.045733
0.0456753
0.0456592
0.0456738
0.0457072
0.0457442
0.0457696
0.0457675
0.0457217
0.0456161
0.0454359
0.0451694
0.0448104
0.0443613
0.0438375
0.0432719
0.0427188
0.0422571
0.0419898
0.0420393
0.0425363
0.0436027
0.0453286
0.0477494
0.0508266
0.0544412
0.0584063
0.0624997
0.0665137
0.0703074
0.0738483
0.0772287
0.0806498
0.0843843
0.0887176
0.093883
0.100002
0.107049
0.114846
0.123136
0.131545
0.132645
0.118863
0.10557
0.0931157
0.0820706
0.0728016
0.0654457
0.0598948
0.0558767
0.0530505
0.0510862
0.0497107
0.0487226
0.0479865
0.0474185
0.0469699
0.0466137
0.0463346
0.046123
0.0459709
0.0458704
0.0458121
0.0457854
0.0457787
0.0457772
0.045766
0.0457301
0.0456544
0.0455248
0.0453293
0.0450602
0.0447163
0.0443063
0.0438526
0.0433947
0.0429926
0.0427273
0.0426983
0.0430168
0.0437928
0.0451172
0.0470419
0.0495609
0.0525997
0.0560179
0.05963
0.0632421
0.0666977
0.0699205
0.0729424
0.0759076
0.0790533
0.0826714
0.0870547
0.0924346
0.0989207
0.106462
0.114844
0.123764
0.132807
0.135147
0.120905
0.107203
0.0943901
0.0830591
0.073583
0.0660937
0.0604683
0.0564159
0.0535778
0.05161
0.0502306
0.0492333
0.0484811
0.04789
0.0474122
0.0470221
0.0467058
0.0464548
0.0462625
0.0461217
0.046024
0.0459596
0.0459173
0.0458833
0.0458436
0.0457846
0.0456927
0.0455561
0.0453662
0.0451191
0.0448185
0.0444785
0.0441268
0.0438072
0.0435811
0.0435268
0.0437349
0.0442995
0.0453053
0.0468105
0.0488311
0.0513275
0.0542022
0.0573099
0.0604826
0.0635656
0.0664567
0.0691375
0.0716914
0.0742996
0.0772235
0.0807673
0.0852309
0.0908485
0.0977251
0.105792
0.1148
0.124399
0.134139
0.137623
0.122942
0.108848
0.0956916
0.0840849
0.0744064
0.0667834
0.0610799
0.0569882
0.0541335
0.0521594
0.0507753
0.0497704
0.0490053
0.0483956
0.0478939
0.0474754
0.0471273
0.0468424
0.0466151
0.0464395
0.0463083
0.0462127
0.0461425
0.0460852
0.0460283
0.0459597
0.0458679
0.0457439
0.0455819
0.0453819
0.0451516
0.044909
0.0446847
0.0445235
0.0444843
0.0446378
0.0450608
0.0458266
0.0469927
0.0485868
0.0505949
0.052955
0.0555607
0.0582761
0.060962
0.0635076
0.0658607
0.0680508
0.0701985
0.0725095
0.0752594
0.0787612
0.0833234
0.0891889
0.0964665
0.105077
0.114741
0.125061
0.135551
0.140059
0.124962
0.110497
0.097013
0.0851413
0.0752649
0.0675071
0.0617204
0.0575829
0.0547059
0.052722
0.0513329
0.0503227
0.0495495
0.0489277
0.0484097
0.0479708
0.0475991
0.0472885
0.0470345
0.0468326
0.0466767
0.0465594
0.0464718
0.0464032
0.0463428
0.0462804
0.0462067
0.0461152
0.046003
0.0458731
0.0457357
0.0456108
0.0455292
0.0455332
0.0456753
0.0460147
0.0466112
0.0475158
0.0487605
0.0503474
0.0522417
0.0543707
0.056632
0.0589096
0.0610986
0.0631304
0.0649957
0.0667594
0.0685665
0.0706363
0.0732526
0.0767356
0.0814049
0.0875177
0.095195
0.104355
0.114695
0.125765
0.137053
0.142443
0.126954
0.11214
0.098347
0.086222
0.0761524
0.0682578
0.0623816
0.0581902
0.0552838
0.0532857
0.0518907
0.0508782
0.0501029
0.0494771
0.0489522
0.0485033
0.0481188
0.0477933
0.0475236
0.0473063
0.0471371
0.0470101
0.0469179
0.0468519
0.0468033
0.0467636
0.0467259
0.0466857
0.0466423
0.0466004
0.0465713
0.0465747
0.0466386
0.0467997
0.0471011
0.0475879
0.048302
0.0492733
0.0505124
0.0520031
0.0536997
0.0555297
0.0574039
0.0592327
0.0609454
0.0625107
0.0639521
0.065358
0.0668879
0.0687678
0.0712839
0.0747634
0.07954
0.0858914
0.0939581
0.103663
0.114685
0.126524
0.138645
0.144761
0.12891
0.113769
0.0996867
0.0873215
0.0770638
0.0690301
0.0630569
0.0588019
0.0558572
0.0538392
0.0524368
0.0514245
0.0506533
0.0500327
0.049512
0.0490653
0.0486807
0.0483532
0.0480807
0.0478612
0.0476919
0.0475687
0.047486
0.0474372
0.0474155
0.0474143
0.0474284
0.0474548
0.0474941
0.0475511
0.0476365
0.0477672
0.0479663
0.0482626
0.0486875
0.0492718
0.0500403
0.0510054
0.0521619
0.0534835
0.0549225
0.056415
0.0578911
0.0592884
0.060568
0.0617276
0.0628138
0.0639308
0.0652428
0.0669771
0.0694199
0.0729056
0.0777845
0.0843599
0.0927979
0.103034
0.114735
0.127348
0.140326
0.147003
0.130818
0.115376
0.101026
0.0884354
0.0779959
0.0698211
0.0637424
0.0594124
0.0564187
0.0543729
0.0529598
0.0519493
0.0511882
0.0505822
0.0500775
0.0496463
0.0492757
0.0489606
0.0486996
0.048492
0.0483365
0.048231
0.0481716
0.048154
0.0481728
0.0482231
0.0483009
0.0484039
0.0485326
0.0486909
0.0488868
0.0491329
0.0494454
0.0498438
0.0503479
0.0509748
0.0517351
0.0526283
0.0536402
0.0547413
0.0558893
0.057034
0.0581269
0.0591313
0.0600337
0.060854
0.0616544
0.0625462
0.0636931
0.06532
0.0677119
0.0712106
0.0761846
0.0829658
0.0917517
0.102496
0.114859
0.128241
0.142085
0.149157
0.13267
0.116954
0.10236
0.0895611
0.0789481
0.0706311
0.0644382
0.0600204
0.0569643
0.0548803
0.0534506
0.0524413
0.0516948
0.0511119
0.0506349
0.0502328
0.0498908
0.049603
0.0493683
0.0491868
0.0490589
0.048984
0.0489603
0.0489852
0.0490548
0.0491654
0.0493133
0.0494962
0.0497135
0.0499667
0.0502599
0.0505999
0.0509957
0.051457
0.051993
0.0526095
0.0533066
0.0540761
0.0549005
0.0557533
0.0566016
0.0574116
0.0581552
0.0588173
0.0594043
0.0599523
0.0605318
0.0612554
0.0622837
0.0638363
0.0661969
0.0697143
0.0747758
0.0817437
0.0908501
0.102072
0.115072
0.129202
0.143904
0.151215
0.134457
0.118497
0.103685
0.0906982
0.079923
0.0714646
0.0651493
0.0606296
0.0574953
0.0553592
0.0539032
0.0528911
0.0521605
0.0516072
0.0511682
0.0508081
0.0505091