/*--------------------------------*- C++ -*----------------------------------*\
| =========                 |                                                 |
| \\      /  F ield         | OpenFOAM: The Open Source CFD Toolbox           |
|  \\    /   O peration     | Version:  2406                                  |
|   \\  /    A nd           | Website:  www.openfoam.com                      |
|    \\/     M anipulation  |                                                 |
\*---------------------------------------------------------------------------*/
FoamFile
{
    version     2.0;
    format      ascii;
    arch        "LSB;label=32;scalar=64";
    class       surfaceScalarField;
    location    "5000";
    object      phi;
}
// * * * * * * * * * * * * * * * * * * * * * * * * * * * * * * * * * * * * * //

dimensions      [0 3 -1 0 0 0 0];

oriented        oriented;

internalField   nonuniform List<scalar> 
7080
(
1.2695e-06
-1.27093e-06
2.78941e-06
-1.51991e-06
4.17983e-06
-1.39042e-06
5.52076e-06
-1.34093e-06
6.92384e-06
-1.40307e-06
8.44843e-06
-1.52459e-06
1.01009e-05
-1.65252e-06
1.18504e-05
-1.74943e-06
1.36443e-05
-1.79396e-06
1.54215e-05
-1.77721e-06
1.71208e-05
-1.69924e-06
1.8687e-05
-1.56622e-06
2.0075e-05
-1.38802e-06
2.12514e-05
-1.1764e-06
2.21948e-05
-9.43399e-07
2.28952e-05
-7.00335e-07
2.33522e-05
-4.57055e-07
2.35738e-05
-2.21613e-07
2.3574e-05
-1.72224e-10
2.33712e-05
2.02794e-07
2.29867e-05
3.84484e-07
2.24433e-05
5.43457e-07
2.1764e-05
6.79242e-07
2.0972e-05
7.92059e-07
2.00893e-05
8.82675e-07
1.9137e-05
9.52311e-07
1.81345e-05
1.00251e-06
1.70997e-05
1.03483e-06
1.60495e-05
1.05012e-06
1.5002e-05
1.04759e-06
1.39782e-05
1.02376e-06
1.30059e-05
9.72326e-07
1.21202e-05
8.85622e-07
1.13617e-05
7.58513e-07
1.0767e-05
5.94691e-07
1.03527e-05
4.14341e-07
1.00919e-05
2.6081e-07
9.88955e-06
2.02343e-07
9.56609e-06
3.2346e-07
8.865e-06
7.01095e-07
7.49865e-06
1.36635e-06
5.23336e-06
2.26528e-06
1.98918e-06
3.24418e-06
-2.0991e-06
4.08828e-06
-6.68739e-06
4.58828e-06
-1.13244e-05
4.63697e-06
-1.55708e-05
4.24647e-06
-1.90761e-05
3.5053e-06
-2.16029e-05
2.52674e-06
-2.30195e-05
1.41666e-06
-2.32851e-05
2.65624e-07
-2.24394e-05
-8.45771e-07
-2.05981e-05
-1.84128e-06
-1.7949e-05
-2.64911e-06
-1.47371e-05
-3.21188e-06
-1.12393e-05
-3.49778e-06
-7.72964e-06
-3.5097e-06
-4.44919e-06
-3.28045e-06
-1.65113e-06
-2.79806e-06
-1.65114e-06
1.5515e-06
-2.82243e-06
4.33336e-06
-4.30177e-06
7.59957e-06
-4.65664e-06
1.11385e-05
-4.8799e-06
1.49243e-05
-5.18887e-06
1.89574e-05
-5.55767e-06
2.32078e-05
-5.90285e-06
2.76071e-05
-6.14873e-06
3.20583e-05
-6.24516e-06
3.64494e-05
-6.16839e-06
4.06666e-05
-5.91644e-06
4.46039e-05
-5.50346e-06
4.817e-05
-4.95417e-06
5.12927e-05
-4.2991e-06
5.392e-05
-3.5707e-06
5.60201e-05
-2.80039e-06
5.75797e-05
-2.01664e-06
5.86018e-05
-1.24376e-06
5.91031e-05
-5.01426e-07
5.91107e-05
1.95155e-07
5.86602e-05
8.34974e-07
5.77928e-05
1.4109e-06
5.65529e-05
1.91908e-06
5.4987e-05
2.35796e-06
5.31419e-05
2.72785e-06
5.10638e-05
3.03038e-06
4.87982e-05
3.26811e-06
4.63894e-05
3.44365e-06
4.38811e-05
3.55841e-06
4.13178e-05
3.6109e-06
3.87464e-05
3.59516e-06
3.62178e-05
3.50092e-06
3.37863e-05
3.31711e-06
3.15044e-05
3.04038e-06
2.941e-05
2.68918e-06
2.7503e-05
2.32134e-06
2.57137e-05
2.0501e-06
2.38672e-05
2.04876e-06
2.16606e-05
2.53014e-06
1.86748e-05
3.68685e-06
1.44487e-05
5.59244e-06
8.61889e-06
8.09512e-06
1.091e-06
1.07721e-05
-7.83444e-06
1.30137e-05
-1.74669e-05
1.42207e-05
-2.69205e-05
1.40906e-05
-3.53328e-05
1.26587e-05
-4.20207e-05
1.01932e-05
-4.65431e-05
7.04918e-06
-4.86942e-05
3.56775e-06
-4.84681e-05
3.94798e-08
-4.60249e-05
-3.28894e-06
-4.16606e-05
-6.20559e-06
-3.57797e-05
-8.53001e-06
-2.88718e-05
-1.01197e-05
-2.14839e-05
-1.08857e-05
-1.41939e-05
-1.07997e-05
-7.61681e-06
-9.85754e-06
-2.49405e-06
-7.92082e-06
-4.14519e-06
1.235e-06
-4.05743e-06
4.24795e-06
-7.3147e-06
8.39197e-06
-8.80066e-06
1.32744e-05
-9.76228e-06
1.86919e-05
-1.06064e-05
2.45193e-05
-1.1385e-05
3.06453e-05
-1.20289e-05
3.6949e-05
-1.24524e-05
4.32969e-05
-1.25931e-05
4.95495e-05
-1.24209e-05
5.55701e-05
-1.1937e-05
6.1233e-05
-1.11664e-05
6.64291e-05
-1.01503e-05
7.10697e-05
-8.93968e-06
7.50875e-05
-7.5885e-06
7.84369e-05
-6.14972e-06
8.10922e-05
-4.67198e-06
8.30462e-05
-3.19772e-06
8.43071e-05
-1.76231e-06
8.48961e-05
-3.93869e-07
8.48452e-05
8.85838e-07
8.4195e-05
2.06115e-06
8.29921e-05
3.12199e-06
8.12874e-05
4.06264e-06
7.91346e-05
4.88067e-06
7.65888e-05
5.57612e-06
7.37063e-05
6.15067e-06
7.05434e-05
6.60649e-06
6.71571e-05
6.94473e-06
6.36044e-05
7.16364e-06
5.99423e-05
7.25719e-06
5.62276e-05
7.21564e-06
5.25141e-05
7.03061e-06
4.88476e-05
6.70692e-06
4.52544e-05
6.2824e-06
4.17218e-05
5.85386e-06
3.81696e-05
5.60238e-06
3.44152e-05
5.80317e-06
3.01488e-05
6.79652e-06
2.49412e-05
8.89447e-06
1.83169e-05
1.22167e-05
9.90859e-06
1.65034e-05
-3.42107e-07
2.10228e-05
-1.20298e-05
2.47014e-05
-2.42893e-05
2.64802e-05
-3.60268e-05
2.58281e-05
-4.61955e-05
2.28274e-05
-5.39973e-05
1.7995e-05
-5.89594e-05
1.20113e-05
-6.09152e-05
5.5236e-06
-5.99454e-05
-9.30311e-07
-5.63146e-05
-6.91979e-06
-5.04227e-05
-1.20975e-05
-4.27781e-05
-1.61746e-05
-3.39829e-05
-1.89149e-05
-2.47227e-05
-2.01459e-05
-1.57616e-05
-1.97608e-05
-7.95729e-06
-1.76618e-05
-2.31264e-06
-1.35655e-05
-6.45782e-06
9.15286e-07
-4.97272e-06
3.76153e-06
-1.01609e-05
8.14645e-06
-1.31856e-05
1.36701e-05
-1.52859e-05
2.00248e-05
-1.69612e-05
2.69738e-05
-1.8334e-05
3.43176e-05
-1.93726e-05
4.1874e-05
-2.00089e-05
4.94711e-05
-2.01901e-05
5.69467e-05
-1.98966e-05
6.41527e-05
-1.9143e-05
7.09582e-05
-1.79718e-05
7.72524e-05
-1.64445e-05
8.29458e-05
-1.46331e-05
8.79701e-05
-1.26128e-05
9.22771e-05
-1.04567e-05
9.58368e-05
-8.23166e-06
9.86354e-05
-5.99632e-06
0.000100673
-3.80003e-06
0.000101962
-1.68277e-06
0.000102524
3.24193e-07
0.000102388
2.19685e-06
0.000101592
3.91792e-06
0.000100178
5.47633e-06
9.81935e-05
6.86548e-06
9.56875e-05
8.08211e-06
9.27129e-05
9.12529e-06
8.93242e-05
9.99519e-06
8.55773e-05
1.06916e-05
8.15284e-05
1.12126e-05
7.72325e-05
1.15531e-05
7.27413e-05
1.17068e-05
6.81002e-05
1.16717e-05
6.33433e-05
1.14638e-05
5.8486e-05
1.11397e-05
5.35109e-05
1.08289e-05
4.83474e-05
1.07659e-05
4.28437e-05
1.13069e-05
3.67427e-05
1.28975e-05
2.96836e-05
1.59536e-05
2.12616e-05
2.06387e-05
1.11706e-05
2.65944e-05
-5.97563e-07
3.27909e-05
-1.35895e-05
3.76934e-05
-2.68911e-05
3.97818e-05
-3.93632e-05
3.83001e-05
-4.99399e-05
3.34042e-05
-5.78435e-05
2.58985e-05
-6.2656e-05
1.68238e-05
-6.42829e-05
7.15053e-06
-6.28712e-05
-2.34204e-06
-5.87291e-05
-1.10618e-05
-5.22775e-05
-1.85492e-05
-4.40384e-05
-2.44136e-05
-3.46397e-05
-2.83136e-05
-2.48234e-05
-2.99622e-05
-1.54493e-05
-2.9135e-05
-7.49029e-06
-2.56208e-05
-2.00514e-06
-1.90506e-05
-8.46297e-06
7.26544e-07
-5.69926e-06
3.36144e-06
-1.27958e-05
7.72722e-06
-1.75514e-05
1.34884e-05
-2.10471e-05
2.03042e-05
-2.3777e-05
2.78694e-05
-2.58993e-05
3.59166e-05
-2.74198e-05
4.42097e-05
-2.8302e-05
5.25403e-05
-2.85207e-05
6.07261e-05
-2.80824e-05
6.86108e-05
-2.70278e-05
7.60646e-05
-2.54256e-05
8.29827e-05
-2.33626e-05
8.92843e-05
-2.09347e-05
9.49098e-05
-1.82383e-05
9.98182e-05
-1.53651e-05
0.000103984
-1.23975e-05
0.000107395
-9.407e-06
0.000110048
-6.45356e-06
0.000111951
-3.58566e-06
0.000113117
-8.41281e-07
0.000113563
1.75006e-06
0.000113315
4.16608e-06
0.000112401
6.39099e-06
0.000110852
8.4143e-06
0.000108705
1.02293e-05
0.000105998
1.18318e-05
0.000102774
1.32194e-05
9.90755e-05
1.43899e-05
9.49478e-05
1.53403e-05
9.04336e-05
1.60672e-05
8.55726e-05
1.65678e-05
8.03972e-05
1.68472e-05
7.49293e-05
1.69317e-05
6.91756e-05
1.68934e-05
6.31201e-05
1.68844e-05
5.67113e-05
1.71747e-05
4.98433e-05
1.81749e-05
4.23357e-05
2.0405e-05
3.39302e-05
2.43592e-05
2.4332e-05
3.02368e-05
1.33259e-05
3.76006e-05
9.50201e-07
4.51666e-05
-1.23503e-05
5.09939e-05
-2.57196e-05
5.31511e-05
-3.80888e-05
5.06693e-05
-4.84708e-05
4.37862e-05
-5.61666e-05
3.35943e-05
-6.08272e-05
2.14843e-05
-6.24041e-05
8.7274e-06
-6.10567e-05
-3.68938e-06
-5.70731e-05
-1.50455e-05
-5.08316e-05
-2.47906e-05
-4.28096e-05
-3.24356e-05
-3.3606e-05
-3.75173e-05
-2.3963e-05
-3.96052e-05
-1.47717e-05
-3.83263e-05
-7.043e-06
-3.33495e-05
-1.82398e-06
-2.42696e-05
-1.02869e-05
6.71321e-07
-6.37058e-06
3.19597e-06
-1.53205e-05
7.51342e-06
-2.18688e-05
1.33521e-05
-2.68857e-05
2.03728e-05
-3.07977e-05
2.82377e-05
-3.37641e-05
3.6636e-05
-3.58181e-05
4.52927e-05
-3.69587e-05
5.39713e-05
-3.71993e-05
6.24739e-05
-3.65849e-05
7.064e-05
-3.51939e-05
7.83443e-05
-3.31298e-05
8.54927e-05
-3.0511e-05
9.2018e-05
-2.746e-05
9.78754e-05
-2.40957e-05
0.000103037
-2.0527e-05
0.000107489
-1.68496e-05
0.000111227
-1.31447e-05
0.000114252
-9.47888e-06
0.000116572
-5.90531e-06
0.000118196
-2.46517e-06
0.000119136
8.10325e-07
0.000119404
3.89747e-06
0.000119017
6.77844e-06
0.00011799
9.44082e-06
0.000116344
1.18759e-05
0.000114098
1.40775e-05
0.000111277
1.60408e-05
0.000107904
1.7762e-05
0.000104007
1.92373e-05
9.96108e-05
2.04639e-05
9.47364e-05
2.14422e-05
8.9401e-05
2.21826e-05
8.36134e-05
2.27193e-05
7.73727e-05
2.31342e-05
7.06656e-05
2.35915e-05
6.34615e-05
2.43789e-05
5.57017e-05
2.59347e-05
4.72862e-05
2.88205e-05
3.80666e-05
3.35788e-05
2.78692e-05
4.04342e-05
1.65744e-05
4.88954e-05
4.25168e-06
5.74893e-05
-8.71097e-06
6.39565e-05
-2.15917e-05
6.60318e-05
-3.34643e-05
6.25419e-05
-4.34658e-05
5.37877e-05
-5.09849e-05
4.11134e-05
-5.57175e-05
2.62169e-05
-5.76164e-05
1.06263e-05
-5.68026e-05
-4.50313e-06
-5.34975e-05
-1.83506e-05
-4.79989e-05
-3.02893e-05
-4.07051e-05
-3.97293e-05
-3.21527e-05
-4.60696e-05
-2.30479e-05
-4.871e-05
-1.4272e-05
-4.71022e-05
-6.84012e-06
-4.07814e-05
-1.79315e-06
-2.93166e-05
-1.20801e-05
7.12436e-07
-7.08302e-06
3.25247e-06
-1.78605e-05
7.58784e-06
-2.62042e-05
1.34802e-05
-3.27781e-05
2.05982e-05
-3.79157e-05
2.85893e-05
-4.17553e-05
3.71182e-05
-4.4347e-05
4.58857e-05
-4.57263e-05
5.46379e-05
-4.59515e-05
6.31688e-05
-4.51158e-05
7.13191e-05
-4.33442e-05
7.89721e-05
-4.07829e-05
8.60478e-05
-3.75866e-05
9.24957e-05
-3.39079e-05
9.82883e-05
-2.98883e-05
0.000103415
-2.56534e-05
0.000107875
-2.131e-05
0.000111676
-1.69458e-05
0.000114828
-1.26311e-05
0.000117343
-8.41975e-06
0.00011923
-4.35276e-06
0.000120501
-4.59775e-07
0.000121161
3.23741e-06
0.000121216
6.72271e-06
0.000120673
9.98464e-06
0.000119533
1.3015e-05
0.000117803
1.58076e-05
0.000115487
1.83574e-05
0.000112589
2.06599e-05
0.000109115
2.27112e-05
0.00010507
2.45093e-05
0.000100455
2.60566e-05
9.52708e-05
2.73669e-05
8.95113e-05
2.84788e-05
8.31675e-05
2.94779e-05
7.62277e-05
3.05313e-05
6.86781e-05
3.19285e-05
6.05007e-05
3.41121e-05
5.16665e-05
3.76547e-05
4.2128e-05
4.31173e-05
3.18251e-05
5.07372e-05
2.07258e-05
5.99947e-05
8.91366e-06
6.93014e-05
-3.31243e-06
7.61826e-05
-1.54054e-05
7.81248e-05
-2.66236e-05
7.37601e-05
-3.62411e-05
6.34053e-05
-4.37184e-05
4.85907e-05
-4.87606e-05
3.12591e-05
-5.12799e-05
1.31456e-05
-5.13233e-05
-4.45975e-06
-4.9022e-05
-2.06519e-05
-4.4578e-05
-3.47332e-05
-3.82978e-05
-4.60095e-05
-3.06389e-05
-5.37285e-05
-2.22491e-05
-5.70998e-05
-1.39754e-05
-5.53759e-05
-6.82401e-06
-4.79327e-05
-1.85341e-06
-3.42872e-05
-1.39335e-05
8.08034e-07
-7.89105e-06
3.45986e-06
-2.05123e-05
7.89064e-06
-3.0635e-05
1.38617e-05
-3.87492e-05
2.10407e-05
-4.50946e-05
2.90659e-05
-4.97804e-05
3.75881e-05
-5.28692e-05
4.62956e-05
-5.44338e-05
5.49275e-05
-5.45834e-05
6.32785e-05
-5.34668e-05
7.1197e-05
-5.12628e-05
7.85799e-05
-4.81657e-05
8.5364e-05
-4.43708e-05
9.15178e-05
-4.00616e-05
9.70321e-05
-3.54026e-05
0.000101913
-3.05343e-05
0.000106176
-2.55725e-05
0.000109839
-2.06088e-05
0.000112921
-1.57139e-05
0.000115442
-1.094e-05
0.000117414
-6.32475e-06
0.000118848
-1.89381e-06
0.00011975
2.33552e-06
0.00012012
6.3519e-06
0.000119958
1.01476e-05
0.000119255
1.37175e-05
0.000118005
1.70581e-05
0.000116196
2.01663e-05
0.000113816
2.3039e-05
0.000110854
2.56738e-05
0.000107293
2.80699e-05
0.000103118
3.02315e-05
9.83111e-05
3.21742e-05
9.28521e-05
3.39378e-05
8.67232e-05
3.56069e-05
7.9911e-05
3.73434e-05
7.24128e-05
3.94267e-05
6.42405e-05
4.22844e-05
5.54205e-05
4.64747e-05
4.59872e-05
5.25505e-05
3.59753e-05
6.07491e-05
2.54255e-05
7.05445e-05
1.44229e-05
8.0304e-05
3.16446e-06
8.7441e-05
-7.98782e-06
8.92771e-05
-1.84955e-05
8.42677e-05
-2.77653e-05
7.26751e-05
-3.53084e-05
5.61339e-05
-4.0809e-05
3.67597e-05
-4.41114e-05
1.6448e-05
-4.5172e-05
-3.39913e-06
-4.40266e-05
-2.17973e-05
-4.07828e-05
-3.79771e-05
-3.5655e-05
-5.11373e-05
-2.90164e-05
-6.03672e-05
-2.14424e-05
-6.46738e-05
-1.37293e-05
-6.3089e-05
-6.86504e-06
-5.4797e-05
-1.93953e-06
-3.92127e-05
-1.5873e-05
9.24489e-07
-8.81554e-06
3.74104e-06
-2.33289e-05
8.31842e-06
-3.52123e-05
1.43913e-05
-4.48221e-05
2.16139e-05
-5.23172e-05
2.9614e-05
-5.77805e-05
3.80337e-05
-6.12889e-05
4.65574e-05
-6.29575e-05
5.49266e-05
-6.29526e-05
6.2945e-05
-6.14851e-05
7.04758e-05
-5.87936e-05
7.74344e-05
-5.51244e-05
8.37778e-05
-5.07141e-05
8.94939e-05
-4.57778e-05
9.4592e-05
-4.05007e-05
9.9094e-05
-3.50363e-05
0.000103028
-2.95063e-05
0.000106423
-2.40038e-05
0.000109306
-1.85973e-05
0.000111701
-1.33352e-05
0.000113626
-8.2495e-06
0.000115093
-3.3604e-06
0.000116107
1.32099e-06
0.00011667
5.78949e-06
0.000116774
1.00432e-05
0.000116409
1.40823e-05
0.000115559
1.7908e-05
0.000114204
2.15213e-05
0.00011232
2.49229e-05
0.000109881
2.81134e-05
0.000106856
3.10945e-05
0.000103215
3.38727e-05
9.89244e-05
3.64647e-05
9.39526e-05
3.89096e-05
8.82718e-05
4.12876e-05
8.1865e-05
4.37503e-05
7.47339e-05
4.65578e-05
6.69087e-05
5.01096e-05
5.84535e-05
5.49299e-05
4.94619e-05
6.15422e-05
4.00396e-05
7.01714e-05
3.0282e-05
8.0302e-05
2.02694e-05
9.03167e-05
1.01011e-05
9.76092e-05
-3.54495e-08
9.94137e-05
-9.80165e-06
9.40339e-05
-1.87308e-05
8.16042e-05
-2.63698e-05
6.37728e-05
-3.23652e-05
4.27552e-05
-3.64826e-05
2.05654e-05
-3.85862e-05
-1.29559e-06
-3.86211e-05
-2.17624e-05
-3.66111e-05
-3.99871e-05
-3.26863e-05
-5.50621e-05
-2.71353e-05
-6.59181e-05
-2.0454e-05
-7.13552e-05
-1.33738e-05
-7.01692e-05
-6.85135e-06
-6.13195e-05
-2.00543e-06
-4.40587e-05
-1.78785e-05
1.03994e-06
-9.85548e-06
4.03641e-06
-2.63254e-05
8.77728e-06
-3.99532e-05
1.49537e-05
-5.09985e-05
2.21955e-05
-5.9559e-05
3.01166e-05
-6.57016e-05
3.83537e-05
-6.9526e-05
4.65937e-05
-7.11975e-05
5.45886e-05
-7.09475e-05
6.21592e-05
-6.90558e-05
6.91901e-05
-6.58244e-05
7.56192e-05
-6.15535e-05
8.14259e-05
-5.65209e-05
8.66184e-05
-5.09703e-05
9.12228e-05
-4.51051e-05
9.52746e-05
-3.9088e-05
9.8812e-05
-3.30436e-05
0.000101872
-2.70636e-05
0.000104487
-2.12122e-05
0.000106683
-1.55318e-05
0.000108482
-1.00483e-05
0.000109897
-4.77487e-06
0.000110934
2.8406e-07
0.000111593
5.12986e-06
0.000111869
9.76734e-06
0.000111748
1.42031e-05
0.000111212
1.84444e-05
0.000110235
2.24979e-05
0.000108788
2.63696e-05
0.000106837
3.00647e-05
0.000104342
3.35892e-05
0.000101263
3.69525e-05
9.75546e-05
4.01727e-05
9.31766e-05
4.32876e-05
8.80926e-05
4.63716e-05
8.22801e-05
4.95627e-05
7.57409e-05
5.3097e-05
6.85132e-05
5.73373e-05
6.06818e-05
6.27612e-05
5.23769e-05
6.98471e-05
4.37511e-05
7.87972e-05
3.49373e-05
8.91158e-05
2.60085e-05
9.92456e-05
1.6983e-05
0.000106635
7.89678e-06
0.0001085
-1.08971e-06
0.00010302
-9.6393e-06
9.01538e-05
-1.73253e-05
7.14588e-05
-2.37557e-05
4.91855e-05
-2.86197e-05
2.54294e-05
-3.1697e-05
1.78169e-06
-3.28525e-05
-2.06068e-05
-3.20391e-05
-4.08006e-05
-2.93129e-05
-5.77883e-05
-2.48826e-05
-7.03483e-05
-1.91602e-05
-7.70776e-05
-1.28007e-05
-7.65287e-05
-6.71278e-06
-6.74074e-05
-2.02572e-06
-4.87457e-05
-1.99042e-05
1.143e-06
-1.09985e-05
4.30885e-06
-2.94912e-05
9.20158e-06
-4.48459e-05
1.54596e-05
-5.72565e-05
2.26813e-05
-6.67807e-05
3.04645e-05
-7.34848e-05
3.8443e-05
-7.75045e-05
4.63123e-05
-7.90667e-05
5.38422e-05
-7.84774e-05
6.08774e-05
-7.6091e-05
6.73289e-05
-7.22759e-05
7.31609e-05
-6.73855e-05
7.83763e-05
-6.17362e-05
8.30025e-05
-5.55965e-05
8.70808e-05
-4.91834e-05
9.06571e-05
-4.26643e-05
9.37767e-05
-3.61633e-05
9.64809e-05
-2.97677e-05
9.88042e-05
-2.35355e-05
0.000100775
-1.75022e-05
0.000102412
-1.16862e-05
0.000103732
-6.09403e-06
0.000104739
-7.23285e-07
0.000105435
4.43371e-06
0.000105814
9.38839e-06
0.000105863
1.41538e-05
0.000105564
1.87435e-05
0.000104892
2.31706e-05
0.000103814
2.74472e-05
0.000102294
3.15845e-05
0.00010029
3.55936e-05
9.77543e-05
3.9488e-05
9.46388e-05
4.32882e-05
9.08955e-05
4.70309e-05
8.64826e-05
5.07846e-05
8.13722e-05
5.46731e-05
7.55627e-05
5.89066e-05
6.90926e-05
6.38074e-05
6.20543e-05
6.97996e-05
5.45946e-05
7.73067e-05
4.68917e-05
8.65001e-05
3.90997e-05
9.69078e-05
3.12855e-05
0.00010706
2.34072e-05
0.000114513
1.53814e-05
0.000116526
7.2199e-06
0.000111182
-8.67082e-07
9.82408e-05
-8.49495e-06
7.90867e-05
-1.5234e-05
5.59246e-05
-2.07104e-05
3.09058e-05
-2.46316e-05
5.70294e-06
-2.67953e-05
-1.84431e-05
-2.70952e-05
-4.05007e-05
-2.55247e-05
-5.93588e-05
-2.22197e-05
-7.36534e-05
-1.75081e-05
-8.17891e-05
-1.19597e-05
-8.20771e-05
-6.41617e-06
-7.29509e-05
-1.98955e-06
-5.31723e-05
-2.18937e-05
1.22944e-06
-1.22279e-05
4.53955e-06
-3.28013e-05
9.55314e-06
-4.98595e-05
1.58525e-05
-6.35558e-05
2.30012e-05
-7.39295e-05
3.05813e-05
-8.10649e-05
3.82273e-05
-8.51504e-05
4.56491e-05
-8.64885e-05
5.26408e-05
-8.54692e-05
5.90766e-05
-8.25267e-05
6.48977e-05
-7.8097e-05
7.00961e-05
-7.25839e-05
7.46978e-05
-6.63379e-05
7.8748e-05
-5.96467e-05
8.23e-05
-5.27354e-05
8.54073e-05
-4.57717e-05
8.8119e-05
-3.8875e-05
9.04771e-05
-3.21258e-05
9.25158e-05
-2.55742e-05
9.42616e-05
-1.92479e-05
9.57333e-05
-1.3158e-05
9.69433e-05
-7.30407e-06
9.78979e-05
-1.67782e-06
9.85974e-05
3.7342e-06
9.90366e-05
8.94915e-06
9.92045e-05
1.39859e-05
9.90841e-05
1.88639e-05
9.8652e-05
2.36027e-05
9.78787e-05
2.82205e-05
9.67284e-05
3.27349e-05
9.51591e-05
3.71629e-05
9.31243e-05
4.15228e-05
9.0574e-05
4.58385e-05
8.74583e-05
5.01467e-05
8.3732e-05
5.45108e-05
7.93636e-05
5.90415e-05
7.43464e-05
6.39238e-05
6.87147e-05
6.94391e-05
6.25581e-05
7.59561e-05
5.60258e-05
8.3839e-05
4.93033e-05
9.32226e-05
4.25535e-05
0.000103658
3.58382e-05
0.000113775
2.90768e-05
0.000121274
2.21009e-05
0.000123502
1.4804e-05
0.000118479
7.2831e-06
0.000105762
-1.41686e-07
8.65115e-05
-7.02798e-06
6.28109e-05
-1.29459e-05
3.68236e-05
-1.75467e-05
1.03038e-05
-2.05735e-05
-1.54163e-05
-2.18715e-05
-3.92028e-05
-2.13825e-05
-5.98477e-05
-1.9178e-05
-7.58579e-05
-1.55061e-05
-8.5461e-05
-1.08459e-05
-8.67373e-05
-5.9547e-06
-7.78421e-05
-1.89465e-06
-5.72324e-05
-2.37884e-05
1.29889e-06
-1.35268e-05
4.72113e-06
-3.62236e-05
9.8133e-06
-5.49517e-05
1.61019e-05
-6.98443e-05
2.31163e-05
-8.0944e-05
3.04253e-05
-8.8374e-05
3.76692e-05
-9.23942e-05
4.45783e-05
-9.33977e-05
5.09767e-05
-9.18676e-05
5.67717e-05
-8.83217e-05
6.19369e-05
-8.32622e-05
6.64919e-05
-7.71389e-05
7.04841e-05
-7.03301e-05
7.39736e-05
-6.31362e-05
7.70225e-05
-5.57842e-05
7.96884e-05
-4.84376e-05
8.20209e-05
-4.12075e-05
8.40604e-05
-3.41653e-05
8.58381e-05
-2.7352e-05
8.73774e-05
-2.07871e-05
8.8694e-05
-1.44746e-05
8.9798e-05
-8.40807e-06
9.0694e-05
-2.57376e-06
9.13817e-05
3.04646e-06
9.18565e-05
8.47432e-06
9.2109e-05
1.37335e-05
9.21243e-05
1.88486e-05
9.18826e-05
2.38444e-05
9.13577e-05
2.87454e-05
9.05177e-05
3.3575e-05
8.93243e-05
3.83563e-05
8.7734e-05
4.3113e-05
8.56994e-05
4.78731e-05
8.31718e-05
5.26744e-05
8.01058e-05
5.75768e-05
7.64675e-05
6.26798e-05
7.22458e-05
6.81455e-05
6.7468e-05
7.42169e-05
6.22153e-05
8.12089e-05
5.66284e-05
8.94259e-05
5.0888e-05
9.89631e-05
4.51553e-05
0.00010939
3.94889e-05
0.000119441
3.37875e-05
0.000126976
2.783e-05
0.000129459
2.14223e-05
0.000124886
1.45622e-05
0.000112622
7.49727e-06
9.35764e-05
6.47182e-07
6.9661e-05
-5.52657e-06
4.29974e-05
-1.06262e-05
1.54034e-05
-1.43518e-05
-1.16906e-05
-1.65097e-05
-3.70448e-05
-1.70003e-05
-5.93571e-05
-1.5841e-05
-7.70173e-05
-1.32073e-05
-8.80946e-05
-9.48732e-06
-9.04573e-05
-5.33938e-06
-8.19901e-05
-1.7438e-06
-6.0828e-05
-2.55322e-05
1.35236e-06
-1.48792e-05
4.85203e-06
-3.97232e-05
9.97488e-06
-6.00746e-05
1.61947e-05
-7.60641e-05
2.30103e-05
-8.77596e-05
2.99822e-05
-9.53459e-05
3.67625e-05
-9.91745e-05
4.31079e-05
-9.97431e-05
4.88766e-05
-9.76363e-05
5.40116e-05
-9.34568e-05
5.85188e-05
-8.77693e-05
6.24437e-05
-8.10638e-05
6.58519e-05
-7.37384e-05
6.88149e-05
-6.60991e-05
7.13998e-05
-5.83692e-05
7.3665e-05
-5.07027e-05
7.56578e-05
-4.32004e-05
7.74148e-05
-3.59223e-05
7.89628e-05
-2.89e-05
8.03205e-05
-2.21448e-05
8.15001e-05
-1.56542e-05
8.25086e-05
-9.4165e-06
8.33485e-05
-3.41365e-06
8.40188e-05
2.37616e-06
8.45151e-05
7.97803e-06
8.48292e-05
1.34193e-05
8.49493e-05
1.87286e-05
8.48584e-05
2.39352e-05
8.45352e-05
2.90686e-05
8.39523e-05
3.41578e-05
8.3077e-05
3.92316e-05
8.1871e-05
4.43191e-05
8.02913e-05
4.94527e-05
7.82932e-05
5.46725e-05
7.58333e-05
6.00367e-05
7.28774e-05
6.56358e-05
6.94107e-05
7.16121e-05
6.54531e-05
7.81746e-05
6.10741e-05
8.55878e-05
5.64007e-05
9.40993e-05
5.15999e-05
0.000103764
4.68249e-05
0.000114165
4.21313e-05
0.000124135
3.74123e-05
0.000131695
3.24208e-05
0.000134451
2.69042e-05
0.000130403
2.07772e-05
0.000118749
1.42099e-05
0.000100144
7.57947e-06
7.62914e-05
1.34438e-06
4.92325e-05
-4.06707e-06
2.08148e-05
-8.31714e-06
-7.44054e-06
-1.11799e-05
-3.41821e-05
-1.25244e-05
-5.80126e-05
-1.23248e-05
-7.72168e-05
-1.06945e-05
-8.97249e-05
-7.93396e-06
-9.32179e-05
-4.59349e-06
-8.53305e-05
-1.54328e-06
-6.38782e-05
-2.70755e-05
1.3911e-06
-1.62703e-05
4.93308e-06
-4.32652e-05
1.00368e-05
-6.51783e-05
1.61287e-05
-8.2156e-05
2.26825e-05
-9.43134e-05
2.92576e-05
-0.000101921
3.55241e-05
-0.000105441
4.12705e-05
-0.00010549
4.63923e-05
-0.000102758
5.08688e-05
-9.79332e-05
5.47363e-05
-9.16369e-05
5.80632e-05
-8.43906e-05
6.09294e-05
-7.66046e-05
6.34131e-05
-6.85829e-05
6.55833e-05
-6.05393e-05
6.74956e-05
-5.26151e-05
6.9193e-05
-4.48978e-05
7.07066e-05
-3.74358e-05
7.20576e-05
-3.02511e-05
7.32599e-05
-2.33471e-05
7.43216e-05
-1.67159e-05
7.52465e-05
-1.03414e-05
7.60354e-05
-4.20247e-06
7.66861e-05
1.72544e-06
7.71945e-05
7.46962e-06
7.75537e-05
1.306e-05
7.77541e-05
1.85282e-05
7.77824e-05
2.3907e-05
7.76212e-05
2.92298e-05
7.72486e-05
3.45304e-05
7.66375e-05
3.98427e-05
7.57557e-05
4.5201e-05
7.45661e-05
5.06422e-05
7.3029e-05
5.62096e-05
7.11049e-05
6.19608e-05
6.87605e-05
6.79801e-05
6.59791e-05
7.43936e-05
6.27733e-05
8.13803e-05
5.92008e-05
8.91604e-05
5.53716e-05
9.79285e-05
5.14353e-05
0.0001077
4.75329e-05
0.000118068
4.37177e-05
0.00012795
3.98873e-05
0.000135525
3.579e-05
0.000138548
3.11406e-05
0.000135052
2.57885e-05
0.000124101
1.98272e-05
0.000106105
1.35752e-05
8.25434e-05
7.46674e-06
5.53409e-05
1.93473e-06
2.63468e-05
-2.65936e-06
-2.84646e-06
-6.06027e-06
-3.07812e-05
-8.11341e-06
-5.59595e-05
-8.76143e-06
-7.65688e-05
-8.06674e-06
-9.04196e-05
-6.24968e-06
-9.5035e-05
-3.74883e-06
-8.78314e-05
-1.30204e-06
-6.6325e-05
-2.83775e-05
1.41607e-06
-1.76863e-05
4.96589e-06
-4.6815e-05
1.00015e-05
-7.0214e-05
1.59082e-05
-8.80627e-05
2.21427e-05
-0.000100548
2.82703e-05
-0.000108048
3.39861e-05
-0.000111157
3.91147e-05
-0.000110618
4.35903e-05
-0.000107234
4.74276e-05
-0.00010177
5.06904e-05
-9.48997e-05
5.34654e-05
-8.71657e-05
5.58424e-05
-7.89815e-05
5.79023e-05
-7.06428e-05
5.97118e-05
-6.23487e-05
6.13217e-05
-5.4225e-05
6.27686e-05
-4.63446e-05
6.4077e-05
-3.87442e-05
6.52623e-05
-3.14364e-05
6.63333e-05
-2.44182e-05
6.72943e-05
-1.76769e-05
6.81463e-05
-1.11934e-05
6.88883e-05
-4.94446e-06
6.95176e-05
1.09617e-06
7.00301e-05
6.95706e-06
7.04203e-05
1.26698e-05
7.06806e-05
1.8268e-05
7.08006e-05
2.3787e-05
7.07671e-05
2.92633e-05
7.05629e-05
3.47346e-05
7.01665e-05
4.02391e-05
6.95516e-05
4.58159e-05
6.86873e-05
5.15065e-05
6.75393e-05
5.73576e-05
6.60726e-05
6.34275e-05
6.42564e-05
6.97963e-05
6.20727e-05
7.65773e-05
5.95286e-05
8.39244e-05
5.66702e-05
9.20188e-05
5.3591e-05
0.000101008
5.04217e-05
0.000110869
4.72893e-05
0.0001212
4.42454e-05
0.000130994
4.11986e-05
0.000138572
3.79081e-05
0.000141838
3.40772e-05
0.000138883
2.95093e-05
0.000128669
2.42271e-05
0.000111387
1.84815e-05
8.8289e-05
1.26646e-05
6.11579e-05
7.1961e-06
3.18153e-05
2.44293e-06
1.90672e-06
-1.32026e-06
-2.7018e-05
-3.92234e-06
-5.33574e-05
-5.28364e-06
-7.52075e-05
-5.42795e-06
-9.02753e-05
-4.5049e-06
-9.5958e-05
-2.84243e-06
-8.94939e-05
-1.03118e-06
-6.81362e-05
-2.94087e-05
1.42796e-06
-1.91143e-05
4.95249e-06
-5.03395e-05
9.87327e-06
-7.51347e-05
1.55424e-05
-9.37318e-05
2.14076e-05
-0.000106413
2.70481e-05
-0.000113689
3.21902e-05
-0.000116299
3.66974e-05
-0.000115125
4.05431e-05
-0.000111079
4.37746e-05
-0.000105002
4.64795e-05
-9.76046e-05
4.87578e-05
-8.9444e-05
5.07044e-05
-8.09281e-05
5.23988e-05
-7.23373e-05
5.39026e-05
-6.38525e-05
5.52595e-05
-5.55819e-05
5.64984e-05
-4.75835e-05
5.76368e-05
-3.98827e-05
5.86843e-05
-3.24838e-05
5.96449e-05
-2.53788e-05
6.05194e-05
-1.85514e-05
6.13067e-05
-1.19807e-05
6.20043e-05
-5.6421e-06
6.26093e-05
4.91196e-07
6.3118e-05
6.44835e-06
6.35259e-05
1.22619e-05
6.38274e-05
1.79666e-05
6.40147e-05
2.35996e-05
6.40781e-05
2.91999e-05
6.40045e-05
3.48082e-05
6.37772e-05
4.04663e-05
6.33754e-05
4.62178e-05
6.27737e-05
5.21082e-05
6.19433e-05
5.81879e-05
6.08537e-05
6.45171e-05
5.94769e-05
7.11731e-05
5.77949e-05
7.82593e-05
5.58104e-05
8.59089e-05
5.35598e-05
9.42694e-05
5.11212e-05
0.000103446
4.86075e-05
0.000113383
4.61319e-05
0.000123676
4.3745e-05
0.000133381
4.13705e-05
0.000140947
3.87886e-05
0.00014442
3.57081e-05
0.000141964
3.1904e-05
0.000132473
2.73389e-05
0.000115952
2.2194e-05
9.34338e-05
1.68066e-05
6.65453e-05
1.15673e-05
3.70546e-05
6.83507e-06
6.6389e-06
2.89028e-06
-2.30732e-05
-8.95418e-08
-5.03776e-05
-2.01391e-06
-7.32832e-05
-2.87761e-06
-8.94116e-05
-2.77e-06
-9.60656e-05
-1.91327e-06
-9.03506e-05
-7.43112e-07
-6.93064e-05
-3.01518e-05
1.42739e-06
-2.05417e-05
4.89527e-06
-5.38074e-05
9.65814e-06
-7.98976e-05
1.50433e-05
-9.9117e-05
2.04981e-05
-0.000111868
2.56236e-05
-0.000118814
3.01818e-05
-0.000120857
3.40774e-05
-0.000119021
3.73215e-05
-0.000114323
3.99909e-05
-0.000107671
4.21918e-05
-9.98055e-05
4.40328e-05
-9.1285e-05
4.56092e-05
-8.25044e-05
4.69958e-05
-7.37239e-05
4.82464e-05
-6.51031e-05
4.9396e-05
-5.67315e-05
5.04653e-05
-4.86528e-05
5.14648e-05
-4.08822e-05
5.23983e-05
-3.34173e-05
5.32657e-05
-2.62462e-05
5.40649e-05
-1.93507e-05
5.47931e-05
-1.27088e-05
5.54471e-05
-6.2961e-06
5.60239e-05
-8.55563e-08
5.65203e-05
5.95186e-06
5.69332e-05
1.1849e-05
5.72584e-05
1.76414e-05
5.74906e-05
2.33674e-05
5.76226e-05
2.90678e-05
5.7645e-05
3.47858e-05
5.7545e-05
4.05664e-05
5.73061e-05
4.64567e-05
5.69079e-05
5.25064e-05
5.63263e-05
5.87696e-05
5.55349e-05
6.53085e-05
5.45086e-05
7.21994e-05
5.32301e-05
7.95379e-05
5.16989e-05
8.744e-05
4.99436e-05
9.60247e-05
4.80293e-05
0.000105361
4.60534e-05
0.000115359
4.4117e-05
0.000125612
4.22708e-05
0.000135227
4.04554e-05
0.000142762
3.84786e-05
0.000146397
3.60672e-05
0.000144375
3.29836e-05
0.000135556
2.91431e-05
0.000119793
2.46608e-05
9.79161e-05
1.98127e-05
7.13935e-05
1.49477e-05
4.19195e-05
1.04039e-05
1.11827e-05
6.45364e-06
-1.91229e-05
3.27068e-06
-4.71946e-05
9.44204e-07
-7.09567e-05
-5.02876e-07
-8.79645e-05
-1.10962e-06
-9.54589e-05
-9.98974e-07
-9.04612e-05
-4.50566e-07
-6.98548e-05
-3.06024e-05
1.41494e-06
-2.19566e-05
4.79707e-06
-5.71895e-05
9.36332e-06
-8.44639e-05
1.44249e-05
-0.000104179
1.94376e-05
-0.000116881
2.40308e-05
-0.000123408
2.80064e-05
-0.000124833
3.13106e-05
-0.000122325
3.39901e-05
-0.000117003
3.61469e-05
-0.000109828
3.79007e-05
-0.000101559
3.93638e-05
-9.27481e-05
4.0628e-05
-8.37687e-05
4.17605e-05
-7.48564e-05
4.28054e-05
-6.6148e-05
4.37883e-05
-5.77143e-05
4.47213e-05
-4.95859e-05
4.56082e-05
-4.1769e-05
4.64475e-05
-3.42566e-05
4.72355e-05
-2.70343e-05
4.7968e-05
-2.00832e-05
4.86409e-05
-1.33817e-05
4.92508e-05
-6.90596e-06
4.97948e-05
-6.29596e-07
5.02708e-05
5.47595e-06
5.06763e-05
1.14434e-05
5.10089e-05
1.73088e-05
5.12651e-05
2.31112e-05
5.144e-05
2.88929e-05
5.15267e-05
3.46991e-05
5.15154e-05
4.05776e-05
5.13932e-05
4.65789e-05
5.11434e-05
5.27562e-05
5.07457e-05
5.91673e-05
5.01773e-05
6.58769e-05
4.94158e-05
7.29609e-05
4.84446e-05
8.05091e-05
4.72615e-05
8.86231e-05
4.58891e-05
9.73971e-05
4.43823e-05
0.000106867
4.2826e-05
0.000116915
4.13116e-05
0.000127127
3.98916e-05
0.000136647
3.85248e-05
0.000144129
3.705e-05
0.000147872
3.52203e-05
0.000146205
3.27989e-05
0.000137978
2.96673e-05
0.000122925
2.58821e-05
0.000101701
2.16566e-05
7.5619e-05
1.72898e-05
4.62863e-05
1.30861e-05
1.53864e-05
9.29624e-06
-1.5333e-05
6.07843e-06
-4.39768e-05
3.51197e-06
-6.83902e-05
1.62564e-06
-8.60782e-05
4.21449e-07
-9.42547e-05
-1.33013e-07
-8.99068e-05
-1.65534e-07
-6.98223e-05
-3.07679e-05
1.39132e-06
-2.33479e-05
4.6611e-06
-6.04593e-05
8.99672e-06
-8.87995e-05
1.37022e-05
-0.000108884
1.82498e-05
-0.000121428
2.2303e-05
-0.000127461
2.57063e-05
-0.000128236
2.84469e-05
-0.000125066
3.06039e-05
-0.00011916
3.22995e-05
-0.000111524
3.36622e-05
-0.000102922
3.48038e-05
-9.38896e-05
3.58091e-05
-8.4774e-05
3.67352e-05
-7.57826e-05
3.76158e-05
-6.70285e-05
3.84663e-05
-5.85649e-05
3.92909e-05
-5.04104e-05
4.00866e-05
-4.25648e-05
4.08477e-05
-3.50177e-05
4.15674e-05
-2.7754e-05
4.22397e-05
-2.07555e-05
4.28599e-05
-1.40019e-05
4.34246e-05
-7.47064e-06
4.39315e-05
-1.13645e-06
4.4379e-05
5.02845e-06
4.4766e-05
1.10564e-05
4.50911e-05
1.69837e-05
4.53523e-05
2.285e-05
4.55464e-05
2.86988e-05
4.56683e-05
3.45772e-05
4.57105e-05
4.05355e-05
4.56624e-05
4.66269e-05
4.55102e-05
5.29084e-05
4.52362e-05
5.94412e-05
4.48205e-05
6.62926e-05
4.42429e-05
7.35385e-05
4.34879e-05
8.12641e-05
4.25523e-05
8.95587e-05
4.14546e-05
9.84948e-05
4.02424e-05
0.00010808
3.89915e-05
0.000118166
3.77869e-05
0.000128331
3.66845e-05
0.00013775
3.56623e-05
0.000145151
3.45915e-05
0.000148943
3.32568e-05
0.00014754
3.14327e-05
0.000139802
2.89795e-05
0.000125378
2.59051e-05
0.000104776
2.23629e-05
7.91612e-05
1.85968e-05
5.00524e-05
1.48671e-05
1.91161e-05
1.13894e-05
-1.18553e-05
8.2942e-06
-4.08816e-05
5.64119e-06
-6.57372e-05
3.45836e-06
-8.38954e-05