/*--------------------------------*- C++ -*----------------------------------*\
| =========                 |                                                 |
| \\      /  F ield         | OpenFOAM: The Open Source CFD Toolbox           |
|  \\    /   O peration     | Version:  2406                                  |
|   \\  /    A nd           | Website:  www.openfoam.com                      |
|    \\/     M anipulation  |                                                 |
\*---------------------------------------------------------------------------*/
FoamFile
{
    version     2.0;
    format      ascii;
    arch        "LSB;label=32;scalar=64";
    class       volScalarField;
    location    "5000";
    object      qin;
}
// * * * * * * * * * * * * * * * * * * * * * * * * * * * * * * * * * * * * * //

dimensions      [1 0 -3 0 0 0 0];

internalField   uniform 0;

boundaryField
{
    bottomwall
    {
        type            calculated;
        value           nonuniform List<scalar> 
60
(
443.216
443.423
443.579
443.746
443.87
443.935
443.972
444.006
444.055
444.148
444.32
444.566
444.838
445.078
445.256
445.383
445.493
445.618
445.777
445.971
446.183
446.376
446.491
446.468
446.275
445.963
445.689
445.674
446.038
446.591
446.671
445.236
441.307
434.724
426.924
421.361
423.192
438.155
470.912
523.435
594.05
677.541
766.274
851.892
926.96
985.994
1025.69
1044.51
1042.09
1018.82
975.892
915.591
841.739
759.778
676.336
598.302
531.538
480.153
445.079
422.64
)
;
    }
    topwall
    {
        type            calculated;
        value           nonuniform List<scalar> 
60
(
447.898
447.172
447.032
446.858
446.935
447.25
447.861
448.894
450.525
452.806
455.552
458.398
460.973
463.046
464.547
465.495
465.922
465.85
465.302
464.325
462.989
461.375
459.565
457.644
455.708
453.896
452.4
451.454
451.283
452.033
453.7
456.104
458.917
461.747
464.236
466.136
467.336
467.837
467.703
467.013
465.842
464.262
462.369
460.302
458.241
456.369
454.839
453.763
453.238
453.365
454.205
455.682
457.543
459.425
461.006
462.102
462.69
462.715
462.543
460.973
)
;
    }
    coldwall
    {
        type            calculated;
        value           nonuniform List<scalar> 
48
(
448.849
451.881
453.432
454.462
455.986
458.819
462.272
464.17
462.825
458.79
454.382
451.661
451.078
451.763
452.628
453.132
453.344
453.64
454.413
455.897
458.074
460.645
463.083
464.795
465.321
464.49
462.467
459.683
456.683
453.966
451.873
450.538
449.922
449.875
450.22
450.807
451.545
452.396
453.357
454.425
455.586
456.799
455.934
453.933
451.955
449.847
447.337
443.733
)
;
    }
    radinlet
    {
        type            calculated;
        value           nonuniform List<scalar> 
12
(
458.001
459.108
460.018
460.636
460.917
460.909
460.748
460.568
460.373
459.989
459.164
457.772
)
;
    }
    hotwall
    {
        type            calculated;
        value           nonuniform List<scalar> 
60
(
431.441
436.65
451.968
458.789
466.304
472.892
477.37
478.339
476.323
472.861
469.58
467.502
466.802
466.992
467.364
467.395
466.9
465.963
464.788
463.579
462.486
461.594
460.93
460.468
460.149
459.895
459.625
459.277
458.818
458.263
457.666
457.098
456.625
456.272
456.023
455.822
455.602
455.309
454.922
454.455
453.95
453.464
453.046
452.724
452.485
452.288
452.103
451.973
452.028
452.41
453.115
453.919
454.486
454.612
454.337
453.796
452.99
451.765
449.996
447.029
)
;
    }
    frontAndback
    {
        type            empty;
    }
}


// ************************************************************************* //
