/*--------------------------------*- C++ -*----------------------------------*\
| =========                 |                                                 |
| \\      /  F ield         | OpenFOAM: The Open Source CFD Toolbox           |
|  \\    /   O peration     | Version:  2406                                  |
|   \\  /    A nd           | Website:  www.openfoam.com                      |
|    \\/     M anipulation  |                                                 |
\*---------------------------------------------------------------------------*/
FoamFile
{
    version     2.0;
    format      ascii;
    arch        "LSB;label=32;scalar=64";
    class       volScalarField;
    location    "5000";
    object      qr;
}
// * * * * * * * * * * * * * * * * * * * * * * * * * * * * * * * * * * * * * //

dimensions      [1 0 -3 0 0 0 0];

internalField   uniform 0;

boundaryField
{
    bottomwall
    {
        type            calculated;
        value           nonuniform List<scalar> 
60
(
-7.01217
-13.6811
-17.4207
-19.6541
-21.0948
-22.0978
-22.8233
-23.3609
-23.7667
-24.0575
-24.2331
-24.316
-24.3604
-24.425
-24.5397
-24.6979
-24.8723
-25.0351
-25.1705
-25.2776
-25.3709
-25.4824
-25.6609
-25.9598
-26.4057
-26.9548
-27.4689
-27.7581
-27.7136
-27.4995
-27.688
-29.1872
-32.8593
-38.8741
-46.0324
-51.4069
-50.6065
-38.7394
-11.8338
31.7831
90.6913
160.505
234.872
306.927
370.623
421.477
456.677
474.739
475.072
457.728
423.481
374.147
312.936
244.529
174.704
109.54
54.3168
12.9673
-13.0032
-25.3203
)
;
    }
    topwall
    {
        type            calculated;
        value           nonuniform List<scalar> 
60
(
9.57176
6.0986
3.36627
0.853664
-1.16624
-2.69695
-3.7017
-4.09548
-3.75881
-2.67598
-1.03059
0.842396
2.60772
4.05342
5.1071
5.77283
6.06598
5.99152
5.55687
4.78865
3.73494
2.45508
1.00943
-0.540504
-2.11863
-3.61384
-4.86689
-5.6807
-5.86146
-5.28134
-3.93735
-1.97658
0.329404
2.65361
4.69781
6.25678
7.24031
7.65325
7.55274
7.00809
6.08163
4.83442
3.34723
1.73778
0.157175
-1.23764
-2.31529
-2.9758
-3.12533
-2.65815
-1.49241
0.351292
2.70881
5.33185
8.011
10.647
13.2626
15.8275
18.6526
20.6879
)
;
    }
    coldwall
    {
        type            calculated;
        value           nonuniform List<scalar> 
48
(
12.2009
14.9295
16.3256
17.2529
18.6244
21.1738
24.2814
25.99
24.779
21.1481
17.1807
14.7313
14.2071
14.8236
15.6018
16.0552
16.246
16.5129
17.2087
18.5441
20.5038
22.8171
25.0113
26.5524
27.0258
26.2776
24.457
21.9512
19.251
16.8063
14.9223
13.7213
13.1666
13.1245
13.4345
13.9626
14.6268
15.3936
16.258
17.2195
18.2638
19.3555
18.5771
16.7769
14.9967
13.0988
10.8397
7.59688
)
;
    }
    radinlet
    {
        type            calculated;
        value           nonuniform List<scalar> 
12
(
-532.642
-531.646
-530.827
-530.27
-530.018
-530.025
-530.17
-530.331
-530.507
-530.853
-531.595
-532.847
)
;
    }
    hotwall
    {
        type            calculated;
        value           nonuniform List<scalar> 
60
(
-3.466
1.22165
15.0077
21.1466
27.9106
33.8395
37.87
38.7416
36.9277
33.8116
30.8585
28.9884
28.3586
28.5292
28.8641
28.892
28.4465
27.6037
26.5462
25.4576
24.4738
23.6717
23.0736
22.6576
22.3704
22.1419
21.8995
21.5858
21.1731
20.6737
20.1357
19.6251
19.1989
18.8819
18.6575
18.4765
18.2783
18.0149
17.6667
17.2463
16.7919
16.354
15.9782
15.6883
15.4737
15.2964
15.1298
15.0122
15.0623
15.4059
16.0406
16.7635
17.2738
17.3872
17.1405
16.653
15.928
14.8252
13.2331
10.5626
)
;
    }
    frontAndback
    {
        type            empty;
    }
}


// ************************************************************************* //
