/*--------------------------------*- C++ -*----------------------------------*\
| =========                 |                                                 |
| \\      /  F ield         | OpenFOAM: The Open Source CFD Toolbox           |
|  \\    /   O peration     | Version:  2406                                  |
|   \\  /    A nd           | Website:  www.openfoam.com                      |
|    \\/     M anipulation  |                                                 |
\*---------------------------------------------------------------------------*/
FoamFile
{
    version     2.0;
    format      ascii;
    arch        "LSB;label=32;scalar=64";
    class       volScalarField;
    location    "5000";
    object      RadNu;
}
// * * * * * * * * * * * * * * * * * * * * * * * * * * * * * * * * * * * * * //

dimensions      [0 0 0 0 0 0 0];

internalField   uniform 0;

boundaryField
{
    bottomwall
    {
        type            calculated;
        value           nonuniform List<scalar> 
60
(
0.340261
0.663867
0.845329
0.953703
1.02361
1.07228
1.10749
1.13357
1.15326
1.16738
1.1759
1.17992
1.18207
1.18521
1.19077
1.19845
1.20691
1.21481
1.22138
1.22658
1.23111
1.23652
1.24518
1.25968
1.28132
1.30796
1.33291
1.34694
1.34479
1.3344
1.34354
1.41629
1.59448
1.88634
2.23369
2.49449
2.45565
1.87981
0.574228
-1.54226
-4.40074
-7.7884
-11.397
-14.8934
-17.9842
-20.4519
-22.16
-23.0364
-23.0526
-22.211
-20.5492
-18.1552
-15.185
-11.8656
-8.4774
-5.31536
-2.63569
-0.62923
0.630972
1.22865
)
;
    }
    topwall
    {
        type            calculated;
        value           nonuniform List<scalar> 
60
(
-0.464464
-0.295931
-0.163346
-0.0414235
0.0565911
0.130868
0.179623
0.198731
0.182394
0.12985
0.0500087
-0.0408767
-0.126538
-0.19669
-0.247819
-0.280123
-0.294348
-0.290735
-0.269644
-0.232366
-0.181236
-0.119131
-0.048982
0.0262276
0.102805
0.175359
0.236163
0.275652
0.284424
0.256274
0.191057
0.0959123
-0.0159841
-0.128765
-0.227958
-0.303606
-0.351332
-0.371369
-0.366492
-0.340063
-0.295107
-0.234587
-0.162422
-0.0843247
-0.00762682
0.0600557
0.112348
0.144399
0.151655
0.128985
0.0724183
-0.0170462
-0.131443
-0.258725
-0.388729
-0.516639
-0.643559
-0.76802
-0.905106
-1.00387
)
;
    }
    coldwall
    {
        type            calculated;
        value           nonuniform List<scalar> 
48
(
-0.592041
-0.724445
-0.79219
-0.837186
-0.903737
-1.02745
-1.17824
-1.26115
-1.20239
-1.0262
-0.833683
-0.714827
-0.689391
-0.719306
-0.757068
-0.779069
-0.788327
-0.801278
-0.835041
-0.899841
-0.994934
-1.10719
-1.21366
-1.28844
-1.31141
-1.2751
-1.18676
-1.06517
-0.934143
-0.815515
-0.724095
-0.665817
-0.638901
-0.636858
-0.651901
-0.677526
-0.709756
-0.746965
-0.788909
-0.835565
-0.886239
-0.939214
-0.901442
-0.814089
-0.727705
-0.635611
-0.52599
-0.368634
)
;
    }
    radinlet
    {
        type            calculated;
        value           nonuniform List<scalar> 
12
(
25.8461
25.7978
25.758
25.731
25.7188
25.7191
25.7262
25.734
25.7425
25.7593
25.7953
25.8561
)
;
    }
    hotwall
    {
        type            calculated;
        value           nonuniform List<scalar> 
60
(
0.168185
-0.0592798
-0.728239
-1.02613
-1.35434
-1.64204
-1.83762
-1.87991
-1.79189
-1.64069
-1.49739
-1.40664
-1.37608
-1.38436
-1.40061
-1.40197
-1.38035
-1.33945
-1.28814
-1.23531
-1.18758
-1.14865
-1.11963
-1.09945
-1.08551
-1.07442
-1.06266
-1.04744
-1.02741
-1.00318
-0.977072
-0.952296
-0.931615
-0.916232
-0.905344
-0.896561
-0.886943
-0.874162
-0.857266
-0.836866
-0.814816
-0.793568
-0.775332
-0.761265
-0.750852
-0.742248
-0.734164
-0.728458
-0.730889
-0.747562
-0.77836
-0.813438
-0.8382
-0.843703
-0.831732
-0.808076
-0.772896
-0.719384
-0.642128
-0.512544
)
;
    }
    frontAndback
    {
        type            empty;
    }
}


// ************************************************************************* //
