/*--------------------------------*- C++ -*----------------------------------*\
| =========                 |                                                 |
| \\      /  F ield         | OpenFOAM: The Open Source CFD Toolbox           |
|  \\    /   O peration     | Version:  2406                                  |
|   \\  /    A nd           | Website:  www.openfoam.com                      |
|    \\/     M anipulation  |                                                 |
\*---------------------------------------------------------------------------*/
FoamFile
{
    version     2.0;
    format      ascii;
    arch        "LSB;label=32;scalar=64";
    class       volScalarField;
    location    "5000";
    object      T;
}
// * * * * * * * * * * * * * * * * * * * * * * * * * * * * * * * * * * * * * //

dimensions      [0 0 0 1 0 0 0];

internalField   nonuniform List<scalar> 
3600
(
297.508
299.012
299.856
300.37
300.704
300.932
301.095
301.217
301.313
301.393
301.463
301.527
301.588
301.647
301.705
301.763
301.821
301.879
301.938
301.998
302.057
302.117
302.177
302.236
302.295
302.353
302.41
302.469
302.528
302.586
302.641
302.69
302.731
302.772
302.826
302.922
303.096
303.384
303.818
304.411
305.145
305.969
306.8
307.533
308.065
308.327
308.302
308.016
307.522
306.875
306.126
305.316
304.476
303.632
302.801
301.985
301.167
300.283
299.184
297.529
296.784
297.95
298.742
299.277
299.646
299.907
300.099
300.246
300.363
300.463
300.551
300.632
300.71
300.787
300.862
300.937
301.013
301.09
301.167
301.244
301.323
301.401
301.48
301.558
301.636
301.714
301.792
301.869
301.947
302.024
302.099
302.171
302.241
302.316
302.408
302.536
302.729
303.016
303.42
303.954
304.604
305.323
306.027
306.607
306.954
307.004
306.759
306.272
305.621
304.882
304.11
303.342
302.597
301.883
301.197
300.522
299.826
299.049
298.092
296.821
296.482
297.313
297.951
298.421
298.766
299.022
299.218
299.372
299.5
299.611
299.711
299.806
299.897
299.987
300.077
300.167
300.257
300.349
300.442
300.535
300.629
300.724
300.819
300.914
301.009
301.104
301.199
301.294
301.389
301.483
301.576
301.669
301.762
301.862
301.977
302.125
302.327
302.61
302.994
303.492
304.092
304.745
305.363
305.826
306.019
305.886
305.453
304.801
304.032
303.232
302.456
301.732
301.069
300.461
299.892
299.342
298.777
298.153
297.413
296.512
296.324
296.917
297.404
297.786
298.082
298.312
298.495
298.646
298.775
298.89
298.997
299.099
299.199
299.298
299.397
299.496
299.597
299.698
299.801
299.904
300.009
300.114
300.221
300.328
300.435
300.543
300.651
300.759
300.868
300.976
301.085
301.194
301.306
301.423
301.556
301.716
301.925
302.205
302.577
303.054
303.623
304.233
304.788
305.159
305.23
304.956
304.383
303.619
302.781
301.957
301.2
300.528
299.937
299.414
298.94
298.49
298.037
297.55
296.994
296.35
296.232
296.665
297.036
297.34
297.586
297.786
297.953
298.095
298.222
298.338
298.448
298.554
298.657
298.76
298.862
298.964
299.068
299.172
299.277
299.384
299.491
299.6
299.711
299.822
299.935
300.049
300.164
300.281
300.398
300.516
300.636
300.757
300.882
301.013
301.157
301.328
301.542
301.821
302.185
302.648
303.196
303.775
304.283
304.587
304.57
304.2
303.54
302.717
301.853
301.04
300.32
299.703
299.177
298.723
298.318
297.94
297.566
297.174
296.742
296.257
296.175
296.506
296.798
297.045
297.254
297.431
297.585
297.722
297.848
297.964
298.075
298.182
298.286
298.388
298.489
298.589
298.689
298.789
298.889
298.991
299.094
299.199
299.306
299.414
299.525
299.638
299.754
299.871
299.991
300.114
300.238
300.366
300.499
300.639
300.792
300.97
301.187
301.465
301.824
302.276
302.807
303.362
303.836
304.095
304.025
303.603
302.905
302.065
301.212
300.431
299.759
299.196
298.725
298.323
297.964
297.63
297.302
296.963
296.601
296.206
296.141
296.41
296.653
296.867
297.054
297.22
297.369
297.506
297.633
297.752
297.865
297.973
298.076
298.175
298.271
298.365
298.457
298.548
298.638
298.73
298.822
298.916
299.012
299.111
299.213
299.318
299.427
299.539
299.655
299.775
299.899
300.028
300.163
300.307
300.465
300.647
300.866
301.142
301.495
301.935
302.451
302.986
303.437
303.671
303.58
303.144
302.446
301.623
300.802
300.066
299.444
298.931
298.504
298.137
297.806
297.492
297.182
296.865
296.533
296.181
296.122
296.357
296.575
296.773
296.953
297.118
297.271
297.413
297.545
297.67
297.786
297.895
297.997
298.093
298.183
298.269
298.351
298.431
298.509
298.587
298.664
298.744
298.825
298.909
298.996
299.088
299.184
299.285
299.392
299.503
299.621
299.746
299.879
300.022
300.18
300.362
300.58
300.853
301.197
301.626
302.125
302.642
303.078
303.304
303.217
302.798
302.129
301.345
300.571
299.883
299.307
298.835
298.44
298.095
297.775
297.465
297.155
296.839
296.511
296.173
296.113
296.334
296.543
296.738
296.922
297.093
297.255
297.406
297.547
297.679
297.8
297.912
298.014
298.107
298.192
298.271
298.343
298.411
298.476
298.539
298.601
298.664
298.728
298.795
298.865
298.94
299.02
299.106
299.198
299.298
299.404
299.52
299.645
299.783
299.937
300.116
300.33
300.596
300.931
301.345
301.826
302.327
302.753
302.983
302.919
302.539
301.92
301.189
300.467
299.826
299.291
298.85
298.476
298.141
297.821
297.504
297.183
296.854
296.517
296.173
296.111
296.329
296.541
296.743
296.935
297.118
297.292
297.455
297.606
297.746
297.873
297.988
298.091
298.183
298.265
298.337
298.401
298.459
298.512
298.562
298.609
298.656
298.703
298.752
298.805
298.862
298.924
298.992
299.068
299.151
299.244
299.347
299.461
299.589
299.736
299.907
300.114
300.371
300.694
301.091
301.554
302.038
302.456
302.698
302.668
302.343
301.786
301.117
300.449
299.853
299.352
298.933
298.571
298.236
297.909
297.579
297.239
296.892
296.538
296.179
296.113
296.337
296.557
296.77
296.976
297.173
297.36
297.535
297.697
297.846
297.98
298.099
298.203
298.295
298.373
298.441
298.499
298.548
298.591
298.629
298.664
298.696
298.728
298.762
298.797
298.837
298.881
298.932
298.99
299.057
299.134
299.221
299.322
299.438
299.573
299.735
299.931
300.177
300.485
300.865
301.307
301.774
302.186
302.441
302.452
302.189
301.703
301.1
300.486
299.931
299.457
299.054
298.696
298.356
298.017
297.669
297.309
296.94
296.565
296.188
296.118
296.353
296.585
296.812
297.032
297.244
297.444
297.632
297.805
297.961
298.101
298.224
298.331
298.422
298.498
298.562
298.615
298.658
298.693
298.722
298.746
298.767
298.787
298.806
298.827
298.851
298.879
298.913
298.955
299.004
299.064
299.136
299.222
299.324
299.446
299.595
299.78
300.012
300.304
300.664
301.085
301.533
301.938
302.208
302.26
302.061
301.649
301.114
300.554
300.037
299.586
299.192
298.834
298.485
298.131
297.763
297.381
296.99
296.594
296.198
296.124
296.372
296.619
296.861
297.096
297.322
297.536
297.736
297.918
298.082
298.227
298.353
298.461
298.552
298.627
298.688
298.737
298.775
298.804
298.825
298.841
298.853
298.862
298.871
298.879
298.89
298.905
298.924
298.95
298.984
299.028
299.084
299.154
299.242
299.35
299.486
299.657
299.874
300.149
300.488
300.887
301.314
301.711
301.993
302.085
301.948
301.608
301.142
300.636
300.154
299.723
299.336
298.973
298.614
298.242
297.854
297.451
297.039
296.623
296.207
296.131
296.394
296.656
296.913
297.164
297.404
297.631
297.841
298.031
298.202
298.351
298.48
298.589
298.679
298.753
298.811
298.856
298.89
298.914
298.93
298.939
298.944
298.945
298.945
298.944
298.944
298.947
298.954
298.967
298.987
299.017
299.058
299.114
299.187
299.281
299.402
299.559
299.76
300.017
300.335
300.711
301.118
301.504
301.796
301.921
301.842
301.571
301.171
300.718
300.272
299.858
299.476
299.107
298.735
298.346
297.938
297.515
297.083
296.649
296.216
296.139
296.417
296.694
296.967
297.232
297.486
297.725
297.944
298.143
298.318
298.471
298.601
298.71
298.799
298.87
298.925
298.967
298.997
299.017
299.028
299.033
299.033
299.028
299.021
299.013
299.004
298.998
298.995
298.997
299.005
299.023
299.051
299.094
299.153
299.233
299.341
299.483
299.669
299.907
300.205
300.558
300.943
301.317
301.613
301.767
301.739
301.532
301.195
300.793
300.38
299.984
299.605
299.23
298.844
298.438
298.011
297.57
297.121
296.671
296.223
296.147
296.44
296.733
297.021
297.301
297.568
297.817
298.045
298.25
298.429
298.584
298.714
298.822
298.908
298.977
299.029
299.068
299.094
299.111
299.119
299.12
299.115
299.106
299.094
299.08
299.066
299.052
299.041
299.034
299.033
299.04
299.058
299.088
299.136
299.204
299.298
299.427
299.597
299.818
300.095
300.425
300.789
301.149
301.446
301.623
301.637
301.487
301.209
300.855
300.475
300.096
299.72
299.339
298.939
298.516
298.072
297.615
297.151
296.689
296.229
296.154
296.464
296.772
297.075
297.369
297.647
297.906
298.142
298.352
298.534
298.689
298.819
298.924
299.008
299.074
299.123
299.158
299.181
299.194
299.199
299.197
299.189
299.176
299.161
299.143
299.124
299.105
299.089
299.075
299.066
299.065
299.073
299.094
299.131
299.188
299.271
299.386
299.542
299.746
300.004
300.312
300.656
300.999
301.294
301.487
301.537
301.436
301.209
300.901
300.552
300.189
299.817
299.429
299.017
298.579
298.119
297.648
297.174
296.702
296.233
296.162
296.487
296.81
297.128
297.435
297.725
297.993
298.235
298.449
298.633
298.788
298.915
299.018
299.098
299.16
299.205
299.236
299.256
299.266
299.268
299.263
299.253
299.238
299.22
299.199
299.177
299.155
299.134
299.115
299.101
299.093
299.094
299.107
299.135
299.182
299.255
299.359
299.502
299.691
299.93
300.218
300.541
300.869
301.158
301.361
301.438
301.378
301.197
300.929
300.61
300.263
299.894
299.5
299.076
298.624
298.152
297.669
297.187
296.709
296.236
296.17
296.51
296.848
297.18
297.5
297.801
298.077
298.325
298.541
298.725
298.878
299.003
299.102
299.178
299.236
299.277
299.304
299.321
299.328
299.327
299.32
299.308
299.291
299.271
299.249
299.225
299.2
299.176
299.154
299.135
299.123
299.118
299.125
299.145
299.185
299.249
299.343
299.474
299.649
299.872
300.141
300.444
300.756
301.037
301.245
301.343
301.316
301.173
300.941
300.649
300.316
299.95
299.55
299.116
298.651
298.168
297.679
297.192
296.711
296.237
296.177
296.533
296.886
297.232
297.563
297.874
298.158
298.41
298.628
298.811
298.962
299.083
299.178
299.25
299.302
299.339
299.363
299.376
299.38
299.377
299.368
299.354
299.336
299.315
299.291
299.265
299.239
299.213
299.189
299.168
299.152
299.143
299.145
299.16
299.193
299.25
299.335
299.457
299.619
299.828
300.08
300.365
300.66
300.932
301.14
301.253
301.251
301.14
300.938
300.668
300.347
299.983
299.578
299.134
298.66
298.169
297.676
297.188
296.709
296.236
296.185
296.555
296.923
297.282
297.625
297.945
298.235
298.491
298.709
298.891
299.039
299.156
299.246
299.313
299.36
299.393
299.413
299.422
299.424
299.419
299.408
299.392
299.373
299.351
299.326
299.3
299.273
299.246
299.22
299.197
299.179
299.167
299.166
299.177
299.206
299.257
299.335
299.448
299.601
299.796
300.033
300.301
300.58
300.841
301.047
301.168
301.185
301.098
300.92
300.668
300.357
299.994
299.583
299.131
298.65
298.155
297.661
297.176
296.701
296.233
296.192
296.577
296.959
297.331
297.686
298.014
298.31
298.568
298.786
298.966
299.11
299.222
299.306
299.368
299.411
299.439
299.455
299.461
299.46
299.453
299.44
299.424
299.404
299.381
299.356
299.329
299.301
299.274
299.247
299.223
299.204
299.191
299.187
299.196
299.221
299.268
299.342
299.448
299.591
299.776
299.999
300.252
300.516
300.764
300.965
301.09
301.119
301.05
300.89
300.652
300.347
299.983
299.567
299.108
298.622
298.127
297.636
297.156
296.689
296.229
296.199
296.598
296.994
297.379
297.744
298.081
298.381
298.641
298.858
299.035
299.175
299.281
299.361
299.417
299.455
299.479
299.491
299.494
299.49
299.48
299.466
299.449
299.428
299.405
299.379
299.352
299.325
299.297
299.271
299.247
299.227
299.213
299.209
299.216
299.239
299.283
299.353
299.454
299.591
299.765
299.977
300.215
300.465
300.701
300.895
301.019
301.055
300.997
300.848
300.619
300.317
299.951
299.529
299.065
298.578
298.085
297.601
297.131
296.674
296.224
296.206
296.619
297.029
297.426
297.801
298.145
298.449
298.71
298.926
299.099
299.234
299.335
299.409
299.46
299.493
299.512
299.521
299.521
299.514
299.503
299.487
299.469
299.447
299.424
299.398
299.372
299.344
299.317
299.291
299.268
299.248
299.234
299.23
299.236
299.259
299.301
299.369
299.466
299.597
299.764
299.965
300.191
300.427
300.651
300.835
300.955
300.992
300.939
300.797
300.57
300.268
299.897
299.47
299.004
298.518
298.032
297.557
297.099
296.655
296.218
296.213
296.64
297.063
297.472
297.856
298.207
298.514
298.776
298.99
299.159
299.288
299.384
299.452
299.498
299.526
299.541
299.546
299.543
299.534
299.521
299.504
299.485
299.463
299.439
299.414
299.387
299.361
299.334
299.309
299.286
299.267
299.255
299.25
299.258
299.28
299.322
299.388
299.483
299.61
299.771
299.963
300.178
300.401
300.611
300.784
300.897
300.931
300.877
300.735
300.507
300.2
299.823
299.392
298.925
298.445
297.969
297.508
297.064
296.634
296.211
296.22
296.661
297.096
297.516
297.91
298.266
298.577
298.838
299.049
299.214
299.338
299.428
299.491
299.531
299.555
299.566
299.567
299.562
299.551
299.536
299.518
299.497
299.475
299.451
299.426
299.4
299.374
299.349
299.325
299.303
299.285
299.274
299.271
299.28
299.303
299.346
299.412
299.506
299.63
299.786
299.97
300.174
300.385
300.582
300.742
300.844
300.87
300.811
300.663
300.428
300.114
299.731
299.297
298.833
298.361
297.898
297.453
297.026
296.612
296.204
296.227
296.68
297.128
297.56
297.962
298.324
298.637
298.897
299.105
299.265
299.384
299.469
299.525
299.561
299.58
299.587
299.585
299.577
299.564
299.548
299.529
299.507
299.485
299.461
299.436
299.411
299.386
299.361
299.339
299.319
299.303
299.293
299.292
299.303
299.328
299.372
299.439
299.533
299.655
299.807
299.984
300.179
300.377
300.56
300.705
300.794
300.808
300.738
300.58
300.335
300.011
299.621
299.186
298.729
298.27
297.824
297.397
296.987
296.59
296.197
296.233
296.7
297.16
297.602
298.013
298.379
298.694
298.953
299.158
299.313
299.426
299.505
299.557
299.587
299.602
299.606
299.601
299.591
299.576
299.558
299.538
299.516
299.493
299.469
299.445
299.42
299.396
299.373
299.352
299.334
299.32
299.313
299.314
299.327
299.355
299.402
299.471
299.565
299.686
299.835
300.006
300.191
300.376
300.543
300.673
300.745
300.743
300.657
300.484
300.226
299.891
299.496
299.064
298.616
298.174
297.748
297.34
296.949
296.567
296.189
296.24
296.719
297.191
297.643
298.061
298.433
298.748
299.006
299.207
299.357
299.465
299.538
299.585
299.611
299.622
299.623
299.615
299.603
299.586
299.567
299.546
299.524
299.5
299.477
299.453
299.429
299.406
299.385
299.365
299.349
299.338
299.333
299.338
299.354
299.385
299.435
299.506
299.602
299.723
299.868
300.033
300.208
300.38
300.531
300.642
300.694
300.672
300.568
300.376
300.102
299.757
299.36
298.933
298.5
298.077
297.673
297.286
296.913
296.547
296.182
296.246
296.738
297.221
297.683
298.109
298.484
298.8
299.056
299.253
299.399
299.501
299.569
299.61
299.632
299.64
299.638
299.628
299.613
299.596
299.575
299.554
299.531
299.508
299.484
299.461
299.438
299.416
299.396
299.379
299.365
299.357
299.355
299.363
299.383
299.418
299.472
299.546
299.643
299.764
299.906
300.064
300.229
300.386
300.519
300.609
300.639
300.594
300.466
300.254
299.965
299.611
299.215
298.799
298.385
297.984
297.603
297.236
296.88
296.528
296.176
296.252
296.756
297.25
297.722
298.154
298.533
298.85
299.103
299.296
299.437
299.534
299.597
299.634
299.652
299.657
299.652
299.64
299.624
299.605
299.584
299.561
299.538
299.515
299.492
299.47
299.448
299.428
299.409
299.394
299.383
299.378
299.38
299.392
299.416
299.455
299.512
299.589
299.688
299.809
299.948
300.099
300.252
300.393
300.506
300.572
300.576
300.505
300.352
300.119
299.815
299.457
299.067
298.667
298.275
297.899
297.54
297.193
296.852
296.512
296.171
296.258
296.773
297.279
297.759
298.198
298.58
298.897
299.148
299.337
299.472
299.564
299.622
299.655
299.67
299.672
299.665
299.652
299.634
299.614
299.593
299.57
299.547
299.524
299.501
299.48
299.459
299.44
299.424
299.411
299.403
299.401
299.407
299.423
299.452
299.495
299.556
299.637
299.737
299.857
299.991
300.134
300.274
300.397
300.487
300.527
300.503
300.403
300.225
299.973
299.658
299.3
298.921
298.542
298.175
297.824
297.487
297.158
296.83
296.5
296.167
296.264
296.79
297.306
297.795
298.24
298.624
298.941
299.189
299.374
299.505
299.592
299.646
299.676
299.687
299.687
299.678
299.663
299.645
299.625
299.602
299.58
299.557
299.534
299.512
299.492
299.472
299.456
299.442
299.431
299.426
299.428
299.438
299.458
299.492
299.54
299.605
299.688
299.789
299.907
300.036
300.168
300.293
300.395
300.46
300.471
300.417
300.289
300.087
299.818
299.497
299.146
298.785
298.43
298.09
297.764
297.448
297.133
296.815
296.492
296.164
296.269
296.807
297.333
297.83
298.28
298.667
298.983
299.229
299.409
299.536
299.618
299.668
299.694
299.704
299.701
299.691
299.676
299.657
299.636
299.614
299.591
299.569
299.547
299.526
299.506
299.488
299.473
299.462
299.455
299.453
299.458
299.473
299.498
299.535
299.588
299.656
299.742
299.843
299.957
300.079
300.199
300.305
300.385
300.422
300.403
300.318
300.163
299.94
299.66
299.34
299.002
298.663
298.335
298.023
297.721
297.422
297.119
296.807
296.488
296.163
296.275
296.822
297.358
297.863
298.318
298.707
299.022
299.265
299.442
299.564
299.642
299.689
299.712
299.719
299.715
299.704
299.688
299.669
299.648
299.627
299.604
299.582
299.561
299.541
299.523
299.508
299.495
299.486
299.482
299.483
299.493
299.511
299.541
299.583
299.639
299.711
299.797
299.897
300.006
300.118
300.222
300.309
300.363
300.371
300.321
300.207
300.027
299.788
299.504
299.193
298.874
298.562
298.263
297.977
297.696
297.411
297.116
296.808
296.489
296.164
296.28
296.837
297.382
297.894
298.353
298.744
299.059
299.299
299.472
299.59
299.664
299.708
299.729
299.734
299.73
299.718
299.702
299.683
299.663
299.641
299.62
299.599
299.579
299.56
299.544
299.53
299.52
299.513
299.512
299.518
299.531
299.554
299.588
299.634
299.693
299.767
299.853
299.949
300.05
300.15
300.237
300.3
300.327
300.305
300.226
300.085
299.886
299.638
299.358
299.063
298.769
298.486
298.216
297.954
297.69
297.415
297.124
296.816
296.495
296.165
296.284
296.851
297.404
297.923
298.387
298.779
299.093
299.33
299.5
299.613
299.685
299.726
299.745
299.749
299.744
299.732
299.717
299.698
299.679
299.658
299.638
299.618
299.599
299.583
299.568
299.556
299.548
299.545
299.547
299.557
299.574
299.601
299.638
299.687
299.749
299.823
299.906
299.997
300.088
300.172
300.24
300.278
300.277
300.226
300.119
299.957
299.746
299.498
299.229
298.955
298.69
298.437
298.194
297.953
297.703
297.435
297.144
296.832
296.505
296.169
296.289
296.865
297.425
297.95
298.418
298.811
299.124
299.359
299.525
299.635
299.704
299.742
299.76
299.764
299.758
299.747
299.732
299.715
299.696
299.677
299.658
299.64
299.623
299.608
299.595
299.586
299.581
299.581
299.586
299.599
299.62
299.65
299.691
299.742
299.804
299.876
299.956
300.038
300.117
300.183
300.229
300.242
300.213
300.135
300.006
299.829
299.614
299.373
299.122
298.875
298.639
298.415
298.197
297.973
297.733
297.468
297.175
296.856
296.519
296.174
296.293
296.877
297.445
297.975
298.446
298.841
299.152
299.384
299.547
299.655
299.721
299.757
299.774
299.778
299.773
299.763
299.749
299.733
299.716
299.698
299.681
299.664
299.649
299.637
299.626
299.62
299.617
299.62
299.629
299.645
299.669
299.702
299.744
299.796
299.858
299.926
299.999
300.07
300.134
300.181
300.203
300.191
300.137
300.037
299.892
299.707
299.495
299.269
299.042
298.823
298.618
298.421
298.223
298.013
297.779
297.514
297.214
296.886
296.538
296.18
296.297
296.888
297.462
297.998
298.472
298.867
299.178
299.407
299.567
299.672
299.736
299.772
299.788
299.792
299.788
299.778
299.766
299.752
299.736
299.721
299.706
299.691
299.678
299.668
299.66
299.656
299.656
299.662
299.674
299.692
299.719
299.754
299.797
299.848
299.907
299.969
300.033
300.091
300.138
300.165
300.164
300.128
300.053
299.936
299.781
299.598
299.396
299.19
298.989
298.8
298.623
298.45
298.27
298.07
297.839
297.57
297.263
296.922
296.56
296.187
296.3
296.898
297.478
298.018
298.494
298.89
299.2
299.427
299.585
299.688
299.75
299.785
299.801
299.805
299.802
299.794
299.784
299.771
299.758
299.745
299.732
299.72
299.709
299.701
299.696
299.695
299.698
299.706
299.72
299.741
299.769
299.804
299.847
299.896
299.949
300.004
300.056
300.1
300.129
300.136
300.114
300.057
299.965
299.838
299.681
299.505
299.32
299.138
298.965
298.804
298.652
298.499
298.333
298.141
297.91
297.636
297.318
296.964
296.585
296.195
296.303
296.906
297.491
298.035
298.514
298.91
299.219
299.444
299.6
299.701
299.762
299.796
299.812
299.818
299.816
299.81
299.801
299.791
299.78
299.769
299.759
299.749
299.741
299.736
299.733
299.734
299.739
299.75
299.766
299.788
299.816
299.851
299.891
299.936
299.983
300.028
300.068
300.096
300.107
300.095
300.054
299.982
299.879
299.748
299.596
299.433
299.269
299.112
298.966
298.831
298.7
298.564
298.409
298.222
297.99
297.709
297.379
297.009
296.613
296.205
296.306
296.913
297.502
298.049
298.53
298.926
299.234
299.458
299.613
299.712
299.772
299.806
299.823
299.829
299.829
299.825
299.818
299.81
299.802
299.793
299.785
299.779
299.773
299.77
299.77
299.773
299.781
299.793
299.81
299.832
299.86
299.893
299.929
299.968
300.006
300.041
300.067
300.08
300.074
300.046
299.99
299.908
299.8
299.671
299.53
299.384
299.242
299.109
298.988
298.875
298.764
298.641
298.495
298.31
298.076
297.787
297.444
297.058
296.643
296.215
296.308
296.919
297.511
298.061
298.542
298.939
299.246
299.469
299.622
299.721
299.781
299.815
299.832
299.84
299.841
299.839
299.834
299.829
299.823
299.817
299.811
299.807
299.804
299.804
299.806
299.811
299.82
299.833
299.85
299.872
299.898
299.927
299.958
299.99
300.019
300.042
300.055
300.053
300.033
299.992
299.926
299.839
299.731
299.61
299.483
299.356
299.236
299.126
299.027
298.934
298.837
298.726
298.586
298.403
298.166
297.868
297.513
297.109
296.674
296.225
296.309
296.923
297.518
298.069
298.551
298.948
299.254
299.477
299.629
299.728
299.788
299.822
299.84
299.849
299.852
299.851
299.849
299.846
299.842
299.838
299.835
299.833
299.833
299.834
299.838
299.845
299.854
299.868
299.884
299.905
299.928
299.952
299.978
300.001
300.021
300.033
300.033
300.019
299.988
299.937
299.867
299.779
299.677
299.567
299.455
299.348
299.249
299.16
299.079
299.001
298.917
298.814
298.679
298.497
298.257
297.951
297.582
297.161
296.706
296.236
296.31
296.926
297.522
298.073
298.556
298.953
299.259
299.481
299.633
299.732
299.792
299.827
299.847
299.856
299.861
299.862
299.861
299.86
299.859
299.857
299.857
299.857
299.858
299.861
299.866
299.874
299.884
299.897
299.912
299.93
299.949
299.969
299.987
300.003
300.013
300.014
300.005
299.981
299.942
299.886
299.814
299.73
299.637
299.54
299.445
299.356
299.276
299.205
299.14
299.074
299
298.904
298.772
298.591
298.347
298.034
297.652
297.214
296.738
296.247
296.31
296.927
297.523
298.075
298.557
298.954
299.26
299.482
299.635
299.734
299.795
299.831
299.851
299.862
299.868
299.87
299.872
299.872
299.873
299.873
299.874
299.876
299.879
299.883
299.889
299.897
299.907
299.918
299.932
299.946
299.961
299.976
299.988
299.995
299.997
299.99
299.972
299.942
299.898
299.841
299.772
299.695
299.612
299.53
299.45
299.378
299.314
299.257
299.204
299.149
299.081
298.991
298.862
298.681
298.434
298.114
297.72
297.266
296.77
296.258
296.31
296.926
297.522
298.073
298.554
298.95
299.257
299.479
299.633
299.733
299.795
299.832
299.854
299.866
299.873
299.877
299.879
299.881
299.883
299.885
299.888
299.891
299.895
299.9
299.906
299.914
299.923
299.933
299.943
299.955
299.965
299.974
299.98
299.981
299.976
299.962
299.938
299.904
299.859
299.804
299.741
299.672
299.602
299.532
299.468
299.41
299.359
299.314
299.27
299.222
299.16
299.073
298.947
298.766
298.517
298.19
297.785
297.315
296.801
296.268
296.309
296.924
297.518
298.067
298.547
298.943
299.249
299.473
299.627
299.729
299.793
299.832
299.855
299.868
299.876
299.881
299.884
299.887
299.89
299.893
299.896
299.901
299.905
299.911
299.917
299.924
299.931
299.939
299.948
299.955
299.962
299.966
299.966
299.962
299.951
299.933
299.907
299.872
299.828
299.778
299.721
299.662
299.603
299.546
299.494
299.448
299.408
299.371
299.335
299.292
299.234
299.15
299.025
298.845
298.593
298.261
297.846
297.362
296.83
296.278
296.308
296.92
297.511
298.058
298.536
298.93
299.237
299.462
299.618
299.722
299.789
299.83
299.854
299.868
299.877
299.883
299.887
299.89
299.893
299.897
299.901
299.905
299.91
299.916
299.921
299.927
299.934
299.94
299.945
299.95
299.952
299.953
299.949
299.941
299.927
299.907
299.88
299.846
299.806
299.761
299.712
299.663
299.614
299.568
299.527
299.49
299.458
299.428
299.396
299.357
299.301
299.219
299.095
298.915
298.662
298.324
297.901
297.404
296.857
296.287
296.306
296.914
297.502
298.045
298.521
298.913
299.22
299.446
299.605
299.712
299.782
299.825
299.852
299.867
299.877
299.883
299.887
299.89
299.894
299.897
299.901
299.906
299.91
299.915
299.92
299.925
299.93
299.935
299.938
299.94
299.94
299.937
299.93
299.92
299.904
299.884
299.858
299.827
299.792
299.753
299.712
299.672
299.633
299.596
299.563
299.534
299.508
299.482
299.453
299.415
299.361
299.279
299.156
298.975
298.72
298.379
297.949
297.441
296.88
296.295
296.304
296.907
297.49
298.029
298.5
298.891
299.197
299.425
299.588
299.699
299.772
299.819
299.848
299.865
299.876
299.882
299.886
299.889
299.892
299.895
299.898
299.902
299.906
299.911
299.915
299.919
299.923
299.925
299.927
299.927
299.925
299.92
299.913
299.901
299.886
299.867
299.843
299.816
299.786
299.754
299.721
299.688
299.657
299.628
299.601
299.578
299.555
299.532
299.504
299.467
299.412
299.33
299.206
299.025
298.768
298.424
297.988
297.472
296.9
296.302
296.301
296.899
297.476
298.009
298.475
298.863
299.169
299.399
299.565
299.681
299.759
299.81
299.842
299.862
299.874
299.88
299.884
299.887
299.888
299.89
299.893
299.896
299.899
299.902
299.906
299.909
299.912
299.914
299.914
299.913
299.91
299.905
299.897
299.886
299.872
299.855
299.835
299.812
299.788
299.762
299.735
299.709
299.684
299.661
299.64
299.619
299.599
299.576
299.548
299.51
299.454
299.37
299.245
299.062
298.804
298.457
298.018
297.496
296.916
296.307
296.298
296.889
297.459
297.985
298.445
298.829
299.134
299.367
299.537
299.659
299.742
299.799
299.835
299.858
299.872
299.879
299.883
299.884
299.885
299.885
299.886
299.887
299.889
299.891
299.894
299.896
299.898
299.9
299.9
299.9
299.897
299.892
299.885
299.876
299.864
299.85
299.834
299.816
299.796
299.776
299.755
299.734
299.714
299.695
299.676
299.657
299.637
299.614
299.584
299.544
299.485
299.398
299.271
299.086
298.827
298.479
298.038
297.513
296.927
296.311
296.294
296.878
297.439
297.956
298.41
298.789
299.093
299.327
299.503
299.631
299.722
299.785
299.827
299.854
299.871
299.88
299.883
299.884
299.883
299.881
299.879
299.878
299.878
299.878
299.88
299.881
299.883
299.885
299.886
299.886
299.885
299.882
299.877
299.871
299.862
299.852
299.84
299.826
299.811
299.795
299.778
299.762
299.745
299.728
299.71
299.691
299.67
299.645
299.612
299.567
299.504
299.414
299.283
299.096
298.836
298.489
298.048
297.523
296.934
296.314
296.29
296.865
297.417
297.924
298.368
298.742
299.044
299.281
299.462
299.597
299.697
299.768
299.817
299.851
299.871
299.882
299.886
299.886
299.883
299.879
299.874
299.87
299.867
299.865
299.865
299.865
299.866
299.868
299.871
299.873
299.874
299.874
299.873
299.87
299.866
299.86
299.852
299.842
299.831
299.819
299.806
299.791
299.776
299.759
299.741
299.72
299.695
299.666
299.629
299.579
299.512
299.417
299.282
299.093
298.832
298.487
298.05
297.527
296.939
296.316
296.286
296.852
297.392
297.887
298.321
298.688
298.988
299.227
299.414
299.558
299.667
299.748
299.807
299.847
299.873
299.888
299.894
299.893
299.889
299.882
299.873
299.865
299.858
299.852
299.849
299.847
299.848
299.85
299.853
299.858
299.863
299.868
299.872
299.874
299.875
299.874
299.871
299.865
299.858
299.848
299.836
299.822
299.806
299.787
299.766
299.741
299.712
299.677
299.634
299.579
299.506
299.407
299.269
299.077
298.818
298.476
298.045
297.528
296.943
296.318
296.283
296.84
297.367
297.848
298.27
298.629
298.926
299.167
299.361
299.514
299.635
299.727
299.796
299.846
299.879
299.898
299.907
299.907
299.901
299.891
299.878
299.865
299.852
299.842
299.833
299.828
299.826
299.828
299.833
299.841
299.851
299.862
299.872
299.882
299.89
299.895
299.896
299.895
299.89
299.881
299.869
299.853
299.834
299.81
299.784
299.753
299.718
299.677
299.628
299.567
299.49
299.386
299.246
299.054
298.798
298.462
298.04
297.532
296.951
296.323
296.284
296.833
297.346
297.811
298.22
298.57
298.863
299.107
299.307
299.47
299.603
299.708
299.789
299.849
299.89
299.916
299.928
299.929
299.921
299.908
299.89
299.871
299.852
299.834
299.819
299.808
299.802
299.802
299.807
299.819
299.835
299.854
299.874
299.893
299.91
299.922
299.93
299.932
299.928
299.919
299.904
299.884
299.858
299.828
299.794
299.755
299.713
299.665
299.611
299.546
299.466
299.361
299.221
299.033
298.782
298.456
298.046
297.55
296.975
296.338
296.3
296.842
297.338
297.786
298.18
298.52
298.809
299.054
299.259
299.433
299.577
299.696
299.79
299.861
299.911
299.943
299.958
299.96
299.951
299.934
299.911
299.884
299.856
299.829
299.805
299.786
299.773
299.769
299.775
299.79
299.814
299.843
299.876
299.908
299.936
299.958
299.972
299.977
299.974
299.962
299.942
299.915
299.881
299.841
299.797
299.75
299.699
299.645
299.587
299.521
299.442
299.342
299.208
299.029
298.789
298.476
298.081
297.601
297.036
296.382
)
;

boundaryField
{
    bottomwall
    {
        type            ConvRadQin;
        hinf            60{50};
        Tinf            60{305};
        Kappa           60{2.2989};
        qr              qr;
        qin             qin;
        qem             qem;
        UnitVector      (1 1 1);
        value           nonuniform List<scalar> 
60
(
298.636
299.889
300.591
301.02
301.299
301.489
301.624
301.726
301.806
301.873
301.931
301.986
302.037
302.087
302.136
302.184
302.233
302.281
302.331
302.381
302.431
302.481
302.531
302.581
302.629
302.676
302.724
302.772
302.822
302.872
302.918
302.955
302.979
302.994
303.019
303.083
303.233
303.513
303.963
304.599
305.401