/*--------------------------------*- C++ -*----------------------------------*\
| =========                 |                                                 |
| \\      /  F ield         | OpenFOAM: The Open Source CFD Toolbox           |
|  \\    /   O peration     | Version:  2406                                  |
|   \\  /    A nd           | Website:  www.openfoam.com                      |
|    \\/     M anipulation  |                                                 |
\*---------------------------------------------------------------------------*/
FoamFile
{
    version     2.0;
    format      ascii;
    arch        "LSB;label=32;scalar=64";
    class       volScalarField;
    location    "5000";
    object      TotalNu;
}
// * * * * * * * * * * * * * * * * * * * * * * * * * * * * * * * * * * * * * //

dimensions      [0 0 0 0 0 0 0];

internalField   uniform 0;

boundaryField
{
    bottomwall
    {
        type            calculated;
        value           nonuniform List<scalar> 
60
(
15.4401
12.4002
10.6961
9.6556
8.97994
8.51924
8.19039
7.94413
7.74988
7.58789
7.44522
7.31381
7.18896
7.0681
6.94955
6.83202
6.71438
6.59583
6.47597
6.3548
6.23271
6.11045
5.98912
5.86979
5.75304
5.63823
5.52326
5.40552
5.28412
5.16283
5.05136
4.96263
4.90434
4.86613
4.80704
4.64991
4.28832
3.60747
2.51497
0.973683
-0.972261
-3.18584
-5.44682
-7.48788
-9.05423
-9.97183
-10.1825
-9.73003
-8.71648
-7.25908
-5.46652
-3.43495
-1.25426
0.988993
3.21686
5.37623
7.46841
9.59244
12.0423
15.5339
)
;
    }
    topwall
    {
        type            calculated;
        value           nonuniform List<scalar> 
60
(
-1.54369e-06
6.22795e-06
1.33412e-05
1.90268e-05
2.38494e-05
2.7299e-05
2.92045e-05
3.06994e-05
3.22552e-05
3.4437e-05
3.76243e-05
4.18825e-05
4.74377e-05
5.3322e-05
5.87217e-05
6.25402e-05
6.51153e-05
6.55352e-05
6.4226e-05
6.24061e-05
5.97022e-05
5.73444e-05
5.59931e-05
5.51894e-05
5.50959e-05
5.61065e-05
5.69826e-05
5.75561e-05
5.81784e-05
5.89815e-05
5.97355e-05
6.22172e-05
6.57648e-05
7.12409e-05
7.71732e-05
8.28407e-05
8.67215e-05
8.76923e-05
8.5737e-05
8.1863e-05
7.60014e-05
7.06476e-05
6.50739e-05
6.07206e-05
5.71908e-05
5.45285e-05
5.23119e-05
5.12818e-05
5.0816e-05
5.15281e-05
5.3448e-05
5.75283e-05
6.27288e-05
6.85886e-05
7.31431e-05
7.48678e-05
6.8826e-05
5.64862e-05
3.98572e-05
1.87506e-05
)
;
    }
    coldwall
    {
        type            calculated;
        value           nonuniform List<scalar> 
48
(
-20.7804
-11.2227
-7.24223
-5.18102
-4.00736
-3.37065
-3.06417
-2.89234
-2.71519
-2.51063
-2.34715
-2.29235
-2.35128
-2.47663
-2.61532
-2.74058
-2.85363
-2.96995
-3.10611
-3.27204
-3.46681
-3.67716
-3.8801
-4.04964
-4.16565
-4.22061
-4.22175
-4.18779
-4.14249
-4.1076
-4.09781
-4.1189
-4.16888
-4.24104
-4.32728
-4.42079
-4.51719
-4.61445
-4.71191
-4.80908
-4.90483
-4.99701
-4.84218
-4.70109
-4.56083
-4.42785
-4.33119
-4.37924
)
;
    }
    radinlet
    {
        type            calculated;
        value           nonuniform List<scalar> 
12
(
21.7554
21.6808
21.6217
21.5825
21.5653
21.5681
21.5847
21.6093
21.6416
21.6889
21.7619
21.8661
)
;
    }
    hotwall
    {
        type            calculated;
        value           nonuniform List<scalar> 
60
(
-20.2975
-11.0445
-7.58601
-5.70591
-4.80003
-4.40594
-4.26641
-4.19007
-4.11258
-4.04323
-4.01619
-4.05324
-4.14812
-4.27097
-4.38559
-4.4657
-4.50111
-4.49438
-4.45413
-4.38983
-4.3094
-4.21862
-4.12124
-4.01935
-3.9139
-3.80531
-3.69402
-3.58124
-3.46953
-3.36317
-3.26781
-3.18948
-3.13321
-3.10177
-3.09524
-3.11143
-3.14698
-3.19856
-3.26378
-3.34149
-3.43149
-3.53403
-3.64893
-3.77483
-3.90858
-4.04555
-4.18156
-4.31542
-4.44974
-4.58752
-4.72568
-4.85182
-4.94949
-5.00924
-5.03466
-5.03753
-5.03235
-5.04607
-5.16157
-5.6241
)
;
    }
    frontAndback
    {
        type            empty;
    }
}


// ************************************************************************* //
