/*--------------------------------*- C++ -*----------------------------------*\
| =========                 |                                                 |
| \\      /  F ield         | OpenFOAM: The Open Source CFD Toolbox           |
|  \\    /   O peration     | Version:  2406                                  |
|   \\  /    A nd           | Website:  www.openfoam.com                      |
|    \\/     M anipulation  |                                                 |
\*---------------------------------------------------------------------------*/
FoamFile
{
    version     2.0;
    format      ascii;
    arch        "LSB;label=32;scalar=64";
    class       volScalarField;
    location    "5000";
    object      totalWallHeatFlux;
}
// * * * * * * * * * * * * * * * * * * * * * * * * * * * * * * * * * * * * * //

dimensions      [1 0 -3 0 0 0 0];

internalField   uniform 0;

boundaryField
{
    bottomwall
    {
        type            calculated;
        value           nonuniform List<scalar> 
60
(
318.193
255.547
220.428
198.985
185.06
175.566
168.789
163.714
159.711
156.373
153.433
150.724
148.152
145.661
143.218
140.796
138.371
135.928
133.458
130.961
128.445
125.925
123.425
120.966
118.56
116.194
113.824
111.398
108.896
106.397
104.099
102.271
101.07
100.282
99.0644
95.8262
88.3745
74.3434
51.829
20.0659
-20.0365
-65.6545
-112.249
-154.312
-186.591
-205.501
-209.844
-200.518
-179.631
-149.597
-112.655
-70.7882
-25.8481
20.3814
66.2938
110.795
153.91
197.683
248.17
320.125
)
;
    }
    topwall
    {
        type            calculated;
        value           nonuniform List<scalar> 
60
(
-3.18127e-05
0.000128347
0.000274939
0.000392107
0.000491494
0.000562583
0.000601852
0.000632659
0.000664722
0.000709684
0.000775369
0.000863124
0.000977605
0.00109887
0.00121015
0.00128884
0.00134191
0.00135056
0.00132358
0.00128608
0.00123036
0.00118176
0.00115392
0.00113736
0.00113543
0.00115625
0.00117431
0.00118613
0.00119895
0.0012155
0.00123104
0.00128219
0.00135529
0.00146815
0.0015904
0.0017072
0.00178717
0.00180718
0.00176688
0.00168705
0.00156625
0.00145592
0.00134105
0.00125134
0.0011786
0.00112373
0.00107805
0.00105683
0.00104723
0.0010619
0.00110147
0.00118555
0.00129273
0.00141349
0.00150735
0.00154289
0.00141838
0.00116408
0.000821386
0.000386417
)
;
    }
    coldwall
    {
        type            calculated;
        value           nonuniform List<scalar> 
48
(
-428.247
-231.28
-149.249
-106.772
-82.5844
-69.463
-63.147
-59.6059
-55.9552
-51.7397
-48.3705
-47.2413
-48.4557
-51.0388
-53.8971
-56.4784
-58.8082
-61.2053
-64.0114
-67.4309
-71.4447
-75.7797
-79.9618
-83.4559
-85.8465
-86.9793
-87.0026
-86.3028
-85.3693
-84.6503
-84.4485
-84.8831
-85.9132
-87.4001
-89.1776
-91.1045
-93.0912
-95.0956
-97.1039
-99.1065
-101.08
-102.979
-99.7886
-96.881
-93.9904
-91.2499
-89.2581
-90.2483
)
;
    }
    radinlet
    {
        type            calculated;
        value           nonuniform List<scalar> 
12
(
448.34
446.802
445.584
444.776
444.422
444.479
444.823
445.329
445.994
446.969
448.474
450.62
)
;
    }
    hotwall
    {
        type            calculated;
        value           nonuniform List<scalar> 
60
(
-418.295
-227.607
-156.334
-117.588
-98.92
-90.7985
-87.9231
-86.3499
-84.7528
-83.3238
-82.7664
-83.53
-85.4852
-88.0169
-90.3791
-92.0301
-92.7598
-92.6211
-91.7916
-90.4664
-88.8089
-86.9383
-84.9314
-82.8315
-80.6584
-78.4205
-76.127
-73.8029
-71.5008
-69.3089
-67.3436
-65.7295
-64.5698
-63.9218
-63.7872
-64.121
-64.8536
-65.9165
-67.2606
-68.862
-70.7169
-72.83
-75.1979
-77.7924
-80.5487
-83.3715
-86.1744
-88.933
-91.7011
-94.5405
-97.3879
-99.9872
-102
-103.231
-103.755
-103.814
-103.708
-103.991
-106.371
-115.903
)
;
    }
    frontAndback
    {
        type            empty;
    }
}


// ************************************************************************* //
