/*--------------------------------*- C++ -*----------------------------------*\
| =========                 |                                                 |
| \\      /  F ield         | OpenFOAM: The Open Source CFD Toolbox           |
|  \\    /   O peration     | Version:  2406                                  |
|   \\  /    A nd           | Website:  www.openfoam.com                      |
|    \\/     M anipulation  |                                                 |
\*---------------------------------------------------------------------------*/
FoamFile
{
    version     2.0;
    format      ascii;
    arch        "LSB;label=32;scalar=64";
    class       volVectorField;
    location    "5000";
    object      U;
}
// * * * * * * * * * * * * * * * * * * * * * * * * * * * * * * * * * * * * * //

dimensions      [0 1 -1 0 0 0 0];

internalField   nonuniform List<vector> 
3600
(
(0.000694559 -0.000682401 0)
(0.00239756 -0.000636955 0)
(0.00421322 -0.000433392 0)
(0.00581305 -0.000341493 0)
(0.00743763 -0.000345177 0)
(0.00918662 -0.000394307 0)
(0.0110973 -0.000452222 0)
(0.0131508 -0.000497555 0)
(0.0152931 -0.000520104 0)
(0.0174533 -0.000516683 0)
(0.0195557 -0.000488389 0)
(0.0215293 -0.000438859 0)
(0.0233131 -0.000373074 0)
(0.0248597 -0.000296469 0)
(0.0261362 -0.00021428 0)
(0.0271241 -0.000131102 0)
(0.0278176 -5.06581e-05 0)
(0.0282219 2.42679e-05 0)
(0.0283505 9.1788e-05 0)
(0.0282233 0.000150728 0)
(0.0278647 0.00020053 0)
(0.0273015 0.000241285 0)
(0.0265613 0.00027333 0)
(0.0256721 0.000297181 0)
(0.024661 0.000313503 0)
(0.0235542 0.000323116 0)
(0.0223759 0.000326973 0)
(0.0211485 0.000326004 0)
(0.0198925 0.000320709 0)
(0.0186284 0.000310509 0)
(0.0173787 0.000293102 0)
(0.0161723 0.000264258 0)
(0.015047 0.000218587 0)
(0.0140497 0.000151647 0)
(0.0132299 6.3304e-05 0)
(0.0126253 -3.82515e-05 0)
(0.0122364 -0.000133111 0)
(0.0119962 -0.0001888 0)
(0.0117421 -0.000164526 0)
(0.0112054 -2.26813e-05 0)
(0.0100414 0.000253232 0)
(0.00790958 0.000641044 0)
(0.00459749 0.00107427 0)
(0.00012785 0.00145844 0)
(-0.00519578 0.00170285 0)
(-0.0108617 0.00176706 0)
(-0.0163064 0.00166045 0)
(-0.0210411 0.0014192 0)
(-0.0247114 0.00108478 0)
(-0.0270999 0.000692467 0)
(-0.0281084 0.000271396 0)
(-0.0277357 -0.000149907 0)
(-0.0260788 -0.000540065 0)
(-0.0233218 -0.000866609 0)
(-0.0197301 -0.00110215 0)
(-0.0156245 -0.00123253 0)
(-0.0113451 -0.00126585 0)
(-0.00721947 -0.00123653 0)
(-0.00338153 -0.00116211 0)
(-0.000759272 -0.000791216 0)
(0.000680899 -0.00243618 0)
(0.00323459 -0.00321922 0)
(0.00707056 -0.00313541 0)
(0.0111659 -0.00310262 0)
(0.0155614 -0.00324467 0)
(0.0202575 -0.00349035 0)
(0.0252427 -0.00374522 0)
(0.0304576 -0.00393651 0)
(0.0357993 -0.00402013 0)
(0.0411383 -0.00397643 0)
(0.046336 -0.00380421 0)
(0.0512579 -0.00351513 0)
(0.0557842 -0.00312899 0)
(0.059816 -0.00266974 0)
(0.0632786 -0.00216241 0)
(0.0661219 -0.00163074 0)
(0.0683194 -0.00109579 0)
(0.0698658 -0.000575 0)
(0.0707736 -8.20291e-05 0)
(0.0710699 0.000373006 0)
(0.070793 0.000783467 0)
(0.0699897 0.00114562 0)
(0.0687119 0.00145794 0)
(0.0670148 0.00172042 0)
(0.0649544 0.00193429 0)
(0.0625869 0.00210173 0)
(0.0599675 0.00222555 0)
(0.0571499 0.00230856 0)
(0.0541867 0.00235225 0)
(0.0511304 0.00235509 0)
(0.0480352 0.00231083 0)
(0.0449596 0.00220837 0)
(0.0419674 0.00203472 0)
(0.0391252 0.00178256 0)
(0.0364923 0.00146247 0)
(0.0340996 0.00111781 0)
(0.0319157 0.000837757 0)
(0.0298031 0.000760565 0)
(0.0274784 0.00105613 0)
(0.0244974 0.00187806 0)
(0.0203014 0.00328674 0)
(0.0143459 0.0051695 0)
(0.00630848 0.00720954 0)
(-0.00371614 0.00895461 0)
(-0.0150995 0.00996193 0)
(-0.0268258 0.0100083 0)
(-0.0377829 0.00911758 0)
(-0.0470097 0.00747709 0)
(-0.0538265 0.00533206 0)
(-0.0578549 0.00291559 0)
(-0.0589816 0.000427596 0)
(-0.0573056 -0.00195709 0)
(-0.0531148 -0.00407764 0)
(-0.0468336 -0.00578943 0)
(-0.0390069 -0.00697854 0)
(-0.030263 -0.0075811 0)
(-0.021285 -0.00759612 0)
(-0.0127949 -0.00706347 0)
(-0.00536856 -0.0059123 0)
(-0.000972162 -0.00333842 0)
(0.000384812 -0.00422953 0)
(0.00279351 -0.00699561 0)
(0.00733305 -0.00794892 0)
(0.012815 -0.00852444 0)
(0.0190393 -0.00912214 0)
(0.02582 -0.00975486 0)
(0.0330259 -0.0103207 0)
(0.0405218 -0.0107134 0)
(0.0481536 -0.010858 0)
(0.0557551 -0.0107178 0)
(0.0631581 -0.0102892 0)
(0.0702033 -0.00959435 0)
(0.0767484 -0.00867206 0)
(0.0826738 -0.00757101 0)
(0.0878859 -0.00634333 0)
(0.0923171 -0.00504003 0)
(0.0959251 -0.0037078 0)
(0.0986908 -0.00238702 0)
(0.100616 -0.00111094 0)
(0.101718 9.44275e-05 0)
(0.10203 0.00120936 0)
(0.101597 0.00222056 0)
(0.10047 0.00312033 0)
(0.0987104 0.003905 0)
(0.0963798 0.00457393 0)
(0.0935441 0.00512883 0)
(0.0902704 0.00557288 0)
(0.0866263 0.0059095 0)
(0.0826799 0.00614059 0)
(0.0784994 0.00626415 0)
(0.0741534 0.00627241 0)
(0.0697105 0.00615222 0)
(0.0652382 0.00589036 0)
(0.0607984 0.00548638 0)
(0.056439 0.00497367 0)
(0.0521754 0.00444644 0)
(0.0479614 0.00408483 0)
(0.0436492 0.00416294 0)
(0.0389479 0.00501738 0)
(0.0334046 0.00695321 0)
(0.0264439 0.0100853 0)
(0.017503 0.0141647 0)
(0.00626781 0.0184998 0)
(-0.00709612 0.0220903 0)
(-0.0217807 0.0239526 0)
(-0.0365229 0.0235888 0)
(-0.0499542 0.0210589 0)
(-0.0609254 0.0168157 0)
(-0.0686701 0.0114623 0)
(-0.0728224 0.00557947 0)
(-0.0733516 -0.000339449 0)
(-0.0704843 -0.00588293 0)
(-0.0646323 -0.0107075 0)
(-0.0563441 -0.0145289 0)
(-0.0462903 -0.0171226 0)
(-0.0352438 -0.0183409 0)
(-0.0240769 -0.0181158 0)
(-0.013775 -0.0163949 0)
(-0.00522179 -0.0129089 0)
(-0.000717658 -0.00646041 0)
(0.000166319 -0.00548623 0)
(0.00221698 -0.0105471 0)
(0.00676712 -0.0131716 0)
(0.0128016 -0.0149111 0)
(0.0200073 -0.0163417 0)
(0.0280525 -0.0175776 0)
(0.0366836 -0.0185562 0)
(0.0456759 -0.0191794 0)
(0.0548176 -0.0193719 0)
(0.0639074 -0.019099 0)
(0.072758 -0.0183661 0)
(0.081201 -0.0172113 0)
(0.0890908 -0.0156949 0)
(0.0963071 -0.0138899 0)
(0.102755 -0.011874 0)
(0.108366 -0.00972314 0)
(0.113093 -0.0075075 0)
(0.11691 -0.00528855 0)
(0.119811 -0.00311797 0)
(0.121802 -0.00103737 0)
(0.122905 0.000920817 0)
(0.123151 0.00273212 0)
(0.12258 0.00438 0)
(0.121241 0.00585448 0)
(0.119188 0.00715035 0)
(0.116478 0.008266 0)
(0.113174 0.00920222 0)
(0.109339 0.00996083 0)
(0.105041 0.0105427 0)
(0.100347 0.0109457 0)
(0.0953234 0.0111632 0)
(0.0900362 0.011185 0)
(0.0845443 0.0110044 0)
(0.0788973 0.0106334 0)
(0.073128 0.0101295 0)
(0.0672402 0.00963096 0)
(0.0611887 0.00939214 0)
(0.0548483 0.00979923 0)
(0.0479792 0.011332 0)
(0.0402041 0.0144337 0)
(0.0310357 0.0192755 0)
(0.0199921 0.0254824 0)
(0.00682283 0.0319881 0)
(-0.00825343 0.0372172 0)
(-0.0243664 0.0396145 0)
(-0.0401898 0.0384048 0)
(-0.0543084 0.0337258 0)
(-0.0655724 0.0263649 0)
(-0.0732659 0.0173521 0)
(-0.0771068 0.0076602 0)
(-0.0771533 -0.00191387 0)
(-0.0737051 -0.0107477 0)
(-0.0672058 -0.0183509 0)
(-0.0582202 -0.0243148 0)
(-0.0474368 -0.0282973 0)
(-0.0356729 -0.0300315 0)
(-0.0238912 -0.0293282 0)
(-0.0132198 -0.0260032 0)
(-0.00467579 -0.0196454 0)
(-0.000499496 -0.00902021 0)
(6.15288e-05 -0.00643601 0)
(0.00183789 -0.0138227 0)
(0.00620114 -0.0184595 0)
(0.0123674 -0.0217639 0)
(0.0200102 -0.0243553 0)
(0.0287226 -0.0264139 0)
(0.0381636 -0.0279272 0)
(0.048033 -0.0288302 0)
(0.058065 -0.029072 0)
(0.0680249 -0.0286407 0)
(0.0777098 -0.0275656 0)
(0.0869478 -0.0259107 0)
(0.0955987 -0.023763 0)
(0.103552 -0.0212224 0)
(0.110723 -0.0183915 0)
(0.117054 -0.0153696 0)
(0.122504 -0.012247 0)
(0.127053 -0.00910286 0)
(0.130691 -0.00600387 0)
(0.133422 -0.00300432 0)
(0.135259 -0.000146754 0)
(0.13622 0.00253553 0)
(0.136332 0.00501775 0)
(0.135625 0.00728327 0)
(0.134137 0.00932146 0)
(0.131908 0.0111261 0)
(0.128984 0.0126942 0)
(0.125413 0.0140243 0)
(0.121246 0.0151151 0)
(0.116537 0.0159639 0)
(0.111339 0.0165656 0)
(0.105703 0.016915 0)
(0.0996723 0.0170141 0)
(0.0932816 0.0168889 0)
(0.0865495 0.0166181 0)
(0.0794733 0.0163735 0)
(0.0720174 0.0164634 0)
(0.0640936 0.0173559 0)
(0.0555353 0.0196398 0)
(0.0460763 0.0238697 0)
(0.0353634 0.0302655 0)
(0.0230438 0.0383428 0)
(0.00895354 0.0466964 0)
(-0.0066643 0.0532203 0)
(-0.0229869 0.0558243 0)
(-0.0387683 0.0534704 0)
(-0.0526839 0.0463961 0)
(-0.0636819 0.0357451 0)
(-0.0711398 0.022984 0)
(-0.0748483 0.00946839 0)
(-0.0749036 -0.00373033 0)
(-0.0715992 -0.0158144 0)
(-0.0653355 -0.0261726 0)
(-0.0566187 -0.0342771 0)
(-0.0460877 -0.03965 0)
(-0.0345406 -0.0418693 0)
(-0.0229598 -0.0405844 0)
(-0.012529 -0.0354727 0)
(-0.00430473 -0.0260611 0)
(-0.000404286 -0.0112798 0)
(4.15571e-05 -0.00724297 0)
(0.00170626 -0.016882 0)
(0.00594082 -0.0236579 0)
(0.0121174 -0.0287447 0)
(0.0199361 -0.0327062 0)
(0.0289635 -0.0357415 0)
(0.0388074 -0.0378777 0)
(0.0491157 -0.0390922 0)
(0.0595809 -0.0393753 0)
(0.0699425 -0.0387551 0)
(0.079986 -0.0372998 0)
(0.0895409 -0.0351102 0)
(0.0984765 -0.0323077 0)
(0.106698 -0.0290223 0)
(0.114138 -0.0253829 0)
(0.120756 -0.02151 0)
(0.126528 -0.0175111 0)
(0.131442 -0.0134788 0)
(0.135499 -0.00949013 0)
(0.138704 -0.00560711 0)
(0.141067 -0.00187845 0)
(0.142602 0.00165846 0)
(0.143323 0.00497467 0)
(0.143247 0.00804906 0)
(0.142394 0.0108671 0)
(0.140784 0.0134188 0)
(0.138442 0.0156975 0)
(0.135395 0.0176985 0)
(0.131671 0.0194178 0)
(0.127301 0.0208515 0)
(0.122318 0.0219958 0)
(0.116749 0.0228497 0)
(0.110619 0.023423 0)
(0.103944 0.0237531 0)
(0.096729 0.023934 0)
(0.0889669 0.0241585 0)
(0.0806335 0.0247663 0)
(0.0716791 0.0262741 0)
(0.0620125 0.0293404 0)
(0.0514846 0.0345964 0)
(0.0398889 0.0422998 0)
(0.0270148 0.0518854 0)
(0.0127836 0.0616779 0)
(-0.00256918 0.0691293 0)
(-0.0183549 0.0716959 0)
(-0.0335036 0.0680905 0)
(-0.0468596 0.0586463 0)
(-0.0575015 0.0448408 0)
(-0.0648886 0.0285436 0)
(-0.0688386 0.0114487 0)
(-0.0694232 -0.00514713 0)
(-0.0668687 -0.0203123 0)
(-0.0614833 -0.0333382 0)
(-0.0536712 -0.0435783 0)
(-0.0439832 -0.0503988 0)
(-0.0331568 -0.053188 0)
(-0.0221471 -0.0514011 0)
(-0.0121425 -0.0445666 0)
(-0.00420616 -0.0321871 0)
(-0.000409346 -0.013416 0)
(7.14586e-05 -0.00805252 0)
(0.0017691 -0.0198874 0)
(0.00601198 -0.0288254 0)
(0.0122256 -0.0357792 0)
(0.020137 -0.041207 0)
(0.0293049 -0.0452916 0)
(0.0393105 -0.0480852 0)
(0.0497699 -0.0496086 0)
(0.0603495 -0.0499031 0)
(0.0707731 -0.0490493 0)
(0.0808225 -0.0471666 0)
(0.0903337 -0.0444031 0)
(0.0991902 -0.040921 0)
(0.107316 -0.0368849 0)
(0.114666 -0.0324507 0)
(0.121219 -0.0277594 0)
(0.126971 -0.0229332 0)
(0.131925 -0.0180744 0)
(0.136095 -0.0132657 0)
(0.139492 -0.00857264 0)
(0.14213 -0.00404534 0)
(0.144023 0.000278834 0)
(0.145179 0.00437158 0)
(0.145607 0.00821146 0)
(0.145313 0.0117833 0)
(0.144302 0.015076 0)
(0.142579 0.0180814 0)
(0.14015 0.020793 0)
(0.13702 0.0232051 0)
(0.133195 0.0253131 0)
(0.128682 0.0271136 0)
(0.123486 0.0286088 0)
(0.117607 0.0298137 0)
(0.111043 0.030773 0)
(0.103785 0.0315887 0)
(0.0958193 0.0324622 0)
(0.0871311 0.0337441 0)
(0.0777026 0.0359691 0)
(0.0675085 0.0398261 0)
(0.0565045 0.0459858 0)
(0.0446207 0.0547294 0)
(0.0317814 0.0654427 0)
(0.0179819 0.0762671 0)
(0.00342097 0.0843313 0)
(-0.0113938 0.0867428 0)
(-0.0256261 0.0819722 0)
(-0.0383263 0.0704089 0)
(-0.0487002 0.0537999 0)
(-0.0562532 0.03435 0)
(-0.0607794 0.0140317 0)
(-0.0622755 -0.00567925 0)
(-0.0608654 -0.0237441 0)
(-0.0567446 -0.039368 0)
(-0.0501993 -0.0517817 0)
(-0.0416765 -0.060176 0)
(-0.0318292 -0.0637217 0)
(-0.0215553 -0.0616484 0)
(-0.0120197 -0.0533124 0)
(-0.00428597 -0.0381786 0)
(-0.00046681 -0.0155886 0)
(0.000124083 -0.00895452 0)
(0.00194985 -0.0229809 0)
(0.00632359 -0.0340653 0)
(0.0126405 -0.0428883 0)
(0.0206378 -0.0497908 0)
(0.0298666 -0.0549217 0)
(0.0398928 -0.0583488 0)
(0.0503152 -0.0601362 0)
(0.0607875 -0.0603828 0)
(0.0710297 -0.0592316 0)
(0.0808288 -0.056863 0)
(0.0900341 -0.05348 0)
(0.0985482 -0.0492916 0)
(0.106317 -0.0444993 0)
(0.113318 -0.039287 0)
(0.119553 -0.0338149 0)
(0.125034 -0.0282172 0)
(0.129784 -0.0226026 0)
(0.133826 -0.017056 0)
(0.137183 -0.0116422 0)
(0.139875 -0.00640887 0)
(0.141917 -0.00139003 0)
(0.143318 0.00339043 0)
(0.144082 0.0079152 0)
(0.144208 0.012172 0)
(0.143691 0.0161523 0)
(0.142522 0.0198492 0)
(0.14069 0.0232573 0)
(0.138181 0.0263713 0)
(0.13498 0.0291869 0)
(0.131071 0.0317022 0)
(0.126435 0.0339209 0)
(0.121051 0.0358613 0)
(0.114897 0.0375708 0)
(0.10795 0.039153 0)
(0.100189 0.0408072 0)
(0.0916024 0.0428778 0)
(0.0821956 0.0458917 0)
(0.0719924 0.0505341 0)
(0.061032 0.0574806 0)
(0.0493574 0.06702 0)
(0.0370071 0.078519 0)
(0.0240354 0.0900256 0)
(0.0105875 0.0984729 0)
(-0.00301729 0.100723 0)
(-0.016206 0.0950209 0)
(-0.0282429 0.081736 0)
(-0.0384443 0.0627939 0)
(-0.046327 0.0406513 0)
(-0.0516239 0.0174995 0)
(-0.0542286 -0.00504051 0)
(-0.0541498 -0.0258344 0)
(-0.0514712 -0.0440038 0)
(-0.046364 -0.0586516 0)
(-0.0391683 -0.0687811 0)
(-0.0304414 -0.0733249 0)
(-0.0210038 -0.0712593 0)
(-0.0119768 -0.0617314 0)
(-0.00442087 -0.0441182 0)
(-0.000538063 -0.0178645 0)
(0.000181805 -0.00999144 0)
(0.00218136 -0.0262527 0)
(0.00676019 -0.0394604 0)
(0.0132301 -0.0501106 0)
(0.0213185 -0.0584372 0)
(0.0305614 -0.0645528 0)
(0.0405132 -0.0685393 0)
(0.050764 -0.0705077 0)
(0.0609666 -0.0706209 0)
(0.070848 -0.0690929 0)
(0.0802098 -0.0661725 0)
(0.0889221 -0.0621233 0)
(0.0969112 -0.0572043 0)
(0.104147 -0.051655 0)
(0.110631 -0.0456859 0)
(0.116384 -0.0394744 0)
(0.121437 -0.0331638 0)
(0.125826 -0.0268658 0)
(0.129586 -0.0206647 0)
(0.132747 -0.0146213 0)
(0.135335 -0.00877791 0)
(0.137367 -0.00316256 0)
(0.138855 0.00220748 0)
(0.139803 0.00732199 0)
(0.140205 0.0121747 0)
(0.140053 0.0167623 0)
(0.13933 0.0210827 0)
(0.138014 0.0251342 0)
(0.136078 0.0289147 0)
(0.133492 0.0324224 0)
(0.130223 0.0356577 0)
(0.126233 0.0386266 0)
(0.121484 0.0413486 0)
(0.115936 0.0438712 0)
(0.109553 0.0462942 0)
(0.102304 0.0488068 0)
(0.0941777 0.0517347 0)
(0.0851915 0.0555774 0)
(0.0754009 0.0609892 0)
(0.0649035 0.0686215 0)
(0.0538256 0.0787551 0)
(0.0422929 0.0907617 0)
(0.030404 0.102676 0)
(0.0182478 0.111356 0)
(0.00597198 0.113515 0)
(-0.00611093 0.107197 0)
(-0.0174743 0.0926639 0)
(-0.0275315 0.0719101 0)
(-0.0357886 0.0475568 0)
(-0.0418999 0.0219612 0)
(-0.0456472 -0.00313187 0)
(-0.0469263 -0.0264923 0)
(-0.0457218 -0.0471531 0)
(-0.0421015 -0.0640884 0)
(-0.0363048 -0.0761091 0)
(-0.0287883 -0.0818996 0)
(-0.0202808 -0.0801601 0)
(-0.0118417 -0.069787 0)
(-0.00451732 -0.0499996 0)
(-0.000600243 -0.0202415 0)
(0.000235142 -0.0111721 0)
(0.00241728 -0.0297406 0)
(0.00722655 -0.0450513 0)
(0.0138646 -0.0574637 0)
(0.0220324 -0.0671255 0)
(0.0312425 -0.0741222 0)
(0.0410378 -0.0785566 0)
(0.0510068 -0.0805937 0)
(0.0608104 -0.0804696 0)
(0.0701927 -0.0784766 0)
(0.0789792 -0.074938 0)
(0.0870669 -0.0701815 0)
(0.0944099 -0.0645164 0)
(0.101004 -0.0582187 0)
(0.106873 -0.051523 0)
(0.112056 -0.04462 0)
(0.116599 -0.0376585 0)
(0.120547 -0.0307504 0)
(0.123943 -0.023976 0)
(0.126823 -0.0173901 0)
(0.129216 -0.0110278 0)
(0.131141 -0.00490921 0)
(0.132611 0.000956175 0)
(0.13363 0.00656613 0)
(0.134195 0.0119222 0)
(0.134292 0.0170285 0)
(0.133905 0.0218896 0)
(0.133005 0.0265099 0)
(0.131561 0.030893 0)
(0.129533 0.0350419 0)
(0.126878 0.038961 0)
(0.123546 0.0426591 0)
(0.119486 0.0461574 0)
(0.114647 0.0495016 0)
(0.10898 0.0527849 0)
(0.102447 0.0561815 0)
(0.0950316 0.05999 0)
(0.0867548 0.0646697 0)
(0.0776882 0.0708246 0)
(0.0679637 0.0790596 0)
(0.0577607 0.0896339 0)
(0.0472643 0.101939 0)
(0.0366036 0.11406 0)
(0.0258205 0.122883 0)
(0.0149173 0.125058 0)
(0.00398536 0.118467 0)
(-0.00666175 0.103172 0)
(-0.016524 0.0811327 0)
(-0.0250908 0.0550445 0)
(-0.0319381 0.0273843 0)
(-0.0367429 9.65613e-06 0)
(-0.0392989 -0.0257498 0)
(-0.0395057 -0.0488274 0)
(-0.0373452 -0.0680709 0)
(-0.0329643 -0.0821032 0)
(-0.0267202 -0.0893601 0)
(-0.0192399 -0.0882518 0)
(-0.0115022 -0.077385 0)
(-0.00452066 -0.0557474 0)
(-0.00064278 -0.022675 0)
(0.000280416 -0.012486 0)
(0.00263169 -0.0334438 0)
(0.00766024 -0.0508386 0)
(0.0144489 -0.0649342 0)
(0.0226607 -0.0758179 0)
(0.0317788 -0.0835638 0)
(0.0413352 -0.0883087 0)
(0.0509227 -0.090284 0)
(0.0602185 -0.0898092 0)
(0.0689929 -0.0872628 0)
(0.0771025 -0.0830469 0)
(0.0844769 -0.0775535 0)
(0.0911005 -0.0711407 0)
(0.0969951 -0.0641172 0)
(0.102205 -0.0567366 0)
(0.106784 -0.0491985 0)
(0.110789 -0.0416533 0)
(0.114272 -0.0342091 0)
(0.11728 -0.0269399 0)
(0.119849 -0.0198928 0)
(0.122009 -0.0130944 0)
(0.123781 -0.00655653 0)
(0.125176 -0.00028039 0)
(0.126199 0.00573971 0)
(0.126847 0.0115136 0)
(0.127108 0.0170533 0)
(0.126965 0.0223711 0)
(0.126391 0.0274789 0)
(0.125351 0.0323875 0)
(0.123804 0.0371064 0)
(0.121703 0.0416456 0)
(0.118994 0.0460184 0)
(0.115618 0.0502479 0)
(0.111517 0.0543784 0)
(0.106635 0.0584956 0)
(0.100927 0.0627563 0)
(0.094372 0.0674286 0)
(0.0869866 0.072924 0)
(0.0788467 0.079785 0)
(0.0700982 0.0885546 0)
(0.0609474 0.0994593 0)
(0.051613 0.111919 0)
(0.0422429 0.12411 0)
(0.0328456 0.133023 0)
(0.0233125 0.135328 0)
(0.0135597 0.128771 0)
(0.00371104 0.113189 0)
(-0.0058438 0.09036 0)
(-0.0145787 0.0629932 0)
(-0.0220016 0.0336379 0)
(-0.0277023 0.00425613 0)
(-0.0313869 -0.0237174 0)
(-0.0328827 -0.0491042 0)
(-0.0321036 -0.0706304 0)
(-0.0291141 -0.0867409 0)
(-0.0241775 -0.0956328 0)
(-0.0178141 -0.0954224 0)
(-0.0109044 -0.0843974 0)
(-0.00440591 -0.0612471 0)
(-0.000662069 -0.0251006 0)
(0.000317327 -0.0139142 0)
(0.00281348 -0.0373383 0)
(0.00802743 -0.0567939 0)
(0.0149252 -0.0724831 0)
(0.0231257 -0.0844578 0)
(0.0320802 -0.0928023 0)
(0.0413129 -0.0977053 0)
(0.0504263 -0.0994802 0)
(0.0591225 -0.0985416 0)
(0.0672053 -0.0953612 0)
(0.0745683 -0.0904217 0)
(0.0811766 -0.0841783 0)
(0.0870457 -0.0770331 0)
(0.0922221 -0.0693214 0)
(0.0967676 -0.0613104 0)
(0.100748 -0.0532026 0)
(0.104226 -0.0451452 0)
(0.107257 -0.0372396 0)
(0.109886 -0.0295513 0)
(0.112151 -0.0221181 0)
(0.114077 -0.014958 0)
(0.115683 -0.00807438 0)
(0.116981 -0.00146061 0)
(0.117975 0.00489624 0)
(0.11866 0.0110137 0)
(0.119029 0.016911 0)
(0.119063 0.0226083 0)
(0.11874 0.0281253 0)
(0.118026 0.0334803 0)
(0.116884 0.0386905 0)
(0.115266 0.0437725 0)
(0.113118 0.0487454 0)
(0.110383 0.0536355 0)
(0.106998 0.0584864 0)
(0.102905 0.063377 0)
(0.098056 0.0684474 0)
(0.0924225 0.0739342 0)
(0.0860166 0.0801995 0)
(0.0789088 0.0877187 0)
(0.071244 0.0969654 0)
(0.0632345 0.108125 0)
(0.0551115 0.120644 0)
(0.0470317 0.132819 0)
(0.0389837 0.141796 0)
(0.030785 0.144324 0)
(0.0222209 0.138058 0)
(0.0132593 0.122586 0)
(0.00417014 0.0994443 0)
(-0.00454727 0.0712212 0)
(-0.0123413 0.0405307 0)
(-0.0187332 0.00942412 0)
(-0.023358 -0.0205545 0)
(-0.0259825 -0.0481058 0)
(-0.0264683 -0.0718383 0)
(-0.0248086 -0.0900338 0)
(-0.0211818 -0.100667 0)
(-0.0160021 -0.101567 0)
(-0.0100382 -0.0906883 0)
(-0.004167 -0.0663696 0)
(-0.000657651 -0.0274474 0)
(0.000347023 -0.0154359 0)
(0.00295992 -0.0413878 0)
(0.00831315 -0.0628712 0)
(0.0152635 -0.0800528 0)
(0.0233842 -0.0929752 0)
(0.0320963 -0.101756 0)
(0.0409209 -0.106659 0)
(0.0494778 -0.108096 0)
(0.0575007 -0.106589 0)
(0.064833 -0.102708 0)
(0.071409 -0.0970171 0)
(0.0772304 -0.0900293 0)
(0.0823424 -0.0821842 0)
(0.0868132 -0.0738369 0)
(0.0907185 -0.0652606 0)
(0.0941317 -0.0566553 0)
(0.0971177 -0.0481604 0)
(0.0997306 -0.0398676 0)
(0.102013 -0.0318319 0)
(0.103998 -0.0240816 0)
(0.105708 -0.0166256 0)
(0.107158 -0.00945973 0)
(0.108357 -0.00257035 0)
(0.109309 0.00406177 0)
(0.110008 0.0104604 0)
(0.110448 0.0166512 0)
(0.110614 0.0226611 0)
(0.110485 0.0285169 0)
(0.110034 0.0342444 0)
(0.109226 0.0398684 0)
(0.108018 0.0454129 0)
(0.106362 0.0509032 0)
(0.104202 0.0563699 0)
(0.10148 0.0618578 0)
(0.0981363 0.0674402 0)
(0.0941221 0.0732424 0)
(0.0894056 0.079472 0)
(0.0839916 0.0864427 0)
(0.0779408 0.0945636 0)
(0.0713875 0.104236 0)
(0.0645351 0.115597 0)
(0.0576117 0.128122 0)
(0.0507743 0.140231 0)
(0.0440033 0.149255 0)
(0.0370753 0.152074 0)
(0.0296876 0.146287 0)
(0.0216847 0.131241 0)
(0.0132205 0.108184 0)
(0.00473478 0.0795248 0)
(-0.00320709 0.0478444 0)
(-0.0100666 0.0153018 0)
(-0.0154222 -0.0164499 0)
(-0.0189905 -0.0459862 0)
(-0.0205939 -0.0718014 0)
(-0.0201669 -0.0920297 0)
(-0.0178143 -0.104444 0)
(-0.0138508 -0.106605 0)
(-0.00892408 -0.0961347 0)
(-0.0038098 -0.0709893 0)
(-0.000630367 -0.0296454 0)
(0.000370901 -0.0170311 0)
(0.00307186 -0.0455514 0)
(0.00851265 -0.0690151 0)
(0.0154514 -0.0875758 0)
(0.0234174 -0.101293 0)
(0.0318071 -0.110344 0)
(0.0401453 -0.11509 0)
(0.0480764 -0.116062 0)
(0.0553726 -0.113897 0)
(0.0619208 -0.109269 0)
(0.0676973 -0.102817 0)
(0.0727393 -0.0951096 0)
(0.0771185 -0.0866135 0)
(0.0809206 -0.0776952 0)
(0.0842309 -0.0686267 0)
(0.0871256 -0.0595997 0)
(0.0896683 -0.0507421 0)
(0.0919091 -0.0421333 0)
(0.0938856 -0.0338169 0)
(0.0956246 -0.0258112 0)
(0.0971444 -0.018117 0)
(0.0984559 -0.010723 0)
(0.0995648 -0.00360994 0)
(0.100472 0.00324654 0)
(0.101174 0.00987492 0)
(0.101663 0.0163061 0)
(0.101928 0.0225723 0)
(0.101951 0.0287065 0)
(0.10171 0.034741 0)
(0.101176 0.0407078 0)
(0.100312 0.0466379 0)
(0.0990752 0.0525634 0)
(0.0974174 0.05852 0)
(0.0952846 0.0645545 0)
(0.0926224 0.0707372 0)
(0.0893817 0.0771814 0)
(0.0855291 0.0840687 0)
(0.0810629 0.091669 0)
(0.0760324 0.100328 0)
(0.0705555 0.110377 0)
(0.0648183 0.121905 0)
(0.0590348 0.134406 0)
(0.0533567 0.146422 0)
(0.0477636 0.155482 0)
(0.0420187 0.158625 0)
(0.0357693 0.153439 0)
(0.0287675 0.139052 0)
(0.0210602 0.116402 0)
(0.0130085 0.0876659 0)
(0.00515389 0.0553525 0)
(-0.00194375 0.0216677 0)
(-0.00781134 -0.0116093 0)
(-0.0121231 -0.0429234 0)
(-0.0146724 -0.0706577 0)
(-0.015348 -0.0928137 0)
(-0.014195 -0.106985 0)
(-0.0114388 -0.110493 0)
(-0.0076035 -0.100641 0)
(-0.00334839 -0.0749969 0)
(-0.000581826 -0.0316302 0)
(0.000390061 -0.0186813 0)
(0.0031511 -0.0497868 0)
(0.00862594 -0.0751661 0)
(0.0154862 -0.0949804 0)
(0.0232224 -0.109333 0)
(0.0312139 -0.118489 0)
(0.0389978 -0.122932 0)
(0.0462507 -0.123325 0)
(0.0527882 -0.120434 0)
(0.058543 -0.115032 0)
(0.0635327 -0.107833 0)
(0.0678266 -0.099448 0)
(0.0715187 -0.090363 0)
(0.074707 -0.0809469 0)
(0.0774811 -0.0714632 0)
(0.0799163 -0.0620906 0)
(0.0820715 -0.0529421 0)
(0.0839907 -0.0440833 0)
(0.0857045 -0.035546 0)
(0.0872335 -0.0273391 0)
(0.0885902 -0.0194557 0)
(0.0897816 -0.011879 0)
(0.0908102 -0.00458521 0)
(0.0916751 0.00245389 0)
(0.0923725 0.00927007 0)
(0.0928954 0.0158979 0)
(0.0932346 0.022374 0)
(0.0933764 0.0287357 0)
(0.0933025 0.0350212 0)
(0.0929896 0.0412683 0)
(0.0924084 0.0475148 0)
(0.0915233 0.053799 0)
(0.0902923 0.0601625 0)
(0.0886689 0.066655 0)
(0.0866039 0.0733458 0)
(0.0840515 0.0803388 0)
(0.0809782 0.0877943 0)
(0.0773769 0.0959436 0)
(0.0732857 0.105076 0)
(0.0688045 0.115455 0)
(0.0640974 0.127123 0)
(0.0593587 0.139586 0)
(0.0547308 0.151498 0)
(0.0501977 0.160583 0)
(0.0455287 0.164055 0)
(0.0403525 0.159529 0)
(0.0343595 0.145948 0)
(0.0275019 0.123947 0)
(0.0200521 0.0954395 0)
(0.0125009 0.0628129 0)
(0.00539834 0.0282945 0)
(-0.000758508 -0.00624495 0)
(-0.00560372 -0.039112 0)
(-0.0089082 -0.0685713 0)
(-0.0105285 -0.0925057 0)
(-0.0104637 -0.108354 0)
(-0.00886379 -0.113229 0)
(-0.0061321 -0.10415 0)
(-0.00280307 -0.0783077 0)
(-0.000514438 -0.033347 0)
(0.000405189 -0.0203695 0)
(0.00319927 -0.054052 0)
(0.00865517 -0.0812641 0)
(0.0153713 -0.102196 0)
(0.0228065 -0.117022 0)
(0.0303327 -0.126124 0)
(0.0375083 -0.13013 0)
(0.0440485 -0.129853 0)
(0.0498163 -0.126189 0)
(0.0547905 -0.120011 0)
(0.059027 -0.112099 0)
(0.0626229 -0.103093 0)
(0.0656886 -0.0934912 0)
(0.068329 -0.0836551 0)
(0.0706336 -0.0738338 0)
(0.0726727 -0.0641882 0)
(0.0744981 -0.0548149 0)
(0.0761456 -0.0457648 0)
(0.0776385 -0.0370584 0)
(0.0789906 -0.0286958 0)
(0.0802092 -0.0206642 0)
(0.0812971 -0.012942 0)
(0.0822541 -0.00550228 0)
(0.0830781 0.00168557 0)
(0.0837649 0.00865548 0)
(0.0843085 0.0154445 0)
(0.0847014 0.0220922 0)
(0.084933 0.0286394 0)
(0.0849895 0.0351287 0)
(0.0848527 0.0416029 0)
(0.0844996 0.0481055 0)
(0.0839015 0.0546809 0)
(0.083024 0.0613761 0)
(0.0818275 0.068245 0)
(0.0802694 0.0753569 0)
(0.078308 0.0828097 0)
(0.0759111 0.0907463 0)
(0.0730678 0.0993651 0)
(0.0698062 0.108905 0)
(0.066209 0.11957 0)
(0.0624176 0.131355 0)
(0.058604 0.143775 0)
(0.0548997 0.155581 0)
(0.051296 0.164678 0)
(0.0475811 0.168461 0)
(0.0433897 0.164599 0)
(0.0383778 0.151898 0)
(0.0324203 0.13071 0)
(0.0256979 0.102672 0)
(0.0186323 0.0700142 0)
(0.0117405 0.0349483 0)
(0.00551913 -0.000577955 0)
(0.0003563 -0.0347568 0)
(-0.00349814 -0.0657271 0)
(-0.00588327 -0.0912556 0)
(-0.00676445 -0.10865 0)
(-0.0062314 -0.114852 0)
(-0.00457346 -0.106642 0)
(-0.00219862 -0.0808672 0)
(-0.0004315 -0.0347531 0)
(0.000416646 -0.0220796 0)
(0.00321777 -0.0583062 0)
(0.00860371 -0.0872514 0)
(0.0151139 -0.109156 0)
(0.0221842 -0.124295 0)
(0.0291892 -0.133195 0)
(0.0357174 -0.136649 0)
(0.0415285 -0.135633 0)
(0.0465347 -0.131175 0)
(0.0507591 -0.12424 0)
(0.054292 -0.115663 0)
(0.0572525 -0.106107 0)
(0.0597616 -0.0960667 0)
(0.0619256 -0.0858896 0)
(0.0638294 -0.0758049 0)
(0.0655354 -0.0659534 0)
(0.0670864 -0.0564136 0)
(0.0685091 -0.0472225 0)
(0.0698189 -0.0383899 0)
(0.0710232 -0.0299088 0)
(0.0721245 -0.0217613 0)
(0.0731221 -0.0139232 0)
(0.0740139 -0.00636531 0)
(0.0747967 0.000944279 0)
(0.0754664 0.00804053 0)
(0.0760178 0.014962 0)
(0.0764454 0.0217501 0)
(0.0767412 0.0284483 0)
(0.0768951 0.0351022 0)
(0.0768934 0.041759 0)
(0.0767185 0.048467 0)
(0.0763481 0.0552759 0)
(0.0757543 0.0622379 0)
(0.0749043 0.0694114 0)
(0.0737617 0.0768672 0)
(0.0722896 0.0846993 0)
(0.0704578 0.093037 0)
(0.0682533 0.102051 0)
(0.0656958 0.111938 0)
(0.0628529 0.122847 0)
(0.0598444 0.134731 0)
(0.0568213 0.147106 0)
(0.0539036 0.158805 0)
(0.0510918 0.167897 0)
(0.0482009 0.171954 0)
(0.0448886 0.168724 0)
(0.0408 0.156911 0)
(0.035752 0.136625 0)
(0.0298393 0.109229 0)
(0.0234032 0.0767742 0)
(0.0169103 0.04142 0)
(0.0108359 0.00516659 0)
(0.00557297 -0.0300762 0)
(0.00138308 -0.0623227 0)
(-0.00157073 -0.0892362 0)
(-0.00323247 -0.108005 0)
(-0.00364491 -0.115442 0)
(-0.00299324 -0.108138 0)
(-0.00156234 -0.082653 0)
(-0.000337132 -0.0358203 0)
(0.000424605 -0.0237964 0)
(0.00320795 -0.0625106 0)
(0.00847595 -0.0930738 0)
(0.0147241 -0.115802 0)
(0.0213744 -0.131098 0)
(0.027815 -0.139661 0)
(0.0336719 -0.14247 0)
(0.0387536 -0.14067 0)
(0.0430217 -0.135418 0)
(0.0465408 -0.127766 0)
(0.0494302 -0.11859 0)
(0.0518247 -0.10856 0)
(0.0538501 -0.098162 0)
(0.0556092 -0.087721 0)
(0.0571789 -0.077442 0)
(0.0586112 -0.0674439 0)
(0.0599383 -0.0577874 0)
(0.0611778 -0.0484963 0)
(0.0623373 -0.0395717 0)
(0.0634183 -0.0310007 0)
(0.0644192 -0.0227624 0)
(0.0653366 -0.0148308 0)
(0.0661668 -0.00717607 0)
(0.0669064 0.000234178 0)
(0.0675516 0.00743509 0)
(0.0680982 0.014466 0)
(0.0685423 0.0213693 0)
(0.0688786 0.0281903 0)
(0.0690996 0.0349771 0)
(0.0691956 0.04178 0)
(0.0691534 0.0486516 0)
(0.0689556 0.0556462 0)
(0.0685802 0.062821 0)
(0.0680002 0.0702389 0)
(0.0671845 0.077973 0)
(0.066101 0.0861153 0)
(0.0647218 0.0947845 0)
(0.0630328 0.104129 0)
(0.0610476 0.114308 0)
(0.0588209 0.125424 0)
(0.0564545 0.137389 0)
(0.0540802 0.149718 0)
(0.0518083 0.161311 0)
(0.0496495 0.170378 0)
(0.0474496 0.174658 0)
(0.0449009 0.171993 0)
(0.0416559 0.161028 0)
(0.0374936 0.141666 0)
(0.0324329 0.115019 0)
(0.0267328 0.0829441 0)
(0.0207962 0.0475227 0)
(0.0150606 0.0107803 0)
(0.00990655 -0.0252874 0)
(0.0055945 -0.0585729 0)
(0.00227656 -0.0866345 0)
(1.58441e-05 -0.106575 0)
(-0.00119712 -0.115109 0)
(-0.00145361 -0.108696 0)
(-0.000921731 -0.0836743 0)
(-0.00023601 -0.0365355 0)
(0.000429169 -0.0255051 0)
(0.00317124 -0.0666289 0)
(0.00827717 -0.0986821 0)
(0.0142139 -0.122081 0)
(0.0203991 -0.137387 0)
(0.0262441 -0.145496 0)
(0.0314195 -0.147589 0)
(0.035785 -0.144982 0)
(0.0393504 -0.13896 0)
(0.0422176 -0.130646 0)
(0.0445286 -0.120945 0)
(0.0464283 -0.110525 0)
(0.0480415 -0.0998493 0)
(0.0494636 -0.0892169 0)
(0.0507603 -0.0788056 0)
(0.0519718 -0.0687118 0)
(0.0531194 -0.0589794 0)
(0.0542113 -0.0496208 0)
(0.055248 -0.0406298 0)
(0.0562257 -0.0319901 0)
(0.0571394 -0.0236791 0)
(0.0579838 -0.0156703 0)
(0.0587544 -0.00793451 0)
(0.0594477 -0.000439514 0)
(0.0600606 0.00684933 0)
(0.0605901 0.0139715 0)
(0.0610338 0.02097 0)
(0.0613883 0.0278914 0)
(0.0616487 0.0347856 0)
(0.0618081 0.0417057 0)
(0.0618567 0.0487075 0)
(0.061781 0.0558497 0)
(0.0615635 0.0631942 0)
(0.0611816 0.070808 0)
(0.0606091 0.0787674 0)
(0.0598176 0.0871632 0)
(0.0587816 0.0961066 0)
(0.0574869 0.105727 0)
(0.0559426 0.116152 0)
(0.0541937 0.127443 0)
(0.0523274 0.139474 0)
(0.0504601 0.151754 0)
(0.0486948 0.163237 0)
(0.0470534 0.172255 0)
(0.0454146 0.176699 0)
(0.0435115 0.174511 0)
(0.0410184 0.164312 0)
(0.0376939 0.145842 0)
(0.0334959 0.119986 0)
(0.0286041 0.088409 0)
(0.0233515 0.053095 0)
(0.0181245 0.0160712 0)
(0.0132739 -0.0205954 0)
(0.0090424 -0.0546831 0)
(0.00556169 -0.0836514 0)
(0.00288869 -0.104531 0)
(0.00103454 -0.113984 0)
(-8.89404e-06 -0.108403 0)
(-0.000302151 -0.0839684 0)
(-0.000132914 -0.036901 0)
(0.000430441 -0.027192 0)
(0.00310935 -0.0706275 0)
(0.00801337 -0.104033 0)
(0.0135964 -0.127949 0)
(0.0192808 -0.143128 0)
(0.0245106 -0.150684 0)
(0.0290058 -0.152011 0)
(0.0326786 -0.1486 0)
(0.0355845 -0.141848 0)
(0.0378572 -0.132942 0)
(0.0396559 -0.122798 0)
(0.0411294 -0.112071 0)
(0.042397 -0.101196 0)
(0.0435431 -0.0904386 0)
(0.0446204 -0.0799493 0)
(0.0456567 -0.0698023 0)
(0.046662 -0.0600264 0)
(0.0476357 -0.0506244 0)
(0.0485719 -0.0415857 0)
(0.0494623 -0.0328918 0)
(0.0502992 -0.0245202 0)
(0.051076 -0.0164455 0)
(0.0517877 -0.00863948 0)
(0.0524314 -0.00107124 0)
(0.0530046 0.00629315 0)
(0.0535056 0.0134929 0)
(0.0539333 0.0205712 0)
(0.0542859 0.0275756 0)
(0.0545603 0.0345576 0)
(0.0547517 0.0415724 0)
(0.0548528 0.048679 0)
(0.0548529 0.0559398 0)
(0.0547374 0.063421 0)
(0.0544874 0.0711939 0)
(0.0540799 0.0793378 0)
(0.0534898 0.0879436 0)
(0.0526937 0.0971161 0)
(0.0516778 0.106969 0)
(0.0504485 0.117603 0)
(0.0490439 0.129041 0)
(0.0475405 0.141125 0)
(0.0460434 0.153353 0)