/*--------------------------------*- C++ -*----------------------------------*\
| =========                 |                                                 |
| \\      /  F ield         | OpenFOAM: The Open Source CFD Toolbox           |
|  \\    /   O peration     | Version:  2406                                  |
|   \\  /    A nd           | Website:  www.openfoam.com                      |
|    \\/     M anipulation  |                                                 |
\*---------------------------------------------------------------------------*/
FoamFile
{
    version     2.0;
    format      ascii;
    arch        "LSB;label=32;scalar=64";
    class       volScalarField;
    location    "5000";
    object      wallHeatFlux;
}
// * * * * * * * * * * * * * * * * * * * * * * * * * * * * * * * * * * * * * //

dimensions      [1 0 -3 0 0 0 0];

internalField   uniform 0;

boundaryField
{
    bottomwall
    {
        type            calculated;
        value           nonuniform List<scalar> 
60
(
311.18
241.865
203.007
179.331
163.966
153.468
145.966
140.353
135.944
132.315
129.2
126.408
123.791
121.236
118.678
116.098
113.499
110.893
108.288
105.683
103.074
100.443
97.764
95.006
92.1541
89.2389
86.3555
83.6399
81.1827
78.8971
76.4113
73.0836
68.2104
61.4081
53.032
44.4193
37.768
35.604
39.9952
51.849
70.6548
94.8505
122.623
152.615
184.032
215.976
246.833
274.221
295.441
308.131
310.826
303.359
287.088
264.91
240.998
220.335
208.227
210.65
235.167
294.804
)
;
    }
    topwall
    {
        type            calculated;
        value           nonuniform List<scalar> 
60
(
9.57173
6.09873
3.36654
0.854056
-1.16575
-2.69639
-3.7011
-4.09485
-3.75815
-2.67527
-1.02981
0.843259
2.6087
4.05452
5.10831
5.77412
6.06732
5.99287
5.55819
4.78994
3.73617
2.45626
1.01058
-0.539367
-2.11749
-3.61268
-4.86572
-5.67951
-5.86026
-5.28012
-3.93612
-1.9753
0.330759
2.65508
4.6994
6.25849
7.2421
7.65506
7.55451
7.00978
6.0832
4.83588
3.34857
1.73903
0.158354
-1.23652
-2.31421
-2.97474
-3.12428
-2.65709
-1.49131
0.352478
2.7101
5.33326
8.01251
10.6485
13.264
15.8287
18.6534
20.6883
)
;
    }
    coldwall
    {
        type            calculated;
        value           nonuniform List<scalar> 
48
(
-416.046
-216.35
-132.924
-89.5186
-63.96
-48.2892
-38.8656
-33.6159
-31.1762
-30.5916
-31.1898
-32.51
-34.2486
-36.2152
-38.2953
-40.4232
-42.5622
-44.6924
-46.8027
-48.8868
-50.9409
-52.9626
-54.9505
-56.9035
-58.8207
-60.7017
-62.5456
-64.3516
-66.1183
-67.844
-69.5262
-71.1618
-72.7466
-74.2756
-75.7431
-77.1419
-78.4644
-79.702
-80.8459
-81.887
-82.8159
-83.6238
-81.2115
-80.1041
-78.9937
-78.1511
-78.4184
-82.6514
)
;
    }
    radinlet
    {
        type            calculated;
        value           nonuniform List<scalar> 
12
(
-84.3023
-84.844
-85.2428
-85.4942
-85.5956
-85.5463
-85.3474
-85.0015
-84.5125
-83.8844
-83.121
-82.2268
)
;
    }
    hotwall
    {
        type            calculated;
        value           nonuniform List<scalar> 
60
(
-421.761
-226.385
-141.326
-96.4418
-71.0094
-56.959
-50.0531
-47.6083
-47.8251
-49.5122
-51.9079
-54.5416
-57.1266
-59.4877
-61.515
-63.1381
-64.3133
-65.0174
-65.2454
-65.0088
-64.3351
-63.2666
-61.8578
-60.1739
-58.288
-56.2786
-54.2275
-52.2171
-50.3277
-48.6352
-47.2079
-46.1044
-45.3709
-45.0399
-45.1297
-45.6445
-46.5753
-47.9016
-49.5939
-51.6157
-53.925
-56.476
-59.2197
-62.1041
-65.075
-68.0751
-71.0446
-73.9208
-76.6388
-79.1346
-81.3473
-83.2237
-84.7262
-85.8442
-86.6148
-87.1614
-87.7797
-89.1653
-93.1376
-105.34
)
;
    }
    frontAndback
    {
        type            empty;
    }
}


// ************************************************************************* //
