/*--------------------------------*- C++ -*----------------------------------*\
| =========                 |                                                 |
| \\      /  F ield         | OpenFOAM: The Open Source CFD Toolbox           |
|  \\    /   O peration     | Version:  2306                                  |
|   \\  /    A nd           | Website:  www.openfoam.com                      |
|    \\/     M anipulation  |                                                 |
\*---------------------------------------------------------------------------*/
FoamFile
{
    version     2.0;
    format      ascii;
    arch        "LSB;label=32;scalar=64";
    class       volScalarField;
    location    "5.5";
    object      Keff;
}
// * * * * * * * * * * * * * * * * * * * * * * * * * * * * * * * * * * * * * //

dimensions      [1 1 -3 -1 0 0 0];

internalField   nonuniform List<scalar> 
32768
(
67.2037
67.2017
67.1976
67.1914
67.183
67.1726
67.1601
67.1454
67.1286
67.1097
67.0886
67.0653
67.0399
67.0122
66.9823
66.9501
66.9156
66.8789
66.8398
66.7984
66.7546
66.7084
66.6598
66.6088
66.5554
66.4995
66.4411
66.3803
66.3171
66.2514
66.1832
66.1126
66.0395
65.9641
65.8862
65.806
65.7235
65.6387
65.5518
65.4626
65.3714
65.2781
65.1829
65.0858
64.9869
64.8864
64.7843
64.6808
64.5759
64.4697
64.3624
64.2542
64.1451
64.0352
63.9247
63.8138
63.7025
63.5911
63.4795
63.368
63.2567
63.1456
63.035
62.925
62.8156
62.7069
62.5992
62.4924
62.3867
62.2821
62.1788
62.0769
61.9764
61.8773
61.7799
61.6841
61.5899
61.4976
61.4071
61.3184
61.2318
61.1471
61.0644
60.9839
60.9055
60.8294
60.7555
60.6839
60.6147
60.5479
60.4836
60.4219
60.3628
60.3063
60.2525
60.2015
60.1534
60.1082
60.0659
60.0266
59.9905
59.9575
59.9277
59.9012
59.8781
59.8583
59.8419
59.8291
59.8197
59.814
59.8119
59.8134
59.8186
59.8275
59.8402
59.8565
59.8767
59.9005
59.9282
59.9595
59.9946
60.0334
60.0759
60.122
60.1717
60.225
60.2818
60.342
60.4056
60.4725
60.5426
60.6158
60.6921
60.7714
60.8535
60.9384
61.0259
61.116
61.2084
61.3031
61.4
61.4989
61.5997
61.7022
61.8063
61.9119
62.0188
62.1269
62.236
62.346
62.4567
62.568
62.6798
62.7918
62.9039
63.0161
63.1281
63.2399
63.3513
63.4621
63.5723
63.6817
63.7902
63.8977
64.0041
64.1094
64.2133
64.3158
64.4168
64.5164
64.6143
64.7105
64.8049
64.8976
64.9885
65.0774
65.1645
65.2496
65.3327
65.4138
65.493
65.57
65.6451
65.7181
65.7891
65.858
65.9249
65.9897
66.0525
66.1133
66.172
66.2286
66.2832
66.3357
66.3861
66.4344
66.4805
66.5245
66.5663
66.6058
66.6432
66.6783
66.7112
66.7419
66.7705
66.797
66.8215
66.844
66.8647
66.8837
66.901
66.9169
66.9314
66.9447
66.9569
66.9681
66.9784
66.988
66.9969
67.0053
67.0131
67.0205
67.0275
67.0343
67.0407
67.0469
67.0529
67.0587
67.0643
67.0698
67.0752
67.0804
67.0855
67.0905
67.0954
67.1002
67.1049
67.1095
67.114
67.1184
67.1227
67.127
67.1312
67.1354
67.1394
67.1434
67.1474
67.1513
67.1551
67.1589
67.1626
67.1664
67.17
67.174
67.1768
67.1827
67.2037
67.2017
67.1976
67.1914
67.183
67.1726
67.1601
67.1454
67.1287
67.1097
67.0887
67.0654
67.0399
67.0123
66.9823
66.9502
66.9157
66.879
66.8399
66.7984
66.7546
66.7085
66.6599
66.6089
66.5554
66.4995
66.4411
66.3803
66.317
66.2513
66.1831
66.1124
66.0393
65.9638
65.8858
65.8056
65.723
65.6381
65.551
65.4618
65.3704
65.2771
65.1817
65.0845
64.9855
64.8849
64.7827
64.6789
64.5739
64.4676
64.3602
64.2518
64.1425
64.0325
63.9219
63.8108
63.6994
63.5878
63.4761
63.3644
63.2529
63.1418
63.0311
62.9209
62.8114
62.7026
62.5948
62.4879
62.3821
62.2774
62.1741
62.0721
61.9715
61.8724
61.7748
61.679
61.5848
61.4924
61.4018
61.3131
61.2264
61.1417
61.059
60.9784
60.9
60.8238
60.7499
60.6782
60.609
60.5422
60.4778
60.416
60.3569
60.3003
60.2465
60.1955
60.1473
60.102
60.0597
60.0204
59.9842
59.9511
59.9213
59.8948
59.8715
59.8517
59.8353
59.8224
59.8131
59.8073
59.8051
59.8066
59.8118
59.8207
59.8333
59.8497
59.8698
59.8937
59.9213
59.9527
59.9878
60.0267
60.0692
60.1153
60.1651
60.2184
60.2752
60.3355
60.3991
60.4661
60.5363
60.6096
60.686
60.7654
60.8476
60.9326
61.0202
61.1104
61.2029
61.2978
61.3948
61.4938
61.5947
61.6974
61.8017
61.9074
62.0145
62.1227
62.232
62.3421
62.453
62.5645
62.6764
62.7885
62.9009
63.0132
63.1254
63.2373
63.3488
63.4598
63.5702
63.6797
63.7884
63.896
64.0026
64.1079
64.212
64.3146
64.4158
64.5154
64.6134
64.7097
64.8043
64.8971
64.988
65.0771
65.1642
65.2493
65.3325
65.4137
65.4929
65.57
65.6451
65.7182
65.7891
65.8581
65.925
65.9899
66.0527
66.1134
66.1721
66.2288
66.2834
66.3359
66.3863
66.4346
66.4807
66.5247
66.5665
66.606
66.6434
66.6785
66.7114
66.7421
66.7707
66.7972
66.8217
66.8442
66.8649
66.8838
66.9012
66.9171
66.9316
66.9449
66.9571
66.9683
66.9786
66.9882
66.9971
67.0054
67.0132
67.0206
67.0277
67.0344
67.0408
67.047
67.053
67.0588
67.0645
67.0699
67.0753
67.0805
67.0856
67.0906
67.0955
67.1003
67.1049
67.1095
67.1141
67.1185
67.1228
67.1271
67.1313
67.1354
67.1395
67.1435
67.1474
67.1513
67.1551
67.159
67.1627
67.1665
67.17
67.174
67.1768
67.1827
67.2037
67.2017
67.1976
67.1914
67.1831
67.1726
67.1601
67.1455
67.1287
67.1098
67.0888
67.0655
67.0401
67.0124
66.9825
66.9503
66.9159
66.8791
66.8401
66.7986
66.7548
66.7086
66.66
66.609
66.5555
66.4996
66.4412
66.3803
66.3169
66.2511
66.1828
66.112
66.0388
65.9632
65.8851
65.8047
65.7219
65.6369
65.5496
65.4602
65.3686
65.275
65.1794
65.082
64.9827
64.8818
64.7793
64.6753
64.57
64.4634
64.3557
64.2469
64.1374
64.0271
63.9162
63.8048
63.6931
63.5811
63.4692
63.3572
63.2455
63.1341
63.0231
62.9127
62.803
62.694
62.5859
62.4789
62.3729
62.2681
62.1645
62.0624
61.9616
61.8624
61.7648
61.6688
61.5745
61.482
61.3913
61.3025
61.2157
61.1309
61.0481
60.9674
60.8889
60.8126
60.7386
60.6669
60.5976
60.5307
60.4662
60.4043
60.345
60.2884
60.2345
60.1834
60.1351
60.0897
60.0472
60.0078
59.9715
59.9384
59.9085
59.8818
59.8585
59.8386
59.8221
59.8091
59.7997
59.7938
59.7916
59.7931
59.7982
59.8071
59.8197
59.836
59.8562
59.88
59.9077
59.9391
59.9743
60.0131
60.0557
60.1019
60.1518
60.2052
60.2621
60.3225
60.3863
60.4534
60.5237
60.5972
60.6738
60.7534
60.8358
60.921
61.0088
61.0992
61.192
61.2871
61.3844
61.4837
61.5849
61.6878
61.7924
61.8984
62.0058
62.1143
62.2239
62.3344
62.4456
62.5574
62.6696
62.7821
62.8947
63.0074
63.1199
63.2321
63.344
63.4553
63.5659
63.6757
63.7847
63.8926
63.9994
64.1051
64.2093
64.3122
64.4136
64.5135
64.6117
64.7082
64.803
64.896
64.9871
65.0763
65.1635
65.2488
65.3321
65.4134
65.4927
65.5699
65.6451
65.7182
65.7893
65.8583
65.9253
65.9901
66.053
66.1138
66.1725
66.2292
66.2838
66.3363
66.3867
66.435
66.4811
66.5251
66.5669
66.6064
66.6438
66.6789
66.7118
66.7425
66.7711
66.7976
66.822
66.8446
66.8652
66.8842
66.9015
66.9174
66.9319
66.9452
66.9574
66.9686
66.9789
66.9884
66.9974
67.0057
67.0135
67.0209
67.0279
67.0346
67.0411
67.0473
67.0533
67.0591
67.0647
67.0702
67.0755
67.0807
67.0858
67.0908
67.0957
67.1005
67.1051
67.1097
67.1142
67.1187
67.123
67.1273
67.1314
67.1356
67.1396
67.1436
67.1475
67.1514
67.1552
67.159
67.1628
67.1665
67.1701
67.1741
67.1768
67.1827
67.2037
67.2017
67.1976
67.1914
67.1831
67.1727
67.1602
67.1456
67.1288
67.1099
67.0889
67.0657
67.0403
67.0126
66.9827
66.9506
66.9162
66.8794
66.8403
66.7989
66.7551
66.7089
66.6603
66.6092
66.5557
66.4997
66.4412
66.3802
66.3168
66.2508
66.1824
66.1115
66.0381
65.9623
65.884
65.8034
65.7204
65.6351
65.5475
65.4578
65.3659
65.2719
65.176
65.0782
64.9786
64.8772
64.7743
64.6699
64.5641
64.457
64.3489
64.2397
64.1297
64.0189
63.9076
63.7957
63.6836
63.5712
63.4588
63.3465
63.2344
63.1226
63.0112
62.9004
62.7904
62.6811
62.5727
62.4653
62.3591
62.254
62.1502
62.0478
61.9469
61.8475
61.7496
61.6535
61.559
61.4663
61.3755
61.2866
61.1996
61.1147
61.0318
60.951
60.8723
60.7959
60.7218
60.6499
60.5804
60.5134
60.4488
60.3868
60.3273
60.2706
60.2165
60.1652
60.1167
60.0712
60.0286
59.989
59.9526
59.9193
59.8892
59.8624
59.839
59.8189
59.8023
59.7892
59.7796
59.7737
59.7714
59.7728
59.7778
59.7866
59.7992
59.8155
59.8357
59.8596
59.8872
59.9187
59.9539
59.9928
60.0355
60.0818
60.1318
60.1854
60.2425
60.303
60.367
60.4343
60.5049
60.5786
60.6555
60.7353
60.818
60.9035
60.9917
61.0824
61.1756
61.2711
61.3687
61.4684
61.57
61.6734
61.7784
61.8849
61.9927
62.1018
62.2118
62.3227
62.4344
62.5467
62.6594
62.7724
62.8855
62.9986
63.1116
63.2244
63.3367
63.4484
63.5595
63.6698
63.7792
63.8875
63.9948
64.1008
64.2054
64.3087
64.4105
64.5107
64.6092
64.706
64.8011
64.8943
64.9857
65.0751
65.1626
65.2481
65.3316
65.4131
65.4925
65.5698
65.6451
65.7184
65.7895
65.8586
65.9256
65.9906
66.0535
66.1143
66.1731
66.2298
66.2844
66.3369
66.3873
66.4356
66.4817
66.5257
66.5675
66.607
66.6444
66.6795
66.7124
66.7431
66.7717
66.7981
66.8226
66.8451
66.8658
66.8847
66.902
66.9179
66.9324
66.9457
66.9578
66.969
66.9793
66.9889
66.9978
67.0061
67.0139
67.0213
67.0283
67.035
67.0415
67.0476
67.0536
67.0594
67.065
67.0705
67.0758
67.081
67.0861
67.0911
67.096
67.1007
67.1054
67.11
67.1145
67.1189
67.1232
67.1275
67.1317
67.1358
67.1398
67.1438
67.1477
67.1516
67.1554
67.1592
67.1629
67.1666
67.1701
67.1741
67.1769
67.1827
67.2037
67.2017
67.1976
67.1914
67.1831
67.1727
67.1603
67.1457
67.129
67.1101
67.0891
67.0659
67.0405
67.0129
66.9831
66.9509
66.9165
66.8798
66.8407
66.7993
66.7555
66.7093
66.6606
66.6095
66.5559
66.4998
66.4413
66.3802
66.3166
66.2505
66.1819
66.1108
66.0372
65.9611
65.8826
65.8017
65.7184
65.6327
65.5448
65.4546
65.3623
65.2679
65.1715
65.0731
64.973
64.8711
64.7676
64.6626
64.5563
64.4486
64.3398
64.2301
64.1194
64.0081
63.8961
63.7837
63.6709
63.558
63.445
63.3321
63.2195
63.1072
62.9953
62.8841
62.7735
62.6638
62.555
62.4473
62.3407
62.2353
62.1312
62.0285
61.9272
61.8275
61.7295
61.6331
61.5384
61.4455
61.3545
61.2654
61.1782
61.0931
61.01
60.9291
60.8502
60.7737
60.6993
60.6273
60.5576
60.4904
60.4256
60.3634
60.3038
60.2468
60.1925
60.141
60.0923
60.0466
60.0038
59.964
59.9273
59.8938
59.8635
59.8365
59.8129
59.7927
59.7759
59.7626
59.7529
59.7468
59.7444
59.7457
59.7507
59.7594
59.7719
59.7882
59.8083
59.8322
59.8599
59.8914
59.9267
59.9658
60.0086
60.055
60.1052
60.1589
60.2162
60.277
60.3413
60.4089
60.4798
60.5538
60.631
60.7112
60.7943
60.8803
60.9689
61.0601
61.1537
61.2497
61.3479
61.4481
61.5503
61.6542
61.7598
61.8669
61.9753
62.085
62.1957
62.3072
62.4195
62.5325
62.6458
62.7594
62.8732
62.987
63.1006
63.214
63.3269
63.4393
63.551
63.6619
63.7719
63.8808
63.9886
64.0951
64.2003
64.304
64.4063
64.5069
64.6059
64.7031
64.7985
64.8921
64.9838
65.0736
65.1613
65.2471
65.3309
65.4126
65.4922
65.5697
65.6452
65.7186
65.7899
65.8591
65.9262
65.9912
66.0542
66.1151
66.1739
66.2306
66.2852
66.3377
66.3882
66.4364
66.4826
66.5265
66.5683
66.6078
66.6452
66.6803
66.7132
66.7439
66.7724
66.7989
66.8233
66.8458
66.8665
66.8854
66.9027
66.9186
66.933
66.9463
66.9585
66.9696
66.9799
66.9895
66.9983
67.0067
67.0145
67.0218
67.0289
67.0355
67.042
67.0481
67.0541
67.0599
67.0655
67.071
67.0763
67.0815
67.0866
67.0915
67.0964
67.1011
67.1058
67.1104
67.1149
67.1192
67.1236
67.1278
67.132
67.136
67.1401
67.144
67.1479
67.1518
67.1556
67.1593
67.163
67.1668
67.1703
67.1742
67.177
67.1828
67.2037
67.2017
67.1976
67.1915
67.1832
67.1728
67.1604
67.1458
67.1291
67.1103
67.0894
67.0662
67.0409
67.0133
66.9835
66.9514
66.917
66.8803
66.8412
66.7998
66.756
66.7097
66.6611
66.6099
66.5562
66.5001
66.4414
66.3802
66.3165
66.2502
66.1814
66.11
66.0362
65.9598
65.8809
65.7996
65.7159
65.6298
65.5414
65.4507
65.3579
65.2629
65.1659
65.0669
64.9661
64.8635
64.7593
64.6536
64.5465
64.4381
64.3286
64.218
64.1066
63.9945
63.8818
63.7686
63.6551
63.5414
63.4278
63.3142
63.2008
63.0879
62.9754
62.8636
62.7525
62.6422
62.5329
62.4247
62.3176
62.2118
62.1073
62.0043
61.9027
61.8027
61.7043
61.6076
61.5126
61.4195
61.3282
61.2389
61.1515
61.0662
60.9829
60.9017
60.8227
60.7459
60.6713
60.5991
60.5292
60.4617
60.3967
60.3343
60.2744
60.2171
60.1626
60.1108
60.0619
60.0159
59.9728
59.9327
59.8958
59.862
59.8315
59.8042
59.7804
59.7599
59.7429
59.7294
59.7195
59.7133
59.7107
59.7118
59.7167
59.7253
59.7378
59.7541
59.7741
59.7981
59.8258
59.8574
59.8928
59.9319
59.9749
60.0215
60.0719
60.1258
60.1834
60.2445
60.3091
60.377
60.4483
60.5228
60.6004
60.6811
60.7647
60.8512
60.9403
61.0321
61.1264
61.223
61.3218
61.4227
61.5256
61.6302
61.7365
61.8444
61.9536
62.064
62.1755
62.2878
62.4009
62.5147
62.6288
62.7433
62.8579
62.9725
63.0869
63.2011
63.3148
63.4279
63.5404
63.652
63.7627
63.8724
63.9808
64.088
64.1939
64.2982
64.401
64.5022
64.6017
64.6995
64.7954
64.8894
64.9815
65.0717
65.1598
65.246
65.33
65.412
65.4919
65.5697
65.6453
65.7189
65.7903
65.8597
65.9269
65.992
66.0551
66.116
66.1749
66.2316
66.2863
66.3388
66.3892
66.4375
66.4836
66.5276
66.5693
66.6089
66.6462
66.6813
66.7141
66.7448
66.7734
66.7998
66.8242
66.8467
66.8674
66.8863
66.9036
66.9194
66.9339
66.9471
66.9592
66.9704
66.9807
66.9902
66.9991
67.0073
67.0151
67.0225
67.0295
67.0362
67.0426
67.0488
67.0547
67.0605
67.0661
67.0715
67.0768
67.082
67.0871
67.092
67.0969
67.1016
67.1063
67.1108
67.1153
67.1197
67.124
67.1282
67.1323
67.1364
67.1404
67.1443
67.1482
67.1521
67.1558
67.1596
67.1632
67.1669
67.1704
67.1743
67.1771
67.1828
67.2037
67.2017
67.1977
67.1915
67.1832
67.1729
67.1605
67.146
67.1294
67.1106
67.0897
67.0666
67.0413
67.0138
66.984
66.9519
66.9176
66.8809
66.8419
66.8005
66.7566
66.7104
66.6617
66.6104
66.5567
66.5005
66.4417
66.3803
66.3164
66.2499
66.1808
66.1092
66.035
65.9582
65.879
65.7972
65.713
65.6264
65.5374
65.4461
65.3526
65.2569
65.1592
65.0595
64.9579
64.8545
64.7494
64.6429
64.5348
64.4255
64.3151
64.2036
64.0913
63.9782
63.8646
63.7505
63.6361
63.5216
63.407
63.2926
63.1785
63.0647
62.9515
62.839
62.7272
62.6163
62.5064
62.3976
62.29
62.1837
62.0787
61.9752
61.8732
61.7728
61.674
61.577
61.4817
61.3883
61.2968
61.2071
61.1195
61.0339
60.9503
60.8689
60.7896
60.7126
60.6377
60.5652
60.4951
60.4274
60.3621
60.2993
60.2391
60.1816
60.1267
60.0747
60.0254
59.979
59.9357
59.8953
59.858
59.8239
59.7931
59.7655
59.7413
59.7206
59.7033
59.6896
59.6795
59.673
59.6702
59.6712
59.676
59.6845
59.6969
59.7131
59.7331
59.7571
59.7848
59.8165
59.852
59.8913
59.9344
59.9813
60.0319
60.0861
60.144
60.2055
60.2704
60.3388
60.4106
60.4855
60.5637
60.6449
60.7292
60.8162
60.9061
60.9985
61.0935
61.1908
61.2905
61.3922
61.4959
61.6014
61.7086
61.8173
61.9274
62.0388
62.1512
62.2645
62.3786
62.4933
62.6085
62.7239
62.8395
62.9551
63.0705
63.1856
63.3003
63.4144
63.5277
63.6403
63.7518
63.8623
63.9716
64.0796
64.1862
64.2913
64.3948
64.4967
64.5969
64.6952
64.7917
64.8863
64.9789
65.0695
65.1581
65.2446
65.3291
65.4114
65.4916
65.5696
65.6455
65.7193
65.791
65.8605
65.9278
65.9931
66.0562
66.1172
66.1761
66.2329
66.2876
66.3401
66.3906
66.4388
66.485
66.5289
66.5706
66.6101
66.6474
66.6825
66.7154
66.746
66.7745
66.801
66.8254
66.8478
66.8684
66.8873
66.9046
66.9204
66.9348
66.9481
66.9602
66.9713
66.9816
66.9911
66.9999
67.0082
67.016
67.0233
67.0303
67.037
67.0433
67.0495
67.0554
67.0612
67.0668
67.0722
67.0775
67.0827
67.0877
67.0927
67.0975
67.1022
67.1069
67.1114
67.1158
67.1202
67.1245
67.1287
67.1328
67.1368
67.1408
67.1447
67.1486
67.1524
67.1561
67.1598
67.1635
67.1671
67.1706
67.1745
67.1772
67.1829
67.2037
67.2017
67.1977
67.1916
67.1833
67.173
67.1607
67.1462
67.1296
67.1109
67.0901
67.067
67.0418
67.0143
66.9846
66.9526
66.9183
66.8817
66.8427
66.8013
66.7575
66.7112
66.6624
66.6111
66.5573
66.501
66.442
66.3805
66.3164
66.2496
66.1803
66.1083
66.0337
65.9565
65.8768
65.7945
65.7098
65.6225
65.5329
65.4409
65.3466
65.2501
65.1515
65.0509
64.9484
64.844
64.738
64.6304
64.5213
64.4109
64.2994
64.1868
64.0734
63.9593
63.8445
63.7294
63.6139
63.4984
63.3828
63.2674
63.1523
63.0377
62.9236
62.8102
62.6977
62.586
62.4754
62.3659
62.2577
62.1508
62.0453
61.9412
61.8388
61.7379
61.6388
61.5413
61.4457
61.3519
61.2601
61.1701
61.0822
60.9963
60.9124
60.8307
60.7512
60.6738
60.5987
60.5259
60.4554
60.3874
60.3218
60.2587
60.1981
60.1402
60.085
60.0326
59.9829
59.9362
59.8924
59.8517
59.814
59.7795
59.7483
59.7204
59.6959
59.6748
59.6572
59.6432
59.6328
59.6261
59.6231
59.6238
59.6284
59.6368
59.6491
59.6652
59.6853
59.7092
59.737
59.7688
59.8044
59.8439
59.8872
59.9343
59.9852
60.0398
60.0981
60.1599
60.2253
60.2942
60.3665
60.442
60.5208
60.6027
60.6876
60.7754
60.866
60.9593
61.0551
61.1534
61.2539
61.3565
61.4612
61.5677
61.676
61.7858
61.897
62.0094
62.1229
62.2374
62.3526
62.4685
62.5848
62.7014
62.8181
62.9348
63.0514
63.1676
63.2834
63.3986
63.513
63.6266
63.7392
63.8507
63.9609
64.0699
64.1774
64.2833
64.3877
64.4904
64.5913
64.6903
64.7875
64.8827
64.9759
65.0671
65.1562
65.2432
65.328
65.4107
65.4913
65.5697
65.6459
65.7199
65.7917
65.8614
65.929
65.9943
66.0576
66.1187
66.1776
66.2344
66.2892
66.3417
66.3922
66.4404
66.4865
66.5304
66.5722
66.6116
66.6489
66.684
66.7168
66.7474
66.7759
66.8023
66.8267
66.8491
66.8697
66.8886
66.9058
66.9216
66.936
66.9492
66.9612
66.9723
66.9826
66.9921
67.0009
67.0091
67.0169
67.0242
67.0312
67.0379
67.0442
67.0504
67.0563
67.062
67.0676
67.073
67.0783
67.0835
67.0885
67.0934
67.0982
67.1029
67.1075
67.112
67.1165
67.1208
67.125
67.1292
67.1333
67.1373
67.1413
67.1452
67.149
67.1528
67.1565
67.1601
67.1637
67.1674
67.1708
67.1747
67.1773
67.183
67.2037
67.2017
67.1977
67.1916
67.1834
67.1732
67.1609
67.1465
67.1299
67.1113
67.0905
67.0676
67.0424
67.015
66.9854
66.9535
66.9192
66.8826
66.8437
66.8023
66.7585
66.7122
66.6634
66.6121
66.5582
66.5017
66.4426
66.3809
66.3165
66.2495
66.1798
66.1074
66.0324
65.9548
65.8745
65.7917
65.7062
65.6183
65.5279
65.4351
65.3399
65.2425
65.1429
65.0413
64.9377
64.8322
64.725
64.6162
64.5059
64.3943
64.2815
64.1677
64.053
63.9376
63.8216
63.7052
63.5886
63.4718
63.3551
63.2386
63.1224
63.0067
62.8917
62.7773
62.6638
62.5513
62.4399
62.3297
62.2208
62.1132
62.007
61.9024
61.7994
61.6981
61.5985
61.5006
61.4046
61.3104
61.2182
61.1279
61.0396
60.9534
60.8692
60.7872
60.7073
60.6296
60.5542
60.481
60.4102
60.3418
60.2758
60.2123
60.1514
60.0931
60.0375
59.9846
59.9345
59.8873
59.8431
59.8019
59.7638
59.7289
59.6973
59.6689
59.644
59.6225
59.6045
59.5902
59.5795
59.5725
59.5692
59.5697
59.5741
59.5824
59.5945
59.6106
59.6306
59.6545
59.6824
59.7142
59.75
59.7897
59.8332
59.8806
59.9318
59.9868
60.0455
60.1078
60.1738
60.2432
60.3161
60.3923
60.4718
60.5544
60.6401
60.7288
60.8203
60.9144
61.0112
61.1105
61.212
61.3158
61.4216
61.5292
61.6387
61.7497
61.8621
61.9758
62.0906
62.2064
62.3229
62.4401
62.5577
62.6756
62.7936
62.9117
63.0295
63.1471
63.2641
63.3806
63.4963
63.611
63.7248
63.8374
63.9488
64.0588
64.1674
64.2743
64.3796
64.4832
64.585
64.6849
64.7828
64.8787
64.9726
65.0644
65.1541
65.2416
65.327
65.4101
65.4911
65.5698
65.6463
65.7207
65.7928
65.8627
65.9304
65.9959
66.0592
66.1204
66.1794
66.2363
66.291
66.3436
66.394
66.4423
66.4884
66.5323
66.574
66.6134
66.6506
66.6856
66.7184
66.749
66.7775
66.8038
66.8282
66.8506
66.8711
66.89
66.9072
66.9229
66.9373
66.9504
66.9625
66.9736
66.9838
66.9932
67.002
67.0102
67.018
67.0253
67.0322
67.0389
67.0452
67.0514
67.0573
67.063
67.0685
67.0739
67.0792
67.0843
67.0893
67.0942
67.099
67.1037
67.1083
67.1128
67.1172
67.1215
67.1257
67.1298
67.1339
67.1379
67.1418
67.1457
67.1495
67.1532
67.1569
67.1605
67.1641
67.1677
67.171
67.1748
67.1775
67.1831
67.2037
67.2017
67.1978
67.1917
67.1835
67.1733
67.1611
67.1468
67.1303
67.1118
67.0911
67.0682
67.0431
67.0158
66.9863
66.9545
66.9203
66.8838
66.8449
66.8035
66.7597
66.7134
66.6646
66.6132
66.5592
66.5026
66.4434
66.3814
66.3168
66.2495
66.1794
66.1067
66.0312
65.953
65.8721
65.7886
65.7025
65.6137
65.5225
65.4287
65.3326
65.2341
65.1334
65.0306
64.9258
64.819
64.7105
64.6003
64.4887
64.3757
64.2615
64.1462
64.0301
63.9132
63.7958
63.678
63.56
63.4419
63.3239
63.2061
63.0887
62.9718
62.8556
62.7402
62.6257
62.5123
62.4
62.2889
62.1791
62.0708
61.964
61.8588
61.7552
61.6533
61.5532
61.4548
61.3584
61.2638
61.1711
61.0805
60.9918
60.9052
60.8207
60.7383
60.6581
60.5801
60.5043
60.4307
60.3595
60.2907
60.2243
60.1604
60.099
60.0403
59.9842
59.9308
59.8802
59.8325
59.7878
59.7461
59.7075
59.6721
59.6399
59.6111
59.5857
59.5638
59.5454
59.5306
59.5195
59.5122
59.5086
59.5089
59.5131
59.5211
59.5331
59.5491
59.5691
59.593
59.621
59.6529
59.6888
59.7287
59.7725
59.8202
59.8718
59.9272
59.9863
60.0492
60.1157
60.1858
60.2593
60.3363
60.4166
60.5
60.5866
60.6762
60.7687
60.8639
60.9618
61.0622
61.1649
61.2699
61.3769
61.4859
61.5967
61.709
61.8229
61.938
62.0542
62.1715
62.2895
62.4081
62.5272
62.6466
62.7662
62.8857
63.0051
63.1241
63.2426
63.3604
63.4775
63.5937
63.7088
63.8227
63.9353
64.0466
64.1563
64.2644
64.3707
64.4753
64.5781
64.6789
64.7777
64.8744
64.9691
65.0616
65.1519
65.24
65.3259
65.4096
65.491
65.5701
65.647
65.7217
65.794
65.8642
65.932
65.9977
66.0612
66.1225
66.1816
66.2385
66.2933
66.3458
66.3963
66.4445
66.4905
66.5344
66.576
66.6155
66.6526
66.6876
66.7203
66.7509
66.7793
66.8056
66.8299
66.8522
66.8728
66.8915
66.9087
66.9244
66.9387
66.9519
66.9639
66.9749
66.9851
66.9945
67.0033
67.0115
67.0192
67.0265
67.0334
67.04
67.0464
67.0525
67.0584
67.0641
67.0696
67.075
67.0802
67.0853
67.0903
67.0952
67.1
67.1046
67.1092
67.1136
67.118
67.1223
67.1265
67.1306
67.1346
67.1385
67.1424
67.1462
67.15
67.1537
67.1573
67.1609
67.1644
67.168
67.1713
67.1751
67.1777
67.1832
67.2037
67.2017
67.1978
67.1918
67.1837
67.1735
67.1613
67.1471
67.1308
67.1123
67.0917
67.0689
67.044
67.0168
66.9874
66.9556
66.9216
66.8851
66.8463
66.805
66.7612
66.715
66.6661
66.6147
66.5606
66.5038
66.4444
66.3822
66.3174
66.2497
66.1793
66.106
66.0301
65.9513
65.8698
65.7855
65.6985
65.6089
65.5167
65.4219
65.3247
65.225
65.1231
65.019
64.9127
64.8046
64.6946
64.5829
64.4697
64.3551
64.2393
64.1224
64.0047
63.8862
63.7672
63.6478
63.5283
63.4086
63.2891
63.1699
63.0512
62.933
62.8155
62.6989
62.5833
62.4688
62.3555
62.2435
62.1329
62.0237
61.9162
61.8103
61.706
61.6035
61.5028
61.404
61.3071
61.212
61.119
61.0279
60.9389
60.8519
60.767
60.6843
60.6037
60.5252
60.449
60.3751
60.3035
60.2342
60.1673
60.1029
60.0411
59.9818
59.9251
59.8712
59.8201
59.7718
59.7265
59.6843
59.6451
59.6091
59.5764
59.547
59.5211
59.4986
59.4798
59.4646
59.453
59.4453
59.4414
59.4414
59.4453
59.4531
59.465
59.4808
59.5007
59.5247
59.5527
59.5847
59.6208
59.6609
59.705
59.753
59.805
59.8609
59.9205
59.984
60.0511
60.1219
60.1962
60.274
60.3551
60.4396
60.5272
60.6178
60.7114
60.8078
60.9068
61.0085
61.1125
61.2189
61.3273
61.4377
61.55
61.6639
61.7793
61.896
62.0138
62.1327
62.2524
62.3727
62.4935
62.6145
62.7358
62.857
62.978
63.0986
63.2187
63.3382
63.4568
63.5745
63.6911
63.8065
63.9205
64.0331
64.1441
64.2535
64.361
64.4668
64.5706
64.6724
64.7722
64.8698
64.9653
65.0586
65.1497
65.2385
65.325
65.4092
65.4911
65.5707
65.648
65.7229
65.7956
65.866
65.9341
65.9999
66.0635
66.1249
66.1841
66.2411
66.2958
66.3484
66.3988
66.447
66.493
66.5368
66.5784
66.6178
66.6549
66.6898
66.7225
66.753
66.7813
66.8076
66.8318
66.8541
66.8746
66.8933
66.9104
66.9261
66.9404
66.9534
66.9654
66.9764
66.9866
66.9959
67.0047
67.0129
67.0205
67.0278
67.0347
67.0413
67.0476
67.0537
67.0596
67.0653
67.0708
67.0761
67.0814
67.0864
67.0914
67.0963
67.101
67.1056
67.1101
67.1146
67.1189
67.1231
67.1273
67.1314
67.1354
67.1393
67.1431
67.1469
67.1506
67.1542
67.1578
67.1614
67.1648
67.1683
67.1716
67.1753
67.1779
67.1833
67.2037
67.2018
67.1978
67.1918
67.1838
67.1737
67.1617
67.1475
67.1313
67.1129
67.0925
67.0698
67.045
67.0179
66.9886
66.957
66.9231
66.8867
66.848
66.8068
66.7631
66.7168
66.6679
66.6164
66.5623
66.5054
66.4458
66.3834
66.3182
66.2502
66.1794
66.1057
66.0291
65.9497
65.8675
65.7824
65.6946
65.604
65.5107
65.4148
65.3163
65.2154
65.112
65.0064
64.8987
64.7889
64.6773
64.5639
64.449
64.3326
64.215
64.0963
63.9768
63.8565
63.7357
63.6146
63.4933
63.372
63.2509
63.1301
63.0098
62.8902
62.7713
62.6534
62.5365
62.4209
62.3065
62.1934
62.0819
61.9719
61.8635
61.7569
61.6519
61.5488
61.4476
61.3482
61.2507
61.1553
61.0618
60.9703
60.8808
60.7935
60.7082
60.625
60.544
60.4652
60.3885
60.3142
60.2421
60.1723
60.105
60.04
59.9776
59.9178
59.8605
59.806
59.7543
59.7054
59.6594
59.6165
59.5767
59.54
59.5067
59.4767
59.4502
59.4272
59.4077
59.392
59.38
59.3718
59.3675
59.3672
59.3708
59.3784
59.39
59.4058
59.4256
59.4495
59.4776
59.5097
59.546
59.5863
59.6307
59.6791
59.7316
59.7879
59.8482
59.9122
59.9801
60.0516
60.1268
60.2054
60.2876
60.373
60.4617
60.5535
60.6482
60.7459
60.8463
60.9494
61.0549
61.1627
61.2727
61.3847
61.4986
61.6142
61.7313
61.8497
61.9694
62.09
62.2115
62.3337
62.4563
62.5793
62.7024
62.8254
62.9482
63.0707
63.1926
63.3138
63.4342
63.5536
63.6719
63.7888
63.9044
64.0185
64.131
64.2417
64.3506
64.4576
64.5626
64.6656
64.7664
64.865
64.9615
65.0556
65.1475
65.237
65.3242
65.409
65.4914
65.5715
65.6492
65.7245
65.7975
65.8682
65.9365
66.0025
66.0663
66.1278
66.187
66.244
66.2988
66.3514
66.4018
66.4499
66.4959
66.5396
66.5811
66.6204
66.6575
66.6923
66.7249
66.7553
66.7836
66.8098
66.834
66.8562
66.8766
66.8953
66.9123
66.9279
66.9422
66.9552
66.9671
66.9781
66.9882
66.9975
67.0062
67.0144
67.022
67.0293
67.0361
67.0427
67.049
67.0551
67.0609
67.0666
67.0721
67.0774
67.0826
67.0877
67.0926
67.0974
67.1021
67.1067
67.1112
67.1156
67.1199
67.1241
67.1282
67.1323
67.1362
67.1401
67.1439
67.1476
67.1513
67.1549
67.1584
67.1619
67.1653
67.1687
67.172
67.1756
67.1781
67.1834
67.2037
67.2018
67.1979
67.1919
67.184
67.174
67.162
67.148
67.1319
67.1136
67.0933
67.0708
67.0462
67.0193
66.9901
66.9586
66.9248
66.8886
66.85
66.8089
66.7652
66.719
66.6701
66.6186
66.5644
66.5074
66.4476
66.385
66.3195
66.2512
66.1799
66.1057
66.0285
65.9484
65.8654
65.7795
65.6907
65.599
65.5046
65.4074
65.3076
65.2052
65.1003
64.9931
64.8837
64.7721
64.6587
64.5434
64.4266
64.3082
64.1887
64.068
63.9464
63.8242
63.7014
63.5783
63.4551
63.332
63.209
63.0865
62.9646
62.8433
62.723
62.6036
62.4854
62.3685
62.2529
62.1388
62.0262
61.9153
61.806
61.6986
61.5929
61.4892
61.3873
61.2874
61.1894
61.0934
60.9995
60.9076
60.8177
60.7299
60.6443
60.5607
60.4792
60.4
60.3229
60.2481
60.1755
60.1052
60.0373
59.9718
59.9088
59.8483
59.7904
59.7352
59.6828
59.6332
59.5865
59.5429
59.5023
59.465
59.4309
59.4003
59.373
59.3494
59.3294
59.313
59.3005
59.2918
59.2871
59.2863
59.2896
59.2969
59.3083
59.3239
59.3437
59.3676
59.3957
59.4279
59.4644
59.505
59.5497
59.5985
59.6514
59.7083
59.7692
59.834
59.9026
59.9749
60.051
60.1306
60.2138
60.3003
60.3902
60.4832
60.5793
60.6784
60.7802
60.8848
60.9919
61.1013
61.213
61.3268
61.4425
61.5599
61.6789
61.7993
61.9209
62.0436
62.1671
62.2913
62.4159
62.5409
62.666
62.7911
62.916
63.0404
63.1643
63.2875
63.4098
63.531
63.6511
63.7698
63.8871
64.0029
64.1169
64.2292
64.3395
64.4479
64.5542
64.6584
64.7604
64.8601
64.9576
65.0526
65.1454
65.2357
65.3236
65.409
65.4921
65.5727
65.6508
65.7265
65.7999
65.8708
65.9394
66.0056
66.0695
66.1311
66.1904
66.2474
66.3022
66.3548
66.4051
66.4532
66.4991
66.5428
66.5842
66.6234
66.6604
66.6951
66.7276
66.758
66.7862
66.8123
66.8363
66.8585
66.8788
66.8974
66.9144
66.9299
66.9441
66.9571
66.9689
66.9799
66.9899
66.9992
67.0079
67.016
67.0236
67.0309
67.0377
67.0443
67.0505
67.0566
67.0624
67.068
67.0735
67.0788
67.084
67.089
67.0939
67.0987
67.1034
67.108
67.1124
67.1168
67.121
67.1252
67.1293
67.1332
67.1371
67.141
67.1447
67.1484
67.152
67.1555
67.159
67.1624
67.1658
67.1692
67.1723
67.1759
67.1784
67.1836
67.2037
67.2018
67.1979
67.1921
67.1842
67.1743
67.1624
67.1485
67.1325
67.1145
67.0943
67.072
67.0475
67.0208
66.9918
66.9605
66.9269
66.8908
66.8523
66.8113
66.7678
66.7216
66.6728
66.6213
66.567
66.5099
66.4499
66.3871
66.3213
66.2526
66.1808
66.1061
66.0283
65.9475
65.8636
65.7768
65.6869
65.5941
65.4984
65.3999
65.2986
65.1946
65.0881
64.9791
64.8678
64.7543
64.6388
64.5215
64.4025
64.282
64.1603
64.0374
63.9136
63.7892
63.6642
63.539
63.4137
63.2885
63.1636
63.0392
62.9154
62.7924
62.6704
62.5495
62.4299
62.3116
62.1947
62.0794
61.9658
61.8539
61.7437
61.6355
61.5291
61.4246
61.3221
61.2216
61.1231
61.0267
60.9323
60.8399
60.7496
60.6614
60.5753
60.4914
60.4095
60.3298
60.2522
60.1769
60.1038
60.033
59.9645
59.8984
59.8347
59.7735
59.7149
59.659
59.6058
59.5554
59.508
59.4635
59.4222
59.384
59.3492
59.3177
59.2898
59.2654
59.2447
59.2277
59.2146
59.2054
59.2001
59.1989
59.2018
59.2088
59.22
59.2354
59.255
59.2789
59.307
59.3394
59.376
59.4169
59.462
59.5112
59.5646
59.6221
59.6836
59.7491
59.8185
59.8918
59.9688
60.0495
60.1338
60.2215
60.3127
60.4071
60.5046
60.6052
60.7086
60.8148
60.9236
61.0348
61.1484
61.264
61.3817
61.5011
61.6222
61.7447
61.8684
61.9932
62.1189
62.2453
62.3722
62.4995
62.6268
62.7541
62.8812
63.0078
63.1339
63.2592
63.3835
63.5068
63.6289
63.7495
63.8687
63.9862
64.102
64.2159
64.3279
64.4377
64.5455
64.651
64.7542
64.8551
64.9537
65.0498
65.1434
65.2346
65.3232
65.4094
65.4931
65.5742
65.6529
65.729
65.8027
65.8739
65.9428
66.0092
66.0732
66.1349
66.1942
66.2513
66.3061
66.3586
66.4089
66.457
66.5028
66.5463
66.5877
66.6268
66.6636
66.6982
66.7307
66.7609
66.789
66.815
66.839
66.861
66.8812
66.8998
66.9167
66.9321
66.9462
66.9591
66.9709
66.9818
66.9918
67.0011
67.0097
67.0178
67.0254
67.0326
67.0394
67.0459
67.0522
67.0582
67.064
67.0696
67.0751
67.0803
67.0855
67.0905
67.0954
67.1001
67.1048
67.1093
67.1137
67.118
67.1222
67.1264
67.1304
67.1343
67.1382
67.1419
67.1456
67.1492
67.1528
67.1563
67.1597
67.1631
67.1664
67.1697
67.1728
67.1763
67.1787
67.1838
67.2037
67.2018
67.198
67.1922
67.1844
67.1746
67.1629
67.1491
67.1333
67.1154
67.0954
67.0733
67.049
67.0225
66.9937
66.9627
66.9292
66.8934
66.855
66.8142
66.7708
66.7247
66.6759
66.6244
66.5701
66.5129
66.4528
66.3898
66.3237
66.2546
66.1824
66.1071
66.0286
65.947
65.8623
65.7744
65.6834
65.5894
65.4923
65.3923
65.2894
65.1837
65.0754
64.9645
64.8511
64.7355
64.6179
64.4983
64.3769
64.2541
64.1299
64.0046
63.8784
63.7516
63.6242
63.4967
63.3691
63.2417
63.1146
62.9881
62.8623
62.7375
62.6137
62.4911
62.3699
62.2501
62.132
62.0154
61.9006
61.7877
61.6766
61.5675
61.4603
61.3552
61.252
61.151
61.0519
60.955
60.8601
60.7674
60.6767
60.5881
60.5016
60.4172
60.3349
60.2547
60.1767
60.1008
60.0272
59.9558
59.8866
59.8198
59.7555
59.6936
59.6342
59.5775
59.5234
59.4722
59.4239
59.3785
59.3363
59.2973
59.2616