/*--------------------------------*- C++ -*----------------------------------*\
| =========                 |                                                 |
| \\      /  F ield         | OpenFOAM: The Open Source CFD Toolbox           |
|  \\    /   O peration     | Version:  2306                                  |
|   \\  /    A nd           | Website:  www.openfoam.com                      |
|    \\/     M anipulation  |                                                 |
\*---------------------------------------------------------------------------*/
FoamFile
{
    version     2.0;
    format      ascii;
    arch        "LSB;label=32;scalar=64";
    class       volScalarField;
    location    "5.5";
    object      p;
}
// * * * * * * * * * * * * * * * * * * * * * * * * * * * * * * * * * * * * * //

dimensions      [0 2 -2 0 0 0 0];

internalField   nonuniform List<scalar> 
32768
(
0.263776
0.263642
0.26335
0.26289
0.262263
0.261472
0.260515
0.259392
0.258099
0.256636
0.255001
0.25319
0.251202
0.249035
0.246684
0.244148
0.241424
0.238508
0.235396
0.232086
0.228575
0.224857
0.220931
0.216793
0.212438
0.207864
0.203068
0.198045
0.192795
0.187312
0.181596
0.175643
0.169452
0.163021
0.15635
0.149437
0.142282
0.134887
0.12725
0.119375
0.111264
0.102918
0.0943418
0.0855394
0.0765157
0.0672761
0.057827
0.0481754
0.038329
0.028296
0.0180855
0.00770701
-0.00282925
-0.0135126
-0.024332
-0.0352757
-0.0463319
-0.0574883
-0.0687325
-0.0800517
-0.0914331
-0.102864
-0.114331
-0.125822
-0.137324
-0.148824
-0.160311
-0.171771
-0.183193
-0.194565
-0.205876
-0.217115
-0.228271
-0.239334
-0.250294
-0.261141
-0.271865
-0.282457
-0.292909
-0.303212
-0.313356
-0.323334
-0.333137
-0.342758
-0.352187
-0.361417
-0.370441
-0.379249
-0.387834
-0.396188
-0.404302
-0.412168
-0.419779
-0.427124
-0.434198
-0.440989
-0.447492
-0.453696
-0.459594
-0.465178
-0.470439
-0.47537
-0.479964
-0.484212
-0.488108
-0.491645
-0.494818
-0.49762
-0.500048
-0.502095
-0.50376
-0.505038
-0.505927
-0.506426
-0.506534
-0.506251
-0.505578
-0.504517
-0.503071
-0.501242
-0.499036
-0.496458
-0.493514
-0.490211
-0.486556
-0.482559
-0.478228
-0.473574
-0.468608
-0.463342
-0.457786
-0.451955
-0.445861
-0.439518
-0.43294
-0.426142
-0.419139
-0.411946
-0.404579
-0.397053
-0.389383
-0.381586
-0.373677
-0.365673
-0.357588
-0.349438
-0.341238
-0.333004
-0.324749
-0.316488
-0.308235
-0.300003
-0.291805
-0.283653
-0.275559
-0.267535
-0.25959
-0.251734
-0.243978
-0.236329
-0.228795
-0.221383
-0.214101
-0.206954
-0.199948
-0.193086
-0.186374
-0.179814
-0.173409
-0.167162
-0.161074
-0.155147
-0.149381
-0.143776
-0.138333
-0.133051
-0.127929
-0.122966
-0.11816
-0.113509
-0.109011
-0.104665
-0.100466
-0.0964137
-0.0925038
-0.0887336
-0.0851001
-0.0816
-0.0782299
-0.0749864
-0.0718662
-0.0688655
-0.065981
-0.0632089
-0.0605457
-0.0579876
-0.055531
-0.0531723
-0.0509079
-0.048734
-0.0466471
-0.0446438
-0.0427206
-0.0408742
-0.0391014
-0.0373991
-0.0357644
-0.0341944
-0.0326864
-0.031238
-0.0298466
-0.0285101
-0.027226
-0.0259925
-0.0248075
-0.0236691
-0.0225755
-0.0215248
-0.0205154
-0.0195457
-0.018614
-0.0177189
-0.0168587
-0.016032
-0.0152375
-0.0144737
-0.0137392
-0.0130329
-0.0123533
-0.0116993
-0.0110696
-0.0104631
-0.00987855
-0.0093149
-0.00877102
-0.00824586
-0.00773836
-0.00724752
-0.00677233
-0.00631184
-0.00586508
-0.00543114
-0.0050091
-0.00459807
-0.0041972
-0.00380561
-0.00342246
-0.00304697
-0.00267822
-0.00231565
-0.00195788
-0.00160555
-0.00125448
-0.000911947
-0.00055687
-0.000231305
0.263938
0.263804
0.263513
0.263053
0.262427
0.261636
0.26068
0.259557
0.258266
0.256804
0.255169
0.25336
0.251373
0.249207
0.246858
0.244323
0.2416
0.238685
0.235575
0.232266
0.228755
0.225039
0.221113
0.216975
0.21262
0.208047
0.20325
0.198227
0.192975
0.187491
0.181773
0.175818
0.169624
0.16319
0.156515
0.149597
0.142438
0.135036
0.127394
0.119512
0.111393
0.103039
0.0944547
0.0856431
0.0766097
0.0673599
0.0579
0.0482372
0.0383791
0.0283342
0.0181113
0.00772031
-0.00282871
-0.013525
-0.0243573
-0.0353141
-0.0463832
-0.0575525
-0.0688093
-0.0801409
-0.0915345
-0.102977
-0.114456
-0.125958
-0.137471
-0.148981
-0.160477
-0.171946
-0.183377
-0.194757
-0.206076
-0.217323
-0.228486
-0.239555
-0.250521
-0.261373
-0.272102
-0.2827
-0.293156
-0.303463
-0.313612
-0.323594
-0.333401
-0.343025
-0.352459
-0.361693
-0.37072
-0.379533
-0.388122
-0.39648
-0.404598
-0.412469
-0.420084
-0.427434
-0.434512
-0.441309
-0.447816
-0.454025
-0.459929
-0.465517
-0.470784
-0.47572
-0.480318
-0.484571
-0.488471
-0.492013
-0.49519
-0.497997
-0.500428
-0.502478
-0.504146
-0.505426
-0.506317
-0.506818
-0.506927
-0.506644
-0.505972
-0.50491
-0.503463
-0.501633
-0.499425
-0.496844
-0.493896
-0.490589
-0.48693
-0.482928
-0.478592
-0.473933
-0.468961
-0.463687
-0.458124
-0.452285
-0.446183
-0.439831
-0.433245
-0.426438
-0.419425
-0.412222
-0.404845
-0.397308
-0.389627
-0.381819
-0.373899
-0.365883
-0.357787
-0.349625
-0.341414
-0.333168
-0.324901
-0.316629
-0.308364
-0.300121
-0.291911
-0.283749
-0.275644
-0.267608
-0.259653
-0.251788
-0.244021
-0.236362
-0.228819
-0.221399
-0.214109
-0.206954
-0.199939
-0.193071
-0.186351
-0.179785
-0.173374
-0.167122
-0.161029
-0.155097
-0.149326
-0.143718
-0.138271
-0.132986
-0.127861
-0.122895
-0.118087
-0.113434
-0.108935
-0.104587
-0.100388
-0.0963342
-0.0924238
-0.0886534
-0.0850198
-0.0815197
-0.0781499
-0.0749069
-0.0717872
-0.0687873
-0.0659035
-0.0631324
-0.0604702
-0.0579133
-0.055458
-0.0531006
-0.0508375
-0.048665
-0.0465796
-0.0445778
-0.0426562
-0.0408114
-0.0390402
-0.0373395
-0.0357064
-0.0341381
-0.0326318
-0.031185
-0.0297953
-0.0284603
-0.0271779
-0.025946
-0.0247626
-0.0236258
-0.0225337
-0.0214846
-0.0204767
-0.0195085
-0.0185783
-0.0176845
-0.0168257
-0.0160005
-0.0152073
-0.0144448
-0.0137116
-0.0130065
-0.0123282
-0.0116753
-0.0110468
-0.0104414
-0.009858
-0.00929543
-0.0087526
-0.00822847
-0.00772198
-0.00723212
-0.0067579
-0.00629834
-0.0058525
-0.00541945
-0.0049983
-0.00458814
-0.00418811
-0.00379736
-0.00341503
-0.00304035
-0.00267239
-0.00231061
-0.00195361
-0.00160207
-0.00125166
-0.000910045
-0.000555182
-0.000231623
0.264263
0.264129
0.263838
0.263379
0.262754
0.261964
0.26101
0.259889
0.258599
0.257139
0.255507
0.2537
0.251716
0.249552
0.247206
0.244674
0.241953
0.23904
0.235932
0.232626
0.229117
0.225402
0.221478
0.21734
0.212986
0.208412
0.203615
0.19859
0.193336
0.18785
0.182128
0.176168
0.169969
0.163528
0.156845
0.149919
0.14275
0.135337
0.127682
0.119787
0.111653
0.103283
0.0946812
0.0858513
0.0767983
0.0675279
0.0580465
0.0483612
0.0384798
0.0284107
0.0181632
0.00774694
-0.00282772
-0.0135499
-0.0244083
-0.0353911
-0.0464863
-0.0576813
-0.0689635
-0.0803201
-0.0917382
-0.103205
-0.114706
-0.126231
-0.137765
-0.149296
-0.160811
-0.172299
-0.183747
-0.195144
-0.206478
-0.217739
-0.228916
-0.239998
-0.250975
-0.261839
-0.272579
-0.283186
-0.293652
-0.303967
-0.314124
-0.324114
-0.33393
-0.343562
-0.353003
-0.362245
-0.37128
-0.3801
-0.388698
-0.397064
-0.405191
-0.413071
-0.420695
-0.428054
-0.435142
-0.441949
-0.448466
-0.454685
-0.460599
-0.466198
-0.471474
-0.47642
-0.481028
-0.485291
-0.489201
-0.492751
-0.495937
-0.498751
-0.501189
-0.503246
-0.504919
-0.506204
-0.5071
-0.507603
-0.507715
-0.507433
-0.506761
-0.505698
-0.504249
-0.502416
-0.500203
-0.497617
-0.494664
-0.491349
-0.487682
-0.48367
-0.479323
-0.474652
-0.469667
-0.46438
-0.458803
-0.452948
-0.44683
-0.440461
-0.433856
-0.427031
-0.419999
-0.412776
-0.405377
-0.397819
-0.390117
-0.382287
-0.374345
-0.366306
-0.358186
-0.350001
-0.341767
-0.333497
-0.325207
-0.316911
-0.308623
-0.300357
-0.292125
-0.28394
-0.275813
-0.267757
-0.25978
-0.251894
-0.244108
-0.23643
-0.228869
-0.221431
-0.214124
-0.206953
-0.199923
-0.19304
-0.186307
-0.179727
-0.173305
-0.167041
-0.160937
-0.154996
-0.149217
-0.143601
-0.138147
-0.132855
-0.127724
-0.122753
-0.117941
-0.113284
-0.108782
-0.104431
-0.10023
-0.096175
-0.0922636
-0.0884925
-0.0848587
-0.0813588
-0.0779895
-0.0747474
-0.0716289
-0.0686304
-0.0657484
-0.0629792
-0.0603191
-0.0577645
-0.0553116
-0.0529568
-0.0506964
-0.0485268
-0.0464444
-0.0444456
-0.0425271
-0.0406854
-0.0389175
-0.0372201
-0.0355903
-0.0340252
-0.0325222
-0.0310788
-0.0296923
-0.0283607
-0.0270816
-0.0258529
-0.0246727
-0.0235391
-0.0224501
-0.0214041
-0.0203992
-0.019434
-0.0185067
-0.0176158
-0.0167598
-0.0159373
-0.0151468
-0.0143869
-0.0136563
-0.0129537
-0.0122778
-0.0116274
-0.0110012
-0.0103981
-0.00981686
-0.00925645
-0.00871574
-0.00819367
-0.0076892
-0.0072013
-0.006729
-0.00627132
-0.00582732
-0.00539608
-0.00497668
-0.00456825
-0.00416992
-0.00378084
-0.00340015
-0.00302709
-0.00266072
-0.00230052
-0.00194507
-0.00159507
-0.00124617
-0.000906098
-0.000552751
-0.000230916
0.26475
0.264616
0.264326
0.263868
0.263244
0.262457
0.261504
0.260386
0.259099
0.257643
0.256014
0.25421
0.25223
0.25007
0.247727
0.245199
0.242482
0.239573
0.236469
0.233165
0.229659
0.225947
0.222025
0.217889
0.213535
0.208961
0.204163
0.199137
0.193879
0.188388
0.182661
0.176694
0.170487
0.164036
0.157342
0.150403
0.143218
0.135789
0.128116
0.1202
0.112043
0.10365
0.0950219
0.0861643
0.0770819
0.0677805
0.0582666
0.0485474
0.0386308
0.0285255
0.0182408
0.00778648
-0.0028268
-0.013588
-0.0244857
-0.0355078
-0.0466421
-0.0578759
-0.0691965
-0.0805907
-0.0920455
-0.103548
-0.115084
-0.126642
-0.138208
-0.149769
-0.161314
-0.17283
-0.184304
-0.195725
-0.207083
-0.218366
-0.229562
-0.240664
-0.251659
-0.262539
-0.273294
-0.283916
-0.294396
-0.304725
-0.314894
-0.324897
-0.334724
-0.344367
-0.35382
-0.363074
-0.372121
-0.380953
-0.389562
-0.397941
-0.406081
-0.413974
-0.421612
-0.428986
-0.436088
-0.442909
-0.449441
-0.455676
-0.461605
-0.467219
-0.472511
-0.477472
-0.482095
-0.486372
-0.490296
-0.49386
-0.497058
-0.499884
-0.502333
-0.5044
-0.506082
-0.507375
-0.508276
-0.508784
-0.508899
-0.508619
-0.507947
-0.506883
-0.505431
-0.503593
-0.501374
-0.49878
-0.495817
-0.492491
-0.488811
-0.484785
-0.480422
-0.475734
-0.47073
-0.465422
-0.459823
-0.453945
-0.447802
-0.441407
-0.434776
-0.427922
-0.420861
-0.413608
-0.406178
-0.398588
-0.390854
-0.38299
-0.375014
-0.366941
-0.358787
-0.350567
-0.342297
-0.333992
-0.325667
-0.317336
-0.309013
-0.300713
-0.292446
-0.284228
-0.276068
-0.267979
-0.259971
-0.252055
-0.244239
-0.236532
-0.228943
-0.221479
-0.214146
-0.20695
-0.199898
-0.192993
-0.186239
-0.179641
-0.1732
-0.166919
-0.1608
-0.154844
-0.149052
-0.143424
-0.137959
-0.132658
-0.127519
-0.12254
-0.117721
-0.113059
-0.108552
-0.104197
-0.0999931
-0.0959358
-0.0920228
-0.0882508
-0.0846167
-0.0811172
-0.0777487
-0.0745079
-0.0713912
-0.0683949
-0.0655154
-0.0627491
-0.0600922
-0.057541
-0.0550919
-0.052741
-0.0504848
-0.0483195
-0.0462415
-0.0442473
-0.0423334
-0.0404966
-0.0387334
-0.0370409
-0.0354161
-0.033856
-0.032358
-0.0309195
-0.0295381
-0.0282113
-0.0269371
-0.0257134
-0.024538
-0.0234091
-0.0223248
-0.0212834
-0.0202831
-0.0193223
-0.0183994
-0.0175128
-0.016661
-0.0158426
-0.0150561
-0.0143002
-0.0135734
-0.0128746
-0.0122024
-0.0115555
-0.0109328
-0.0103331
-0.00975524
-0.00919807
-0.00866053
-0.00814155
-0.00764009
-0.00715514
-0.00668572
-0.00623086
-0.00578961
-0.00536106
-0.00494431
-0.00453847
-0.00414268
-0.0037561
-0.00337787
-0.00300723
-0.00264325
-0.0022854
-0.00193229
-0.0015846
-0.001238
-0.000900201
-0.00054918
-0.000229546
0.265398
0.265265
0.264976
0.26452
0.263898
0.263113
0.262163
0.261048
0.259766
0.258313
0.256688
0.25489
0.252914
0.25076
0.248422
0.245899
0.243188
0.240284
0.237184
0.233885
0.230383
0.226674
0.222755
0.218621
0.214269
0.209695
0.204895
0.199866
0.194605
0.189109
0.183374
0.177398
0.17118
0.164716
0.158006
0.151049
0.143845
0.136394
0.128695
0.120752
0.112566
0.10414
0.0954778
0.0865831
0.0774614
0.0681185
0.058561
0.0487963
0.0388325
0.0286785
0.0183438
0.00783849
-0.00282662
-0.0136402
-0.0245906
-0.0356654
-0.0468522
-0.0581381
-0.06951
-0.0809546
-0.0924586
-0.104009
-0.115591
-0.127194
-0.138803
-0.150405
-0.161989
-0.173541
-0.185051
-0.196505
-0.207893
-0.219205
-0.230429
-0.241555
-0.252574
-0.263476
-0.274252
-0.284893
-0.295391
-0.305737
-0.315923
-0.325942
-0.335784
-0.345444
-0.354912
-0.364181
-0.373243
-0.382091
-0.390717
-0.399112
-0.40727
-0.41518
-0.422836
-0.430229
-0.43735
-0.444191
-0.450744
-0.456999
-0.462949
-0.468584
-0.473896
-0.478878
-0.483521
-0.487818
-0.49176
-0.495343
-0.498558
-0.5014
-0.503863
-0.505944
-0.507637
-0.50894
-0.509849
-0.510364
-0.510483
-0.510206
-0.509534
-0.508468
-0.507012
-0.505168
-0.502941
-0.500336
-0.49736
-0.494019
-0.490322
-0.486277
-0.481893
-0.477181
-0.472151
-0.466816
-0.461188
-0.455279
-0.449103
-0.442674
-0.436007
-0.429115
-0.422015
-0.414722
-0.407251
-0.399618
-0.39184
-0.383932
-0.37591
-0.367791
-0.35959
-0.351324
-0.343007
-0.334655
-0.326282
-0.317905
-0.309535
-0.301188
-0.292876
-0.284613
-0.276409
-0.268276
-0.260226
-0.252269
-0.244413
-0.236668
-0.229042
-0.221542
-0.214175
-0.206947
-0.199864
-0.19293
-0.186149
-0.179524
-0.173059
-0.166756
-0.160617
-0.154642
-0.148832
-0.143188
-0.137709
-0.132394
-0.127244
-0.122255
-0.117427
-0.112757
-0.108244
-0.103885
-0.0996762
-0.095616
-0.0917009
-0.0879278
-0.0842934
-0.0807943
-0.077427
-0.074188
-0.0710736
-0.0680803
-0.0652043
-0.0624419
-0.0597893
-0.0572428
-0.0547986
-0.0524531
-0.0502024
-0.0480428
-0.0459708
-0.0439827
-0.0420751
-0.0402446
-0.038488
-0.0368021
-0.0351838
-0.0336304
-0.032139
-0.0307072
-0.0293324
-0.0280123
-0.0267446
-0.0255274
-0.0243584
-0.0232359
-0.0221578
-0.0211226
-0.0201284
-0.0191735
-0.0182564
-0.0173756
-0.0165294
-0.0157165
-0.0149354
-0.0141847
-0.0134631
-0.0127693
-0.0121019
-0.0114599
-0.0108418
-0.0102466
-0.0096732
-0.00912035
-0.00858703
-0.00807217
-0.00757472
-0.0070937
-0.00662811
-0.006177
-0.00573942
-0.00531446
-0.00490122
-0.00449884
-0.00410643
-0.00372317
-0.00334822
-0.0029808
-0.00262
-0.00226529
-0.00191528
-0.00157067
-0.00122713
-0.000892347
-0.000544411
-0.000227677
0.266208
0.266076
0.265787
0.265333
0.264714
0.263932
0.262986
0.261876
0.260598
0.25915
0.257532
0.255739
0.25377
0.251622
0.249291
0.246775
0.24407
0.241173
0.238079
0.234786
0.231289
0.227585
0.223669
0.219538
0.215187
0.210613
0.205812
0.200781
0.195515
0.190012
0.184268
0.178281
0.172049
0.165569
0.15884
0.151862
0.144632
0.137153
0.129424
0.121446
0.113223
0.104756
0.0960504
0.0871091
0.0779378
0.0685426
0.0589302
0.0491082
0.039085
0.0288697
0.018472
0.00790235
-0.00282809
-0.0137077
-0.0247245
-0.0358658
-0.0471187
-0.0584701
-0.0699066
-0.0814146
-0.0929805
-0.104591
-0.116232
-0.12789
-0.139553
-0.151207
-0.162839
-0.174438
-0.185991
-0.197486
-0.208913
-0.22026
-0.231518
-0.242675
-0.253723
-0.264653
-0.275454
-0.286119
-0.296639
-0.307007
-0.317214
-0.327252
-0.337114
-0.346792
-0.356279
-0.365567
-0.374649
-0.383517
-0.392163
-0.400579
-0.408758
-0.41669
-0.424369
-0.431786
-0.438931
-0.445798
-0.452375
-0.458657
-0.464632
-0.470293
-0.475632
-0.48064
-0.485308
-0.48963
-0.493596
-0.497202
-0.500438
-0.503301
-0.505783
-0.50788
-0.509588
-0.510904
-0.511824
-0.512347
-0.512472
-0.512198
-0.511526
-0.510458
-0.508997
-0.507146
-0.504908
-0.50229
-0.499298
-0.495939
-0.49222
-0.488151
-0.48374
-0.478998
-0.473937
-0.468568
-0.462903
-0.456955
-0.450738
-0.444266
-0.437553
-0.430614
-0.423465
-0.416121
-0.408598
-0.400912
-0.393079
-0.385115
-0.377036
-0.368859
-0.3606
-0.352275
-0.343898
-0.335487
-0.327056
-0.318619
-0.310191
-0.301785
-0.293416
-0.285096
-0.276836
-0.26865
-0.260547
-0.252537
-0.244632
-0.236838
-0.229166
-0.221621
-0.214211
-0.206943
-0.19982
-0.19285
-0.186034
-0.179377
-0.172882
-0.166551
-0.160385
-0.154386
-0.148555
-0.14289
-0.137393
-0.132063
-0.126898
-0.121897
-0.117058
-0.112379
-0.107858
-0.103492
-0.0992787
-0.0952147
-0.0912972
-0.0875227
-0.0838879
-0.0803895
-0.0770237
-0.073787
-0.0706758
-0.0676862
-0.0648146
-0.0620571
-0.05941
-0.0568694
-0.0544316
-0.0520927
-0.0498489
-0.0476966
-0.0456321
-0.0436517
-0.0417521
-0.0399296
-0.0381811
-0.0365034
-0.0348934
-0.0333484
-0.0318654
-0.0304419
-0.0290754
-0.0277636
-0.0265042
-0.025295
-0.0241341
-0.0230195
-0.0219493
-0.0209218
-0.0199352
-0.0189878
-0.018078
-0.0172043
-0.0163652
-0.0155591
-0.0147847
-0.0140406
-0.0133254
-0.0126378
-0.0119766
-0.0113405
-0.0107283
-0.0101388
-0.00957085
-0.0090234
-0.00849534
-0.00798562
-0.00749319
-0.00701707
-0.00655626
-0.00610983
-0.00567682
-0.00525634
-0.00484749
-0.00444941
-0.00406123
-0.00368212
-0.00331125
-0.00294784
-0.00259101
-0.00224022
-0.00189408
-0.0015533
-0.00121358
-0.000882548
-0.000538462
-0.000225339
0.267178
0.267046
0.26676
0.266308
0.265691
0.264913
0.263973
0.262867
0.261595
0.260155
0.258543
0.256758
0.254797
0.252657
0.250334
0.247826
0.24513
0.24224
0.239155
0.235869
0.232378
0.22868
0.224769
0.220641
0.216292
0.211719
0.206917
0.201882
0.196611
0.1911
0.185346
0.179346
0.173097
0.166598
0.159846
0.152841
0.145582
0.138069
0.130303
0.122284
0.114016
0.1055
0.0967416
0.0877439
0.0785128
0.0690542
0.0593753
0.049484
0.0393887
0.029099
0.0186249
0.00797729
-0.00283237
-0.0137921
-0.0248893
-0.0361111
-0.0474442
-0.0588749
-0.0703896
-0.0819742
-0.093615
-0.105298
-0.117009
-0.128735
-0.140463
-0.152178
-0.16387
-0.175524
-0.187129
-0.198673
-0.210146
-0.221536
-0.232834
-0.244028
-0.255111
-0.266072
-0.276904
-0.287597
-0.298144
-0.308537
-0.318768
-0.328829
-0.338714
-0.348415
-0.357924
-0.367235
-0.376339
-0.385231
-0.393901
-0.402342
-0.410546
-0.418506
-0.426213
-0.433658
-0.440833
-0.447729
-0.454338
-0.460651
-0.466658
-0.472351
-0.477722
-0.482761
-0.48746
-0.491812
-0.495808
-0.499441
-0.502705
-0.505592
-0.508097
-0.510215
-0.511941
-0.513272
-0.514206
-0.514739
-0.51487
-0.514601
-0.51393
-0.51286
-0.511393
-0.509532
-0.507282
-0.504649
-0.501637
-0.498255
-0.494511
-0.490412
-0.485969
-0.481192
-0.476093
-0.470682
-0.464973
-0.458978
-0.452711
-0.446187
-0.439419
-0.432424
-0.425216
-0.417811
-0.410225
-0.402474
-0.394574
-0.386543
-0.378396
-0.370149
-0.361819
-0.353423
-0.344975
-0.336492
-0.327989
-0.31948
-0.310981
-0.302506
-0.294067
-0.285678
-0.277352
-0.2691
-0.260932
-0.252861
-0.244895
-0.237043
-0.229314
-0.221715
-0.214254
-0.206936
-0.199767
-0.192752
-0.185895
-0.179199
-0.172667
-0.166302
-0.160105
-0.154077
-0.148219
-0.142531
-0.137013
-0.131663
-0.126481
-0.121464
-0.116612
-0.111922
-0.107392
-0.103019
-0.0987994
-0.0947311
-0.0908107
-0.0870347
-0.0833996
-0.079902
-0.0765382
-0.0733045
-0.070197
-0.0672121
-0.0643458
-0.0615944
-0.0589539
-0.0564205
-0.0539903
-0.0516595
-0.0494242
-0.0472807
-0.0452253
-0.0432542
-0.0413641
-0.0395513
-0.0378127
-0.0361449
-0.034545
-0.0330099
-0.031537
-0.0301236
-0.0287671
-0.0274653
-0.0262158
-0.0250164
-0.0238652
-0.0227602
-0.0216994
-0.0206811
-0.0197036
-0.0187652
-0.0178642
-0.0169991
-0.0161684
-0.0153706
-0.0146042
-0.013868
-0.0131605
-0.0124804
-0.0118265
-0.0111976
-0.0105923
-0.0100096
-0.00944832
-0.00890735
-0.0083856
-0.00788203
-0.00739561
-0.00692535
-0.00647028
-0.00602944
-0.00560192
-0.0051868
-0.0047832
-0.00439026
-0.00400714
-0.003633
-0.00326701
-0.00290842
-0.00255633
-0.00221022
-0.00186872
-0.00153252
-0.00119737
-0.000870824
-0.000531346
-0.000222538
0.268308
0.268177
0.267892
0.267443
0.26683
0.266057
0.265122
0.264023
0.262758
0.261325
0.259722
0.257945
0.255994
0.253863
0.251551
0.249053
0.246366
0.243487
0.24041
0.237133
0.233651
0.229959
0.226054
0.221931
0.217585
0.213013
0.20821
0.203172
0.197895
0.192375
0.186609
0.180594
0.174327
0.167805
0.161027
0.153992
0.146698
0.139146
0.131336
0.123269
0.114948
0.106375
0.0975538
0.0884897
0.0791879
0.0696548
0.0598975
0.0499242
0.0397438
0.0293663
0.018802
0.00806231
-0.00284091
-0.0138951
-0.0250874
-0.0364042
-0.0478318
-0.0593561
-0.0709629
-0.0826379
-0.0943667
-0.106135
-0.117929
-0.129734
-0.141538
-0.153326
-0.165085
-0.176804
-0.18847
-0.200072
-0.211598
-0.223038
-0.234382
-0.245619
-0.256742
-0.26774
-0.278606
-0.289332
-0.299909
-0.31033
-0.320589
-0.330677
-0.340587
-0.350314
-0.359849
-0.369186
-0.378317
-0.387235
-0.395933
-0.404404
-0.412638
-0.420629
-0.428368
-0.435847
-0.443057
-0.449989
-0.456634
-0.462984
-0.469029
-0.47476
-0.480169
-0.485245
-0.489982
-0.494369
-0.4984
-0.502067
-0.505362
-0.508279
-0.510811
-0.512954
-0.514702
-0.516052
-0.517001
-0.517546
-0.517686
-0.517422
-0.516752
-0.515679
-0.514205
-0.512334
-0.51007
-0.507418
-0.504384
-0.500976
-0.497201
-0.493068
-0.488588
-0.48377
-0.478625
-0.473166
-0.467405
-0.461355
-0.45503
-0.448444
-0.441613
-0.43455
-0.427273
-0.419796
-0.412136
-0.404309
-0.396332
-0.388221
-0.379993
-0.371665
-0.363252
-0.354772
-0.34624
-0.337673
-0.329085
-0.320493
-0.31191
-0.303352
-0.294832
-0.286362
-0.277957
-0.269627
-0.261385
-0.25324
-0.245202
-0.237282
-0.229487
-0.221825
-0.214303
-0.206927
-0.199703
-0.192636
-0.18573
-0.178988
-0.172414
-0.166009
-0.159775
-0.153714
-0.147825
-0.142109
-0.136565
-0.131192
-0.12599
-0.120956
-0.116089
-0.111386
-0.106845
-0.102463
-0.0982373
-0.0941641
-0.0902404
-0.0864627
-0.0828275
-0.079331
-0.0759696
-0.0727394
-0.0696365
-0.0666572
-0.0637973
-0.061053
-0.0584204
-0.0558956
-0.0534744
-0.0511532
-0.0489279
-0.0467948
-0.0447501
-0.04279
-0.0409111
-0.0391098
-0.0373827
-0.0357266
-0.0341384
-0.0326152
-0.031154
-0.0297524
-0.0284077
-0.0271175
-0.0258796
-0.0246917
-0.0235518
-0.0224579
-0.0214082
-0.0204008
-0.0194339
-0.0185059
-0.0176152
-0.0167602
-0.0159393
-0.0151511
-0.0143942
-0.0136671
-0.0129686
-0.0122973
-0.0116519
-0.0110313
-0.0104341
-0.00985935
-0.00930579
-0.00877235
-0.00825795
-0.00776154
-0.00728212
-0.00681869
-0.00637029
-0.00593597
-0.00551482
-0.00510594
-0.00470845
-0.0043215
-0.00394425
-0.00357589
-0.00321558
-0.00286258
-0.00251601
-0.00217534
-0.00183924
-0.00150836
-0.00117853
-0.000857194
-0.000523072
-0.000219279
0.269596
0.269466
0.269183
0.268737
0.268129
0.267361
0.266432
0.265341
0.264084
0.262661
0.261067
0.259302
0.257361
0.255242
0.252941
0.250455
0.24778
0.244912
0.241847
0.23858
0.235108
0.231425
0.227527
0.22341
0.219068
0.214497
0.209694
0.204652
0.199369
0.19384
0.188061
0.182029
0.175741
0.169194
0.162387
0.155316
0.147983
0.140386
0.132525
0.124403
0.116021
0.107382
0.0984897
0.089349
0.0799656
0.070346
0.0604979
0.0504298
0.0401509
0.0296715
0.0190027
0.00815625
-0.00285541
-0.0140192
-0.0253216
-0.0367484
-0.0482855
-0.059918
-0.0716314
-0.0834107
-0.0952412
-0.107108
-0.118997
-0.130894
-0.142784
-0.154655
-0.166494
-0.178286
-0.190022
-0.201689
-0.213275
-0.224771
-0.236167
-0.247453
-0.25862
-0.26966
-0.280565
-0.291326
-0.301937
-0.312391
-0.32268
-0.332798
-0.342737
-0.352492
-0.362056
-0.371422
-0.380583
-0.389532
-0.398262
-0.406765
-0.415035
-0.423062
-0.430838
-0.438356
-0.445606
-0.452579
-0.459267
-0.46566
-0.471749
-0.477524
-0.482977
-0.488097
-0.492877
-0.497307
-0.501379
-0.505084
-0.508416
-0.511368
-0.513932
-0.516104
-0.517878
-0.51925
-0.520217
-0.520777
-0.520928
-0.520669
-0.520001
-0.518925
-0.517444
-0.515561
-0.51328
-0.510607
-0.507548
-0.504109
-0.5003
-0.496128
-0.491604
-0.486738
-0.481542
-0.476027
-0.470206
-0.464093
-0.457701
-0.451045
-0.44414
-0.437001
-0.429643
-0.422084
-0.414339
-0.406425
-0.398358
-0.390156
-0.381834
-0.373411
-0.364903
-0.356327
-0.347698
-0.339033
-0.330348
-0.321659
-0.31298
-0.304327
-0.295712
-0.28715
-0.278653
-0.270234
-0.261904
-0.253675
-0.245555
-0.237556
-0.229684
-0.221949
-0.214357
-0.206915
-0.199628
-0.192501
-0.185538
-0.178744
-0.172121
-0.16567
-0.159394
-0.153294
-0.147369
-0.141621
-0.136048
-0.13065
-0.125425
-0.120371
-0.115487
-0.110769
-0.106216
-0.101824
-0.0975908
-0.0935122
-0.0895849
-0.0858055
-0.0821703
-0.0786753
-0.0753169
-0.0720909
-0.0689935
-0.0660207
-0.0631683
-0.0604325
-0.0578091
-0.0552941
-0.0528835
-0.0505734
-0.0483597
-0.0462386
-0.0442062
-0.0422589
-0.0403929
-0.0386047
-0.036891
-0.0352483
-0.0336737
-0.032164
-0.0307165
-0.0293284
-0.0279972
-0.0267204
-0.0254957
-0.024321
-0.0231941
-0.0221131
-0.0210759
-0.0200809
-0.0191263
-0.0182103
-0.0173313
-0.0164877
-0.0156781
-0.0149009
-0.0141547
-0.0134381
-0.0127498
-0.0120885
-0.0114529
-0.0108418
-0.0102539
-0.00968819
-0.00914344
-0.00861859
-0.00811257
-0.00762434
-0.00715289
-0.00669724
-0.00625644
-0.00582955
-0.00541566
-0.00501388
-0.00462335
-0.00424323
-0.00387267
-0.00351088
-0.00315704
-0.00281041
-0.00247012
-0.00213565
-0.00180568
-0.00148087
-0.00115709
-0.000841681
-0.000513655
-0.000215566
0.271042
0.270913
0.270633
0.27019
0.269587
0.268826
0.267904
0.266821
0.265574
0.264161
0.262579
0.260826
0.258898
0.256793
0.254506
0.252033
0.249372
0.246518
0.243466
0.240211
0.23675
0.233078
0.229189
0.225079
0.220742
0.216175
0.211371
0.206327
0.201037
0.195498
0.189705
0.183655
0.177344
0.170769
0.163928
0.156819
0.149441
0.141793
0.133876
0.125691
0.11724
0.108526
0.0995525
0.0903245
0.0808481
0.0711301
0.0611783
0.0510018
0.0406103
0.0300146
0.0192263
0.00825773
-0.00287793
-0.014167
-0.0255952
-0.0371478
-0.0488097
-0.0605659
-0.0724007
-0.0842989
-0.0962451
-0.108224
-0.120221
-0.132221
-0.14421
-0.156175
-0.168102
-0.179978
-0.191791
-0.203531
-0.215185
-0.226744
-0.238198
-0.249537
-0.260754
-0.271839
-0.282786
-0.293587
-0.304235
-0.314723
-0.325046
-0.335196
-0.345167
-0.354953
-0.364549
-0.373947
-0.383141
-0.392124
-0.400889
-0.40943
-0.417738
-0.425805
-0.433624
-0.441186
-0.448482
-0.455503
-0.462239
-0.468682
-0.474821
-0.480647
-0.486151
-0.491322
-0.496151
-0.50063
-0.504749
-0.5085
-0.511875
-0.514866
-0.517468
-0.519673
-0.521477
-0.522875
-0.523864
-0.524441
-0.524604
-0.524352
-0.523686
-0.522608
-0.521119
-0.519223
-0.516923
-0.514226
-0.511138
-0.507665
-0.503817
-0.499601
-0.495028
-0.490108
-0.484853
-0.479275
-0.473387
-0.467202
-0.460734
-0.453998
-0.447009
-0.439783
-0.432335
-0.424682
-0.416841
-0.408827
-0.400659
-0.392353
-0.383926
-0.375395
-0.366779
-0.358092
-0.349353
-0.340578
-0.331783
-0.322983
-0.314195
-0.305432
-0.29671
-0.288043
-0.279442
-0.270922
-0.262493
-0.254167
-0.245954
-0.237864
-0.229906
-0.222088
-0.214416
-0.206898
-0.199539
-0.192345
-0.185319
-0.178465
-0.171785
-0.165283
-0.158959
-0.152815
-0.146851
-0.141066
-0.135461
-0.130034
-0.124783
-0.119707
-0.114803
-0.11007
-0.105503
-0.1011
-0.0968585
-0.0927739
-0.0888429
-0.0850618
-0.0814268
-0.0779338
-0.0745789
-0.071358
-0.068267
-0.0653017
-0.0624581
-0.0597319
-0.0571191
-0.0546155
-0.052217
-0.0499195
-0.0477191
-0.0456117
-0.0435935
-0.0416606
-0.0398093
-0.0380361
-0.0363375
-0.0347101
-0.0331508
-0.0316565
-0.0302244
-0.0288516
-0.0275357
-0.026274
-0.0250644
-0.0239045
-0.0227923
-0.0217257
-0.0207028
-0.0197218
-0.0187809
-0.0178784
-0.0170126
-0.016182
-0.015385
-0.0146202
-0.0138861
-0.0131813
-0.0125046
-0.0118545
-0.0112298
-0.0106294
-0.0100519
-0.00949634
-0.00896149
-0.00844629
-0.00794967
-0.00747061
-0.0070081
-0.00656119
-0.0061289
-0.00571034
-0.00530459
-0.00491078
-0.00452805
-0.00415557
-0.00379251
-0.00343809
-0.00309149
-0.00275199
-0.00241874
-0.00209121
-0.00176811
-0.00145009
-0.00113307
-0.000824309
-0.00050311
-0.000211405
0.272644
0.272516
0.272239
0.271801
0.271203
0.270449
0.269536
0.268463
0.267227
0.265826
0.264257
0.262518
0.260605
0.258514
0.256243
0.253787
0.251142
0.248303
0.245267
0.242027
0.23858
0.23492
0.231042
0.22694
0.22261
0.218047
0.213244
0.208198
0.202902
0.197353
0.191545
0.185475
0.179139
0.172534
0.165656
0.158504
0.151077
0.143373
0.135393
0.127138
0.11861
0.109811
0.100746
0.0914198
0.0818385
0.0720093
0.0619406
0.0516416
0.0411227
0.0303954
0.0194718
0.00836511
-0.00291086
-0.0143416
-0.0259121
-0.0376068
-0.04941
-0.0613055
-0.0732774
-0.0853095
-0.0973858
-0.109491
-0.121609
-0.133725
-0.145824
-0.157893
-0.169919
-0.181887
-0.193787
-0.205607
-0.217336
-0.228963
-0.240481
-0.251878
-0.263149
-0.274284
-0.285276
-0.296119
-0.306807
-0.317333
-0.32769
-0.337875
-0.34788
-0.3577
-0.367329
-0.376762
-0.385992
-0.395013
-0.403817
-0.412399
-0.42075
-0.428863
-0.43673
-0.444341
-0.451689
-0.458763
-0.465554
-0.472053
-0.47825
-0.484134
-0.489696
-0.494925
-0.499811
-0.504346
-0.508519
-0.512322
-0.515746
-0.518783
-0.521427
-0.523671
-0.52551
-0.526937
-0.527951
-0.528547
-0.528725
-0.528482
-0.527819
-0.526738
-0.52524
-0.52333
-0.52101
-0.518286
-0.515166
-0.511655
-0.507763
-0.503498
-0.49887
-0.49389
-0.488569
-0.482921
-0.476957
-0.470691
-0.464139
-0.457313
-0.450231
-0.442907
-0.435358
-0.4276
-0.41965
-0.411525
-0.403243
-0.39482
-0.386274
-0.377623
-0.368885
-0.360075
-0.351212
-0.342313
-0.333393
-0.32447
-0.315558
-0.306673
-0.29783
-0.289044
-0.280327
-0.271692
-0.263152
-0.254717
-0.2464
-0.238209
-0.230153
-0.222241
-0.21448
-0.206877
-0.199438
-0.192167
-0.185069
-0.178148
-0.171407
-0.164847
-0.15847
-0.152277
-0.146268
-0.140443
-0.134801
-0.129342
-0.124062
-0.118962
-0.114037
-0.109285
-0.104704
-0.100289
-0.0960384
-0.0919475
-0.0880126
-0.08423
-0.0805955
-0.077105
-0.0737544
-0.0705394
-0.0674558
-0.0644993
-0.0616656
-0.0589506
-0.0563498
-0.0538591
-0.0514743
-0.0491912
-0.0470057
-0.0449138
-0.0429115
-0.0409949
-0.0391602
-0.0374038
-0.0357222
-0.034112
-0.0325698
-0.0310928
-0.0296778
-0.0283222
-0.0270233
-0.0257786
-0.0245857
-0.0234424
-0.0223466
-0.0212961
-0.0202891
-0.0193237
-0.0183981
-0.0175105
-0.0166595
-0.0158433
-0.0150604
-0.0143093
-0.0135886
-0.012897
-0.012233
-0.0115954
-0.0109829
-0.0103943
-0.00982841
-0.00928408
-0.0087602
-0.00825568
-0.00776948
-0.00730057
-0.00684798
-0.00641073
-0.00598788
-0.00557853
-0.00518179
-0.00479679
-0.00442269
-0.00405867
-0.0037039
-0.00335763
-0.00301904
-0.00268743
-0.00236194
-0.00204209
-0.00172658
-0.00141606
-0.00110653
-0.000805108
-0.000491453
-0.000206802
0.2744
0.274274
0.274
0.273567
0.272976
0.272229
0.271326
0.270264
0.269041
0.267654
0.2661
0.264377
0.26248
0.260408
0.258154
0.255717
0.25309
0.25027
0.247251
0.244028
0.240597
0.236952
0.233087
0.228996
0.224675
0.220117
0.215317
0.210269
0.204968
0.199408
0.193585
0.187495
0.181132
0.174494
0.167576
0.160378
0.152896
0.145131
0.137081
0.128748
0.120134
0.111241
0.102074
0.0926386
0.0829401
0.0729866
0.0627867
0.0523504
0.0416887
0.0308137
0.0197383
0.00847651
-0.00295697
-0.0145468