/*--------------------------------*- C++ -*----------------------------------*\
| =========                 |                                                 |
| \\      /  F ield         | OpenFOAM: The Open Source CFD Toolbox           |
|  \\    /   O peration     | Version:  2306                                  |
|   \\  /    A nd           | Website:  www.openfoam.com                      |
|    \\/     M anipulation  |                                                 |
\*---------------------------------------------------------------------------*/
FoamFile
{
    version     2.0;
    format      ascii;
    arch        "LSB;label=32;scalar=64";
    class       surfaceScalarField;
    location    "5.5";
    object      phi;
}
// * * * * * * * * * * * * * * * * * * * * * * * * * * * * * * * * * * * * * //

dimensions      [0 3 -1 0 0 0 0];

oriented        oriented;

internalField   nonuniform List<scalar> 
65152
(
0.00625051
-5.07216e-07
0.00625203
-1.5235e-06
0.00625457
-2.54034e-06
0.00625813
-3.55887e-06
0.00626271
-4.58078e-06
0.00626832
-5.60716e-06
0.00627496
-6.63871e-06
0.00628263
-7.67618e-06
0.00629135
-8.72039e-06
0.00630113
-9.7721e-06
0.00631196
-1.0832e-05
0.00632386
-1.19008e-05
0.00633684
-1.29789e-05
0.0063509
-1.40669e-05
0.00636607
-1.5165e-05
0.00638234
-1.62735e-05
0.00639974
-1.73926e-05
0.00641826
-1.85222e-05
0.00643792
-1.96623e-05
0.00645873
-2.08124e-05
0.0064807
-2.19724e-05
0.00650385
-2.31414e-05
0.00652816
-2.43189e-05
0.00655367
-2.55039e-05
0.00658036
-2.66953e-05
0.00660826
-2.78919e-05
0.00663735
-2.90922e-05
0.00666764
-3.02946e-05
0.00669914
-3.14972e-05
0.00673184
-3.26981e-05
0.00676573
-3.38951e-05
0.00680082
-3.50858e-05
0.00683709
-3.62677e-05
0.00687452
-3.74382e-05
0.00691312
-3.85943e-05
0.00695285
-3.97333e-05
0.0069937
-4.0852e-05
0.00703565
-4.19473e-05
0.00707867
-4.3016e-05
0.00712272
-4.40549e-05
0.00716778
-4.50607e-05
0.00721381
-4.60302e-05
0.00726077
-4.69602e-05
0.00730862
-4.78475e-05
0.00735731
-4.86893e-05
0.00740679
-4.94825e-05
0.00745702
-5.02245e-05
0.00750793
-5.09128e-05
0.00755948
-5.15451e-05
0.00761159
-5.21194e-05
0.00766423
-5.26338e-05
0.00771732
-5.30868e-05
0.00777079
-5.34773e-05
0.0078246
-5.38044e-05
0.00787866
-5.40673e-05
0.00793293
-5.42659e-05
0.00798733
-5.44001e-05
0.0080418
-5.44702e-05
0.00809628
-5.44769e-05
0.0081507
-5.4421e-05
0.008205
-5.43037e-05
0.00825913
-5.41261e-05
0.00831302
-5.389e-05
0.00836662
-5.3597e-05
0.00841986
-5.3249e-05
0.00847271
-5.2848e-05
0.00852511
-5.23961e-05
0.008577
-5.18954e-05
0.00862835
-5.1348e-05
0.00867911
-5.07561e-05
0.00872923
-5.0122e-05
0.00877868
-4.94475e-05
0.00882741
-4.87348e-05
0.0088754
-4.79858e-05
0.0089226
-4.72021e-05
0.00896899
-4.63855e-05
0.00901452
-4.55374e-05
0.00905918
-4.46591e-05
0.00910293
-4.37518e-05
0.00914575
-4.28164e-05
0.0091876
-4.18537e-05
0.00922847
-4.08643e-05
0.00926832
-3.98487e-05
0.00930712
-3.8807e-05
0.00934486
-3.77394e-05
0.00938151
-3.66459e-05
0.00941704
-3.55262e-05
0.00945142
-3.43801e-05
0.00948462
-3.32073e-05
0.00951663
-3.20073e-05
0.00954741
-3.07795e-05
0.00957693
-2.95236e-05
0.00960517
-2.82389e-05
0.0096321
-2.69251e-05
0.00965768
-2.55816e-05
0.00968189
-2.42081e-05
0.00970469
-2.28043e-05
0.00972606
-2.13699e-05
0.00974597
-1.99051e-05
0.00976438
-1.84097e-05
0.00978126
-1.68842e-05
0.00979659
-1.53288e-05
0.00981033
-1.37442e-05
0.00982246
-1.21312e-05
0.00983296
-1.04906e-05
0.00984178
-8.82371e-06
0.00984891
-7.13173e-06
0.00985433
-5.41623e-06
0.00985801
-3.67889e-06
0.00985993
-1.92158e-06
0.00986007
-1.46398e-07
0.00985843
1.64462e-06
0.00985498
3.44894e-06
0.00984972
5.26423e-06
0.00984263
7.08788e-06
0.00983371
8.91717e-06
0.00982296
1.07493e-05
0.00981038
1.25815e-05
0.00979597
1.44106e-05
0.00977974
1.62338e-05
0.00976169
1.8048e-05
0.00974184
1.98501e-05
0.0097202
2.16371e-05
0.00969679
2.34057e-05
0.00967164
2.5153e-05
0.00964477
2.68757e-05
0.0096162
2.85709e-05
0.00958596
3.02355e-05
0.00955409
3.18665e-05
0.00952063
3.34609e-05
0.00948562
3.50159e-05
0.00944909
3.65285e-05
0.00941109
3.7996e-05
0.00937168
3.94158e-05
0.00933089
4.07851e-05
0.00928879
4.21016e-05
0.00924543
4.33629e-05
0.00920086
4.45665e-05
0.00915515
4.57105e-05
0.00910836
4.67928e-05
0.00906055
4.78115e-05
0.00901178
4.87649e-05
0.00896213
4.96515e-05
0.00891166
5.047e-05
0.00886044
5.12191e-05
0.00880854
5.18979e-05
0.00875604
5.25056e-05
0.00870299
5.30416e-05
0.00864949
5.35056e-05
0.00859559
5.38974e-05
0.00854137
5.42172e-05
0.00848691
5.44652e-05
0.00843227
5.46419e-05
0.00837752
5.47481e-05
0.00832273
5.47848e-05
0.00826798
5.47532e-05
0.00821333
5.46545e-05
0.00815884
5.44905e-05
0.00810457
5.42628e-05
0.0080506
5.39734e-05
0.00799698
5.36244e-05
0.00794376
5.3218e-05
0.007891
5.27566e-05
0.00783876
5.22428e-05
0.00778708
5.16791e-05
0.00773601
5.10682e-05
0.0076856
5.04128e-05
0.00763588
4.97158e-05
0.0075869
4.898e-05
0.00753869
4.82083e-05
0.00749129
4.74036e-05
0.00744472
4.65687e-05
0.00739902
4.57064e-05
0.0073542
4.48196e-05
0.00731028
4.3911e-05
0.0072673
4.29832e-05
0.00722526
4.2039e-05
0.00718418
4.10807e-05
0.00714407
4.01108e-05
0.00710494
3.91315e-05
0.00706679
3.81449e-05
0.00702964
3.7153e-05
0.00699348
3.61576e-05
0.00695832
3.516e-05
0.00692416
3.41615e-05
0.006891
3.31629e-05
0.00685883
3.21647e-05
0.00682767
3.11667e-05
0.0067975
3.01686e-05
0.00676833
2.91694e-05
0.00674016
2.81677e-05
0.006713
2.71618e-05
0.00668685
2.61497e-05
0.00666172
2.51295e-05
0.00663762
2.40994e-05
0.00661456
2.30581e-05
0.00659256
2.20051e-05
0.00657162
2.09406e-05
0.00655175
1.98662e-05
0.00653297
1.87847e-05
0.00651527
1.77e-05
0.00649865
1.66174e-05
0.00648311
1.55432e-05
0.00646862
1.44845e-05
0.00645517
1.34488e-05
0.00644273
1.24439e-05
0.00643125
1.14771e-05
0.0064207
1.05555e-05
0.00641101
9.68488e-06
0.00640214
8.87022e-06
0.00639403
8.11506e-06
0.00638661
7.42154e-06
0.00637981
6.79046e-06
0.00637359
6.22128e-06
0.00636788
5.71228e-06
0.00636262
5.26071e-06
0.00635776
4.86304e-06
0.00635324
4.5151e-06
0.00634903
4.21238e-06
0.00634508
3.95015e-06
0.00634136
3.7237e-06
0.00633783
3.52841e-06
0.00633447
3.35997e-06
0.00633125
3.21435e-06
0.00632817
3.08793e-06
0.00632519
2.9775e-06
0.00632231
2.88027e-06
0.00631951
2.79385e-06
0.0063168
2.71624e-06
0.00631415
2.64578e-06
0.00631157
2.58113e-06
0.00630905
2.52122e-06
0.00630658
2.46519e-06
0.00630417
2.4124e-06
0.00630181
2.36236e-06
0.00629949
2.3147e-06
0.00629723
2.26918e-06
0.006295
2.2256e-06
0.00629282
2.18388e-06
0.00629067
2.14392e-06
0.00628857
2.10573e-06
0.0062865
2.06928e-06
0.00628446
2.03461e-06
0.00628246
2.00174e-06
0.00628049
1.97073e-06
0.00627855
1.94162e-06
0.00627663
1.91447e-06
0.00627474
1.88936e-06
0.00627288
1.86629e-06
0.00627103
1.84545e-06
0.00626921
1.82663e-06
0.0062674
1.81044e-06
0.0062656
1.79566e-06
0.00626382
1.78483e-06
0.00626204
1.77279e-06
1.76984e-06
0.00625051
-1.01493e-06
0.00625203
-3.04514e-06
0.00625457
-5.07776e-06
0.00625812
-7.11476e-06
0.0062627
-9.15821e-06
0.0062683
-1.12102e-05
0.00627494
-1.32725e-05
0.00628261
-1.53468e-05
0.00629132
-1.74346e-05
0.00630109
-1.95375e-05
0.00631191
-2.16569e-05
0.00632381
-2.37941e-05
0.00633678
-2.59501e-05
0.00635084
-2.81258e-05
0.00636599
-3.0322e-05
0.00638226
-3.25391e-05
0.00639964
-3.47774e-05
0.00641816
-3.70369e-05
0.00643781
-3.93174e-05
0.00645862
-4.16184e-05
0.00648058
-4.3939e-05
0.00650372
-4.6278e-05
0.00652804
-4.86341e-05
0.00655354
-5.10054e-05
0.00658023
-5.33896e-05
0.00660813
-5.57844e-05
0.00663722
-5.81868e-05
0.00666752
-6.05936e-05
0.00669902
-6.3001e-05
0.00673173
-6.54052e-05
0.00676564
-6.78017e-05
0.00680074
-7.01858e-05
0.00683702
-7.25525e-05
0.00687448
-7.48964e-05
0.0069131
-7.72118e-05
0.00695286
-7.9493e-05
0.00699374
-8.17337e-05
0.00703572
-8.39276e-05
0.00707877
-8.60684e-05
0.00712287
-8.81496e-05
0.00716797
-9.01646e-05
0.00721405
-9.21068e-05
0.00726106
-9.397e-05
0.00730896
-9.57478e-05
0.0073577
-9.74343e-05
0.00740724
-9.90236e-05
0.00745753
-0.00010051
0.0075085
-0.000101889
0.00756011
-0.000103156
0.0076123
-0.000104306
0.007665
-0.000105337
0.00771816
-0.000106244
0.00777171
-0.000107026
0.00782559
-0.000107681
0.00787973
-0.000108207
0.00793406
-0.000108604
0.00798854
-0.000108872
0.00804308
-0.000109012
0.00809763
-0.000109024
0.00815212
-0.000108912
0.00820649
-0.000108675
0.00826068
-0.000108319
0.00831464
-0.000107845
0.0083683
-0.000107257
0.00842161
-0.000106559
0.00847451
-0.000105755
0.00852697
-0.000104849
0.00857891
-0.000103845
0.00863031
-0.000102748
0.00868112
-0.000101562
0.00873129
-0.000100291
0.00878078
-9.89405e-05
0.00882956
-9.75131e-05
0.00887759
-9.6013e-05
0.00892483
-9.44439e-05
0.00897125
-9.28091e-05
0.00901683
-9.11114e-05
0.00906152
-8.93535e-05
0.00910531
-8.75378e-05
0.00914816
-8.5666e-05
0.00919004
-8.37399e-05
0.00923094
-8.17605e-05
0.00927082
-7.97287e-05
0.00930966
-7.7645e-05
0.00934743
-7.55097e-05
0.00938411
-7.33226e-05
0.00941966
-7.10833e-05
0.00945407
-6.87913e-05
0.00948731
-6.64458e-05
0.00951935
-6.4046e-05
0.00955016
-6.15908e-05
0.00957972
-5.90792e-05
0.00960799
-5.65101e-05
0.00963495
-5.38826e-05
0.00966056
-5.11957e-05
0.0096848
-4.84487e-05
0.00970764
-4.5641e-05
0.00972904
-4.27721e-05
0.00974898
-3.9842e-05
0.00976742
-3.68509e-05
0.00978433
-3.37991e-05
0.00979969
-3.06875e-05
0.00981346
-2.75172e-05
0.00982562
-2.42899e-05
0.00983614
-2.10073e-05
0.00984499
-1.76718e-05
0.00985214
-1.42861e-05
0.00985758
-1.08531e-05
0.00986128
-7.37623e-06
0.00986321
-3.85928e-06
0.00986337
-3.06174e-07
0.00986174
3.27826e-06
0.0098583
6.88974e-06
0.00985304
1.05232e-05
0.00984596
1.41735e-05
0.00983704
1.78353e-05
0.00982628
2.15028e-05
0.0098137
2.51703e-05
0.00979927
2.88319e-05
0.00978303
3.24817e-05
0.00976496
3.61135e-05
0.00974509
3.97211e-05
0.00972343
4.32984e-05
0.00969999
4.68391e-05
0.00967481
5.0337e-05
0.0096479
5.37859e-05
0.00961929
5.71797e-05
0.00958901
6.05122e-05
0.0095571
6.37774e-05
0.0095236
6.69695e-05
0.00948853
7.00825e-05
0.00945195
7.31108e-05
0.00941389
7.60488e-05
0.00937442
7.88911e-05
0.00933357
8.16326e-05
0.0092914
8.42682e-05
0.00924797
8.67932e-05
0.00920334
8.92029e-05
0.00915756
9.14931e-05
0.00911069
9.36597e-05
0.0090628
9.5699e-05
0.00901396
9.76076e-05
0.00896423
9.93824e-05
0.00891368
0.000101021
0.00886238
0.00010252
0.00881039
0.000103879
0.00875781
0.000105095
0.00870468
0.000106167
0.00865109
0.000107096
0.00859711
0.000107879
0.00854281
0.000108519
0.00848826
0.000109014
0.00843353
0.000109367
0.0083787
0.000109578
0.00832384
0.000109651
0.008269
0.000109586
0.00821427
0.000109387
0.0081597
0.000109058
0.00810537
0.0001086
0.00805132
0.000108019
0.00799763
0.000107319
0.00794434
0.000106504
0.00789152
0.000105579
0.00783921
0.000104548
0.00778747
0.000103418
0.00773635
0.000102194
0.00768588
0.00010088
0.00763611
9.9483e-05
0.00758708
9.80084e-05
0.00753883
9.6462e-05
0.00749139
9.48495e-05
0.00744478
9.31767e-05
0.00739903
9.14491e-05
0.00735418
8.96726e-05
0.00731024
8.78524e-05
0.00726723
8.59941e-05
0.00722517
8.41028e-05
0.00718406
8.21835e-05
0.00714393
8.0241e-05
0.00710478
7.82799e-05
0.00706662
7.63043e-05
0.00702946
7.43182e-05
0.00699329
7.23251e-05
0.00695812
7.03278e-05
0.00692396
6.83288e-05
0.00689079
6.63297e-05
0.00685862
6.43315e-05
0.00682746
6.23339e-05
0.00679729
6.03363e-05
0.00676812
5.83365e-05
0.00673996
5.63319e-05
0.0067128
5.43191e-05
0.00668666
5.2294e-05
0.00666153
5.02529e-05
0.00663744
4.81922e-05
0.00661439
4.61093e-05
0.00659239
4.4003e-05
0.00657146
4.1874e-05
0.0065516
3.97253e-05
0.00653282
3.75624e-05
0.00651513
3.53933e-05
0.00649852
3.32284e-05
0.00648298
3.10803e-05
0.0064685
2.89632e-05
0.00645506
2.68922e-05
0.00644262
2.48827e-05
0.00643115
2.29495e-05
0.00642059
2.11066e-05
0.00641091
1.93657e-05
0.00640205
1.77367e-05
0.00639394
1.62266e-05
0.00638652
1.48398e-05
0.00637973
1.35779e-05
0.00637351
1.24398e-05
0.0063678
1.1422e-05
0.00636254
1.0519e-05
0.00635768
9.72384e-06
0.00635317
9.02813e-06
0.00634896
8.42283e-06
0.00634501
7.89851e-06
0.00634129
7.44572e-06
0.00633776
7.05526e-06
0.0063344
6.71846e-06
0.00633119
6.4273e-06
0.0063281
6.17452e-06
0.00632513
5.9537e-06
0.00632225
5.75927e-06
0.00631946
5.58645e-06
0.00631674
5.43124e-06
0.0063141
5.29031e-06
0.00631152
5.161e-06
0.006309
5.04114e-06
0.00630653
4.92904e-06
0.00630412
4.82342e-06
0.00630176
4.72329e-06
0.00629945
4.62792e-06
0.00629718
4.53681e-06
0.00629496
4.44961e-06
0.00629277
4.36609e-06
0.00629063
4.28612e-06
0.00628853
4.20966e-06
0.00628646
4.13671e-06
0.00628443
4.0673e-06
0.00628243
4.0015e-06
0.00628046
3.93942e-06
0.00627852
3.88114e-06
0.00627661
3.82679e-06
0.00627472
3.77648e-06
0.00627286
3.73033e-06
0.00627101
3.68848e-06
0.00626919
3.65105e-06
0.00626738
3.61808e-06
0.00626559
3.59004e-06
0.00626381
3.56587e-06
0.00626203
3.54958e-06
3.53115e-06
0.00625051
-1.5213e-06
0.00625203
-4.56444e-06
0.00625456
-7.61126e-06
0.00625811
-1.06649e-05
0.00626268
-1.37283e-05
0.00626827
-1.68045e-05
0.0062749
-1.98962e-05
0.00628256
-2.3006e-05
0.00629126
-2.61363e-05
0.00630101
-2.92893e-05
0.00631182
-3.24673e-05
0.0063237
-3.56721e-05
0.00633665
-3.89054e-05
0.0063507
-4.21685e-05
0.00636584
-4.54626e-05
0.00638209
-4.87884e-05
0.00639946
-5.21462e-05
0.00641795
-5.55363e-05
0.0064376
-5.89582e-05
0.00645839
-6.24111e-05
0.00648034
-6.58939e-05
0.00650347
-6.94048e-05
0.00652778
-7.29416e-05
0.00655327
-7.65017e-05
0.00657997
-8.00818e-05
0.00660786
-8.36781e-05
0.00663696
-8.72862e-05
0.00666727
-9.09013e-05
0.00669878
-9.4518e-05
0.00673151
-9.81301e-05
0.00676544
-0.000101731
0.00680057
-0.000105314
0.00683689
-0.000108871
0.00687438
-0.000112395
0.00691305
-0.000115876
0.00695286
-0.000119305
0.0069938
-0.000122675
0.00703585
-0.000125974
0.00707897
-0.000129194
0.00712315
-0.000132324
0.00716834
-0.000135355
0.00721451
-0.000138277
0.00726162
-0.000141079
0.00730962
-0.000143754
0.00735848
-0.000146291
0.00740814
-0.000148682
0.00745855
-0.000150919
0.00750965
-0.000152993
0.00756139
-0.000154899
0.00761372
-0.000156629
0.00766656
-0.000158178
0.00771986
-0.000159543
0.00777355
-0.000160718
0.00782757
-0.000161701
0.00788185
-0.000162492
0.00793634
-0.000163087
0.00799095
-0.000163489
0.00804564
-0.000163697
0.00810033
-0.000163714
0.00815496
-0.000163541
0.00820946
-0.000163184
0.00826379
-0.000162645
0.00831788
-0.000161929
0.00837166
-0.000161043
0.00842509
-0.00015999
0.00847812
-0.000158779
0.00853068
-0.000157414
0.00858274
-0.000155903
0.00863424
-0.000154252
0.00868515
-0.000152467
0.00873541
-0.000150556
0.008785
-0.000148524
0.00883386
-0.000146378
0.00888197
-0.000144123
0.00892929
-0.000141765
0.00897579
-0.000139309
0.00902144
-0.000136758
0.0090662
-0.000134118
0.00911006
-0.000131392
0.00915297
-0.000128582
0.00919492
-0.000125691
0.00923588
-0.00012272
0.00927583
-0.000119671
0.00931473
-0.000116545
0.00935256
-0.000113342
0.0093893
-0.000110061
0.00942492
-0.000106702
0.00945939
-0.000103264
0.00949269
-9.97468e-05
0.00952479
-9.61477e-05
0.00955567
-9.24656e-05
0.00958529
-8.86988e-05
0.00961362
-8.48459e-05
0.00964064
-8.09051e-05
0.00966632
-7.68751e-05
0.00969063
-7.27546e-05
0.00971353
-6.85428e-05
0.009735
-6.4239e-05
0.009755
-5.98429e-05
0.0097735
-5.53549e-05
0.00979048
-5.07755e-05
0.0098059
-4.61059e-05
0.00981973
-4.13479e-05
0.00983194
-3.65037e-05
0.00984251
-3.15763e-05
0.00985141
-2.65689e-05
0.00985861
-2.14857e-05
0.00986409
-1.63312e-05
0.00986782
-1.11105e-05
0.00986979
-5.8292e-06
0.00986998
-4.93037e-07
0.00986837
4.89003e-06
0.00986494
1.03143e-05
0.00985969
1.57718e-05
0.00985261
2.12548e-05
0.00984369
2.67552e-05
0.00983293
3.22645e-05
0.00982033
3.77739e-05
0.00980588
4.32747e-05
0.00978961
4.87578e-05
0.00977151
5.4214e-05
0.00975159
5.9634e-05
0.00972988
6.50085e-05
0.00970639
7.03281e-05
0.00968115
7.55835e-05
0.00965417
8.07653e-05
0.00962548
8.58643e-05
0.00959512
9.08713e-05
0.00956312
9.57773e-05
0.00952952
0.000100573
0.00949435
0.000105251
0.00945766
0.000109801
0.0094195
0.000114215
0.0093799
0.000118486
0.00933893
0.000122605
0.00929663
0.000126565
0.00925307
0.000130359
0.00920829
0.000133979
0.00916236
0.00013742
0.00911535
0.000140675
0.00906731
0.000143739
0.00901831
0.000146606
0.00896842
0.000149272
0.00891771
0.000151733
0.00886624
0.000153985
0.0088141
0.000156025
0.00876134
0.000157851
0.00870805
0.000159461
0.00865429
0.000160854
0.00860014
0.00016203
0.00854567
0.000162988
0.00849095
0.000163731
0.00843606
0.000164258
0.00838107
0.000164573
0.00832604
0.000164679
0.00827104
0.000164579
0.00821616
0.000164277
0.00816143
0.000163778
0.00810695
0.000163087
0.00805276
0.000162211
0.00799892
0.000161155
0.0079455
0.000159926
0.00789255
0.000158532
0.00784012
0.00015698
0.00778826
0.000155277
0.00773702
0.000153433
0.00768644
0.000151456
0.00763657
0.000149353
0.00758745
0.000147134
0.0075391
0.000144806
0.00749157
0.00014238
0.00744488
0.000139863
0.00739907
0.000137265
0.00735415
0.000134592
0.00731015
0.000131855
0.00726708
0.00012906
0.00722497
0.000126216
0.00718382
0.00012333
0.00714365
0.00012041
0.00710447
0.000117462
0.00706628
0.000114493
0.00702909
0.000111508
0.0069929
0.000108512
0.00695772
0.000105511
0.00692354
0.000102507
0.00689037
9.95041e-05
0.0068582
9.65023e-05
0.00682703
9.3502e-05
0.00679686
9.05017e-05
0.0067677
8.74988e-05
0.00673954
8.4489e-05
0.0067124
8.14671e-05
0.00668626
7.84275e-05
0.00666115
7.53641e-05
0.00663707
7.22718e-05
0.00661404
6.91465e-05
0.00659205
6.59866e-05
0.00657113
6.2793e-05
0.00655129
5.957e-05
0.00653252
5.6326e-05
0.00651484
5.30729e-05
0.00649825
4.98263e-05
0.00648272
4.66051e-05
0.00646825
4.34303e-05
0.00645482
4.03247e-05
0.00644239
3.73113e-05
0.00643093
3.44125e-05
0.00642039
3.16489e-05
0.00641072
2.90384e-05
0.00640186
2.65956e-05
0.00639375
2.43312e-05
0.00638634
2.22517e-05
0.00637956
2.03594e-05
0.00637335
1.86527e-05
0.00636764
1.71265e-05
0.00636239
1.57725e-05
0.00635753
1.45802e-05
0.00635302
1.3537e-05
0.00634882
1.26294e-05
0.00634487
1.18433e-05
0.00634115
1.11644e-05
0.00633763
1.0579e-05
0.00633427
1.0074e-05
0.00633106
9.63748e-06
0.00632798
9.25846e-06
0.00632501
8.92735e-06
0.00632213
8.63577e-06
0.00631934
8.37658e-06
0.00631663
8.14376e-06
0.00631398
7.93236e-06
0.00631141
7.73833e-06
0.00630889
7.55847e-06
0.00630643
7.39023e-06
0.00630402
7.23169e-06
0.00630166
7.08136e-06
0.00629935
6.93818e-06
0.00629709
6.80137e-06
0.00629487
6.67041e-06
0.00629269
6.54498e-06
0.00629055
6.42487e-06
0.00628845
6.31002e-06
0.00628638
6.20043e-06
0.00628436
6.09615e-06
0.00628236
5.9973e-06
0.0062804
5.90401e-06
0.00627846
5.81644e-06
0.00627655
5.73476e-06
0.00627467
5.65915e-06
0.00627281
5.5898e-06
0.00627097
5.52684e-06
0.00626915
5.47065e-06
0.00626735
5.42093e-06
0.00626556
5.37917e-06
0.00626378
5.34226e-06
0.00626201
5.31866e-06
5.28931e-06
0.00625051
-2.02642e-06
0.00625202
-6.08006e-06
0.00625455
-1.01386e-05
0.00625809
-1.42064e-05
0.00626265
-1.82875e-05
0.00626823
-2.23857e-05
0.00627484
-2.65047e-05
0.00628248
-3.0648e-05
0.00629116
-3.48189e-05
0.00630089
-3.90205e-05
0.00631168
-4.32557e-05
0.00632354
-4.7527e-05
0.00633647
-5.18368e-05
0.00635049
-5.61867e-05
0.0063656
-6.05785e-05
0.00638183
-6.5013e-05
0.00639917
-6.94909e-05
0.00641765
-7.40124e-05
0.00643727
-7.8577e-05
0.00645804
-8.31837e-05
0.00647998
-8.78309e-05
0.00650309
-9.25164e-05
0.00652738
-9.72373e-05
0.00655287
-0.00010199
0.00657956
-0.00010677
0.00660746
-0.000111573
0.00663656
-0.000116392
0.00666688
-0.000121222
0.00669842
-0.000126054
0.00673117
-0.000130881
0.00676513
-0.000135695
0.0068003
-0.000140484
0.00683667
-0.000145241
0.00687423
-0.000149952
0.00691296
-0.000154608
0.00695285
-0.000159197
0.00699388
-0.000163704
0.00703603
-0.000168119
0.00707926
-0.000172428
0.00712356
-0.000176618
0.00716888
-0.000180675
0.00721519
-0.000184586
0.00726245
-0.000188339
0.00731061
-0.000191919
0.00735964
-0.000195316
0.00740947
-0.000198517
0.00746007
-0.000201512
0.00751136
-0.000204289
0.0075633
-0.00020684
0.00761583
-0.000209155
0.00766888
-0.000211229
0.00772239
-0.000213054
0.0077763
-0.000214625
0.00783054
-0.00021594
0.00788504
-0.000216995
0.00793974
-0.000217789
0.00799457
-0.000218323
0.00804947
-0.000218597
0.00810438
-0.000218615
0.00815921
-0.00021838
0.00821393
-0.000217897
0.00826845
-0.000217171
0.00832273
-0.000216209
0.00837671
-0.000215017
0.00843032
-0.000213605
0.00848352
-0.000211979
0.00853626
-0.000210149
0.00858848
-0.000208123
0.00864014
-0.000205911
0.00869119
-0.000203521
0.0087416
-0.000200962
0.00879132
-0.000198243
0.00884031
-0.000195372
0.00888854
-0.000192357
0.00893598
-0.000189204
0.0089826
-0.000185922
0.00902835
-0.000182514
0.00907322
-0.000178988
0.00911718
-0.000175348
0.00916019
-0.000171597
0.00920224
-0.000167738
0.00924329
-0.000163774
0.00928333
-0.000159707
0.00932232
-0.000155537
0.00936025
-0.000151266
0.00939708
-0.000146891
0.00943279
-0.000142413
0.00946735
-0.00013783
0.00950075
-0.000133141
0.00953294
-0.000128344
0.00956391
-0.000123436
0.00959363
-0.000118415
0.00962206
-0.000113278
0.00964918
-0.000108025
0.00967496
-0.000102652
0.00969936
-9.71586e-05
0.00972236
-9.15425e-05
0.00974393
-8.58031e-05
0.00976403
-7.99401e-05
0.00978262
-7.39536e-05
0.00979969
-6.78445e-05
0.0098152
-6.16144e-05
0.00982912
-5.52654e-05
0.00984142
-4.88007e-05
0.00985206
-4.22241e-05
0.00986104
-3.554e-05
0.0098683
-2.87539e-05
0.00987384
-2.18718e-05
0.00987763
-1.49006e-05
0.00987965
-7.84786e-06
0.00987988
-7.21043e-07
0.0098783
6.46864e-06
0.0098749
1.3714e-05
0.00986967
2.10044e-05
0.0098626
2.83293e-05
0.00985367
3.56777e-05
0.0098429
4.30384e-05
0.00983027
5.03997e-05
0.0098158
5.77496e-05
0.00979948
6.50761e-05
0.00978133
7.23669e-05
0.00976135
7.96096e-05
0.00973957
8.67916e-05
0.009716
9.39004e-05
0.00969066
0.000100923
0.00966357
0.000107848
0.00963477
0.000114663
0.00960429
0.000121354
0.00957216
0.000127911
0.00953841
0.00013432
0.00950309
0.000140571
0.00946624
0.000146652
0.0094279
0.000152552
0.00938813
0.00015826
0.00934697
0.000163765
0.00930448
0.000169057
0.00926071
0.000174127
0.00921572
0.000178965
0.00916958
0.000183564
0.00912234
0.000187914
0.00907407
0.000192007
0.00902484
0.000195839
0.00897471
0.000199401
0.00892376
0.000202688
0.00887204
0.000205696
0.00881965
0.000208421
0.00876664
0.000210859
0.00871309
0.000213008
0.00865908
0.000214866
0.00860468
0.000216434
0.00854996
0.000217711
0.00849499
0.000218699
0.00843985
0.000219399
0.0083846
0.000219816
0.00832933
0.000219951
0.0082741
0.000219811
0.00821897
0.000219402
0.00816402
0.000218728
0.00810931
0.000217798
0.0080549
0.00021662
0.00800086
0.000215201
0.00794723
0.000213552
0.00789408
0.000211681
0.00784146
0.000209599
0.00778942
0.000207317
0.00773801
0.000204845
0.00768727
0.000202194
0.00763725
0.000199377
0.00758798
0.000196404
0.0075395
0.000193287
0.00749184
0.000190038
0.00744503
0.000186668
0.00739911
0.000183189
0.00735409
0.000179612
0.00731
0.000175948
0.00726685
0.000172209
0.00722466
0.000168404
0.00718345
0.000164543
0.00714322
0.000160637
0.00710399
0.000156695
0.00706576
0.000152724
0.00702853
0.000148733
0.00699232
0.000144729
0.00695711
0.000140717
0.00692291
0.000136703
0.00688973
0.00013269
0.00685755
0.000128679
0.00682638
0.000124671
0.00679622
0.000120664
0.00676707
0.000116654
0.00673892
0.000112635
0.00671179
0.000108601
0.00668567
0.000104544
0.00666058
0.000100457
0.00663652
9.63312e-05
0.0066135
9.21626e-05
0.00659154
8.79484e-05
0.00657064
8.36899e-05
0.00655082
7.93929e-05
0.00653208
7.50682e-05
0.00651442
7.07318e-05
0.00649784
6.64045e-05
0.00648234
6.2111e-05
0.00646789
5.78797e-05
0.00645447
5.37407e-05
0.00644206
4.97246e-05
0.00643061
4.58612e-05
0.00642008
4.2178e-05
0.00641042
3.86988e-05
0.00640157
3.54432e-05
0.00639348
3.24252e-05
0.00638608
2.96537e-05
0.0063793
2.71317e-05
0.0063731
2.48572e-05
0.0063674
2.28232e-05
0.00636216
2.10188e-05
0.00635731
1.94298e-05
0.0063528
1.80397e-05
0.0063486
1.68303e-05
0.00634466
1.57828e-05
0.00634095
1.48782e-05
0.00633743
1.40981e-05
0.00633408
1.34253e-05
0.00633087
1.28435e-05
0.00632779
1.23384e-05
0.00632482
1.18972e-05
0.00632195
1.15085e-05
0.00631916
1.1163e-05
0.00631645
1.08526e-05
0.00631382
1.05707e-05
0.00631124
1.03119e-05
0.00630873
1.00719e-05
0.00630627
9.84744e-06
0.00630387
9.63583e-06
0.00630151
9.43516e-06
0.00629921
9.244e-06
0.00629695
9.06131e-06
0.00629473
8.88642e-06
0.00629256
8.71888e-06
0.00629042
8.55845e-06
0.00628833
8.40501e-06
0.00628627
8.25859e-06
0.00628425
8.11925e-06
0.00628226
7.98716e-06
0.0062803
7.86248e-06
0.00627837
7.74542e-06
0.00627647
7.63623e-06
0.00627459
7.53512e-06
0.00627274
7.44239e-06
0.00627091
7.35817e-06
0.0062691
7.28303e-06
0.0062673
7.21641e-06
0.00626552
7.16063e-06
0.00626375
7.1109e-06
0.00626199
7.07954e-06
7.03963e-06
0.0062505
-2.52988e-06
0.00625201
-7.59067e-06
0.00625453
-1.26576e-05
0.00625806
-1.77364e-05
0.00626261
-2.28319e-05
0.00626817
-2.79491e-05
0.00627476
-3.30925e-05
0.00628238
-3.82667e-05
0.00629103
-4.34758e-05
0.00630074
-4.87238e-05
0.0063115
-5.40144e-05
0.00632332
-5.93507e-05
0.00633622
-6.47356e-05
0.0063502
-7.01716e-05
0.00636529
-7.56607e-05
0.00638148
-8.12041e-05
0.00639879
-8.68027e-05
0.00641723
-9.24568e-05
0.00643682
-9.81658e-05
0.00645757
-0.000103929
0.00647948
-0.000109743
0.00650257
-0.000115607
0.00652685
-0.000121516
0.00655232
-0.000127466
0.00657901
-0.000133453
0.0066069
-0.000139468
0.00663602
-0.000145506
0.00666635
-0.000151558
0.00669791
-0.000157615
0.0067307
-0.000163667
0.00676471
-0.000169702
0.00679993
-0.00017571
0.00683637
-0.000181677
0.00687401
-0.000187589
0.00691283
-0.000193433
0.00695283
-0.000199192
0.00699397
-0.000204852
0.00703625
-0.000210396
0.00707963
-0.000215808
0.00712408
-0.000221071
0.00716958
-0.000226168
0.00721607
-0.000231083
0.00726353
-0.000235798
0.00731191
-0.000240298
0.00736116
-0.000244566
0.00741123
-0.000248589
0.00746207
-0.000252352
0.00751363
-0.000255842
0.00756583
-0.000259046
0.00761863
-0.000261955
0.00767196
-0.000264559
0.00772576
-0.000266849
0.00777995
-0.000268821
0.00783448
-0.000270469
0.00788928
-0.00027179
0.00794427
-0.000272783
0.0079994
-0.000273448
0.00805459
-0.000273786
0.00810977
-0.000273802
0.00816489
-0.000273499
0.00821988
-0.000272885
0.00827467
-0.000271965
0.00832921
-0.000270748
0.00838344
-0.000269244
0.0084373
-0.000267463
0.00849073
-0.000265414
0.00854369
-0.000263109
0.00859613
-0.00026056
0.008648
-0.000257778
0.00869925
-0.000254773
0.00874984
-0.000251558
0.00879974
-0.000248143
0.00884891
-0.000244538
0.00889731
-0.000240755
0.0089449
-0.000236801
0.00899167
-0.000232685
0.00903757
-0.000228415
0.00908258
-0.000223997
0.00912667
-0.000219438
0.00916981
-0.000214742
0.00921199
-0.000209913
0.00925317
-0.000204954
0.00929333
-0.000199867
0.00933244
-0.000194652
0.00937049
-0.000189312
0.00940744
-0.000183843
0.00944327
-0.000178247
0.00947796
-0.00017252
0.00951148
-0.00016666
0.0095438
-0.000160665
0.0095749
-0.000154532
0.00960474
-0.000148258
0.0096333
-0.00014184
0.00966055
-0.000135275
0.00968646
-0.000128561
0.009711
-0.000121694
0.00973413
-0.000114673
0.00975582
-0.000107498
0.00977605
-0.000100166
0.00979478
-9.26794e-05
0.00981197
-8.5038e-05
0.0098276
-7.72438e-05
0.00984163
-6.92997e-05
0.00985404
-6.12095e-05
0.0098648
-5.29778e-05
0.00987387
-4.46105e-05
0.00988123
-3.61141e-05
0.00988685
-2.74964e-05
0.00989072
-1.87659e-05
0.0098928
-9.93226e-06
0.00989308
-1.00467e-06
0.00989155
8.00237e-06
0.00988818
1.70801e-05
0.00988297
2.62152e-05
0.00987591
3.53941e-05
0.00986698
4.46032e-05
0.00985619
5.38281e-05
0.00984354
6.30544e-05
0.00982902
7.22669e-05
0.00981265
8.14505e-05
0.00979442
9.05896e-05
0.00977437
9.96686e-05
0.00975249
0.000108672
0.0097288
0.000117584
0.00970334
0.000126388
0.00967612
0.00013507
0.00964717
0.000143613
0.00961652
0.000152002
0.00958421
0.000160222
0.00955027
0.000168258
0.00951474
0.000176095
0.00947768
0.00018372
0.00943911
0.000191116
0.0093991
0.000198272
0.00935769
0.000205175
0.00931494
0.00021181
0.0092709
0.000218166
0.00922563
0.000224232
0.0091792
0.000229997
0.00913166
0.00023545
0.00908309
0.000240582
0.00903354
0.000245384
0.00898309
0.000249848
0.00893181
0.000253967
0.00887977
0.000257736
0.00882705
0.000261149
0.0087737
0.000264202
0.00871982
0.000266892
0.00866547
0.000269218
0.00861072
0.000271178
0.00855566
0.000272773
0.00850036
0.000274004
0.00844488
0.000274875
0.00838931
0.000275388
0.00833371
0.00027555
0.00827816
0.000275365
0.00822272
0.000274841
0.00816746
0.000273986
0.00811245
0.000272809
0.00805775
0.000271321
0.00800342
0.00026953
0.00794952
0.00026745
0.00789611
0.000265093
0.00784324
0.000262471
0.00779096
0.000259597
0.00773932
0.000256485
0.00768836
0.00025315
0.00763813
0.000249606
0.00758867
0.000245867
0.00754001
0.000241948
0.00749218
0.000237864
0.00744522
0.000233629
0.00739915
0.000229258
0.007354
0.000224764
0.00730978
0.000220163
0.00726652
0.000215467
0.00722424
0.00021069
0.00718294
0.000205844
0.00714263
0.000200941
0.00710333
0.000195994
0.00706505
0.000191012
0.00702777
0.000186006
0.00699152
0.000180983
0.00695628
0.000175953
0.00692207
0.00017092
0.00688887
0.000165889
0.00685668
0.000160863
0.00682551
0.000155841
0.00679536
0.00015082
0.00676621
0.000145798
0.00673808
0.000140766
0.00671097
0.000135716
0.00668487
0.000130639
0.0066598
0.000125524
0.00663577
0.000120363
0.00661279
0.00011515
0.00659085
0.000109881
0.00656999
0.000104557
0.00655019
9.91861e-05
0.00653148
9.37814e-05
0.00651385
8.83627e-05
0.0064973
8.29557e-05
0.00648182
7.75915e-05
0.00646739
7.23051e-05
0.006454
6.71341e-05
0.00644161
6.21168e-05
0.00643018
5.72903e-05
0.00641967
5.26889e-05
0.00641002
4.83425e-05
0.00640119
4.42752e-05
0.00639311
4.05049e-05
0.00638572
3.70425e-05
0.00637896
3.38918e-05
0.00637277
3.10503e-05
0.00636708
2.85094e-05
0.00636185
2.62554e-05
0.006357
2.42706e-05
0.00635251
2.25342e-05
0.00634832
2.10236e-05
0.00634438
1.97152e-05
0.00634068
1.85854e-05
0.00633716
1.76111e-05
0.00633382
1.67707e-05
0.00633062
1.60442e-05
0.00632754
1.54133e-05
0.00632458
1.4862e-05
0.00632171
1.43764e-05
0.00631893
1.39446e-05
0.00631623
1.35566e-05
0.00631359
1.32041e-05