/*--------------------------------*- C++ -*----------------------------------*\
| =========                 |                                                 |
| \\      /  F ield         | OpenFOAM: The Open Source CFD Toolbox           |
|  \\    /   O peration     | Version:  2306                                  |
|   \\  /    A nd           | Website:  www.openfoam.com                      |
|    \\/     M anipulation  |                                                 |
\*---------------------------------------------------------------------------*/
FoamFile
{
    version     2.0;
    format      ascii;
    arch        "LSB;label=32;scalar=64";
    class       volScalarField;
    location    "5.5";
    object      T;
}
// * * * * * * * * * * * * * * * * * * * * * * * * * * * * * * * * * * * * * //

dimensions      [0 0 0 1 0 0 0];

internalField   nonuniform List<scalar> 
32768
(
300
300
300
300
300
300
300
300
300
300
300
300
300
300
300
300
300
300
300
300
300
300
300
300
300
300
300
300
300
300
300
300
300
300
300
300
300
300
300
300
300
300
300
300
300
300
300
300
300
300
300
300
300
300
300
300
300
300
300
300
300
300
300
300
300
300
300
300
300
300
299.999
299.999
299.999
299.999
299.999
299.999
299.998
299.998
299.998
299.997
299.997
299.997
299.996
299.995
299.995
299.994
299.993
299.992
299.991
299.99
299.989
299.987
299.986
299.984
299.982
299.98
299.977
299.974
299.972
299.968
299.965
299.961
299.957
299.953
299.948
299.943
299.937
299.931
299.924
299.917
299.91
299.901
299.893
299.883
299.873
299.862
299.851
299.839
299.825
299.812
299.797
299.781
299.764
299.746
299.727
299.707
299.686
299.663
299.639
299.614
299.587
299.558
299.527
299.495
299.461
299.424
299.385
299.343
299.299
299.252
299.201
299.147
299.088
299.026
298.958
298.885
298.805
298.719
298.625
298.522
298.41
298.287
298.152
298.002
297.837
297.654
297.451
297.226
296.975
296.696
296.384
296.036
295.647
295.213
294.728
294.187
293.583
292.91
292.161
291.328
290.403
289.378
288.244
286.992
285.614
284.099
282.44
280.627
278.651
276.503
274.177
271.664
268.957
266.052
262.944
259.629
256.104
252.369
248.424
244.272
239.915
235.358
230.609
225.674
220.564
215.289
209.861
204.293
198.6
192.796
186.897
180.919
174.879
168.794
162.679
156.553
150.432
144.331
138.267
132.254
126.306
120.438
114.663
108.992
103.436
98.0059
92.7111
87.5598
82.5593
77.7163
73.0362
68.5235
64.1819
60.0142
56.022
52.2065
48.5676
45.1047
41.8162
38.6996
35.7515
32.9673
30.3405
27.8619
25.5173
23.284
21.1233
18.9665
16.6888
14.06
10.6515
5.66033
-2.4205
-16.4243
-41.6806
-88.2172
-174.901
-337.223
-641.938
-1214.57
-2291.07
-4314.9
-8119.22
-15268.9
-28702.5
-53935.4
300
300
300
300
300
300
300
300
300
300
300
300
300
300
300
300
300
300
300
300
300
300
300
300
300
300
300
300
300
300
300
300
300
300
300
300
300
300
300
300
300
300
300
300
300
300
300
300
300
300
300
300
300
300
300
300
300
300
300
300
300
300
300
300
300
300
300
300
300
299.999
299.999
299.999
299.999
299.999
299.999
299.998
299.998
299.998
299.998
299.997
299.997
299.996
299.996
299.995
299.994
299.993
299.992
299.991
299.99
299.989
299.988
299.986
299.984
299.982
299.98
299.978
299.975
299.972
299.969
299.966
299.962
299.958
299.954
299.949
299.944
299.938
299.932
299.926
299.919
299.912
299.904
299.895
299.886
299.876
299.865
299.854
299.842
299.829
299.816
299.801
299.786
299.769
299.752
299.734
299.714
299.693
299.672
299.648
299.624
299.598
299.57
299.541
299.51
299.477
299.442
299.404
299.365
299.323
299.278
299.23
299.179
299.124
299.065
299.002
298.934
298.86
298.781
298.694
298.6
298.497
298.384
298.261
298.125
297.976
297.81
297.627
297.424
297.199
296.948
296.668
296.356
296.008
295.62
295.185
294.701
294.159
293.556
292.883
292.133
291.3
290.375
289.35
288.216
286.964
285.586
284.071
282.412
280.599
278.622
276.475
274.148
271.635
268.928
266.023
262.914
259.598
256.073
252.338
248.393
244.24
239.882
235.325
230.575
225.64
220.53
215.254
209.826
204.257
198.563
192.759
186.86
180.881
174.841
168.755
162.641
156.515
150.394
144.293
138.228
132.215
126.268
120.401
114.625
108.954
103.399
97.9699
92.6757
87.5251
82.5255
77.6833
73.004
68.4923
64.1517
59.985
55.9939
52.1795
48.5417
45.0799
41.7925
38.6771
35.7301
32.947
30.3213
27.8438
25.5003
23.2681
21.1084
18.9525
16.6757
14.0478
10.64
5.64955
-2.43075
-16.4342
-41.6904
-88.2273
-174.912
-337.235
-641.952
-1214.58
-2291.09
-4314.91
-8119.23
-15268.9
-28702.6
-53935.6
300
300
300
300
300
300
300
300
300
300
300
300
300
300
300
300
300
300
300
300
300
300
300
300
300
300
300
300
300
300
300
300
300
300
300
300
300
300
300
300
300
300
300
300
300
300
300
300
300
300
300
300
300
300
300
300
300
300
300
300
300
300
300
300
300
300
300
300
299.999
299.999
299.999
299.999
299.999
299.999
299.998
299.998
299.998
299.997
299.997
299.997
299.996
299.995
299.995
299.994
299.993
299.992
299.991
299.99
299.989
299.987
299.985
299.984
299.982
299.979
299.977
299.974
299.971
299.968
299.964
299.961
299.956
299.952
299.947
299.942
299.936
299.93
299.923
299.916
299.908
299.9
299.891
299.882
299.872
299.861
299.849
299.837
299.824
299.81
299.796
299.78
299.764
299.746
299.728
299.708
299.687
299.666
299.642
299.618
299.592
299.565
299.536
299.506
299.473
299.439
299.403
299.365
299.324
299.281
299.235
299.187
299.134
299.079
299.019
298.955
298.886
298.811
298.731
298.644
298.549
298.445
298.332
298.208
298.072
297.922
297.757
297.573
297.37
297.145
296.893
296.614
296.302
295.954
295.565
295.131
294.647
294.106
293.502
292.829
292.08
291.247
290.323
289.298
288.164
286.913
285.535
284.021
282.362
280.549
278.573
276.425
274.099
271.585
268.879
265.974
262.865
259.549
256.024
252.289
248.343
244.19
239.832
235.275
230.525
225.59
220.479
215.203
209.774
204.205
198.511
192.706
186.806
180.828
174.787
168.701
162.586
156.46
150.338
144.238
138.173
132.16
126.213
120.346
114.571
108.901
103.346
97.9177
92.6243
87.4747
82.4761
77.635
72.957
68.4465
64.1073
59.942
55.9525
52.1396
48.5034
45.0432
41.7575
38.6437
35.6984
32.9169
30.2928
27.8169
25.475
23.2443
21.086
18.9316
16.6561
14.0294
10.6227
5.63303
-2.44679
-16.4503
-41.7074
-88.2464
-174.935
-337.266
-641.994
-1214.64
-2291.18
-4315.05
-8119.45
-15269.3
-28703.2
-53936.8
300
300
300
300
300
300
300
300
300
300
300
300
300
300
300
300
300
300
300
300
300
300
300
300
300
300
300
300
300
300
300
300
300
300
300
300
300
300
300
300
300
300
300
300
300
300
300
300
300
300
300
300
300
300
300
300
300
300
300
300
300
300
300
300
300
300
300
299.999
299.999
299.999
299.999
299.999
299.999
299.998
299.998
299.998
299.997
299.997
299.996
299.996
299.995
299.994
299.993
299.993
299.991
299.99
299.989
299.987
299.986
299.984
299.982
299.98
299.977
299.975
299.972
299.968
299.965
299.961
299.957
299.952
299.947
299.942
299.936
299.93
299.923
299.916
299.908
299.9
299.891
299.882
299.872
299.861
299.849
299.837
299.824
299.811
299.796
299.781
299.764
299.747
299.729
299.71
299.69
299.668
299.646
299.622
299.597
299.571
299.543
299.514
299.484
299.452
299.418
299.382
299.344
299.304
299.262
299.217
299.17
299.12
299.066
299.009
298.948
298.883
298.812
298.737
298.655
298.567
298.471
298.367
298.253
298.129
297.992
297.841
297.675
297.492
297.288
297.062
296.811
296.531
296.22
295.872
295.483
295.049
294.565
294.025
293.422
292.749
292.001
291.169
290.245
289.22
288.087
286.837
285.46
283.946
282.288
280.476
278.5
276.354
274.028
271.515
268.809
265.904
262.796
259.481
255.956
252.22
248.275
244.122
239.764
235.207
230.457
225.521
220.41
215.134
209.704
204.135
198.441
192.635
186.735
180.756
174.715
168.629
162.514
156.387
150.266
144.165
138.1
132.087
126.141
120.274
114.499
108.83
103.276
97.8482
92.5559
87.4074
82.4101
77.5705
72.8941
68.3854
64.048
59.8846
55.8969
52.0861
48.452
44.994
41.7104
38.5988
35.6557
32.8764
30.2545
27.7807
25.4408
23.2122
21.0559
18.9033
16.6296
14.0046
10.5992
5.61048
-2.46892
-16.4728
-41.7318
-88.2749
-174.971
-337.315
-642.067
-1214.75
-2291.35
-4315.33
-8119.89
-15270
-28704.5
-53939
300
300
300
300
300
300
300
300
300
300
300
300
300
300
300
300
300
300
300
300
300
300
300
300
300
300
300
300
300
300
300
300
300
300
300
300
300
300
300
300
300
300
300
300
300
300
300
300
300
300
300
300
300
300
300
300
300
300
300
300
300
300
300
300
300
299.999
299.999
299.999
299.999
299.999
299.999
299.998
299.998
299.998
299.997
299.997
299.996
299.996
299.995
299.994
299.994
299.993
299.991
299.99
299.989
299.987
299.986
299.984
299.982
299.979
299.977
299.974
299.971
299.968
299.964
299.96
299.956
299.951
299.946
299.94
299.934
299.928
299.921
299.913
299.905
299.896
299.887
299.877
299.867
299.856
299.844
299.831
299.818
299.804
299.789
299.773
299.756
299.739
299.72
299.701
299.68
299.659
299.636
299.612
299.588
299.561
299.534
299.506
299.476
299.444
299.411
299.377
299.34
299.302
299.262
299.22
299.176
299.129
299.08
299.027
298.972
298.913
298.85
298.783
298.711
298.634
298.552
298.462
298.365
298.26
298.145
298.02
297.882
297.731
297.565
297.381
297.177
296.951
296.699
296.42
296.108
295.76
295.372
294.939
294.455
293.916
293.313
292.642
291.894
291.063
290.14
289.117
287.985
286.736
285.359
283.847
282.19
280.379
278.405
276.259
273.934
271.422
268.717
265.813
262.706
259.391
255.867
252.132
248.187
244.034
239.677
235.12
230.369
225.434
220.322
215.046
209.616
204.047
198.352
192.547
186.646
180.667
174.625
168.538
162.423
156.296
150.174
144.073
138.009
131.996
126.05
120.183
114.409
108.74
103.187
97.7608
92.4698
87.3228
82.3272
77.4894
72.8149
68.3083
63.9731
59.8121
55.8269
52.0186
48.3872
44.9318
41.651
38.5421
35.6018
32.8252
30.2061
27.735
25.3978
23.1717
21.0179
18.8677
16.5962
13.9731
10.5693
5.58182
-2.49721
-16.502
-41.7638
-88.3129
-175.02
-337.384
-642.168
-1214.91
-2291.6
-4315.72
-8120.55
-15271.1
-28706.3
-53942.2
300
300
300
300
300
300
300
300
300
300
300
300
300
300
300
300
300
300
300
300
300
300
300
300
300
300
300
300
300
300
300
300
300
300
300
300
300
300
300
300
300
300
300
300
300
300
300
300
300
300
300
300
300
300
300
300
300
300
300
300
300
300
300
300
299.999
299.999
299.999
299.999
299.999
299.998
299.998
299.998
299.997
299.997
299.996
299.996
299.995
299.994
299.994
299.993
299.991
299.99
299.989
299.987
299.985
299.983
299.981
299.979
299.976
299.973
299.97
299.966
299.962
299.958
299.953
299.948
299.943
299.937
299.93
299.923
299.916
299.908
299.899
299.89
299.88
299.87
299.859
299.847
299.834
299.82
299.806
299.791
299.775
299.759
299.741
299.722
299.703
299.683
299.661
299.639
299.615
299.591
299.565
299.538
299.51
299.481
299.451
299.419
299.386
299.351
299.315
299.278
299.239
299.198
299.155
299.11
299.063
299.014
298.962
298.907
298.849
298.788
298.723
298.654
298.581
298.502
298.418
298.327
298.228
298.122
298.006
297.88
297.741
297.59
297.422
297.238
297.034
296.808
296.557
296.277
295.966
295.619
295.231
294.799
294.316
293.777
293.176
292.505
291.759
290.929
290.008
288.986
287.856
286.608
285.233
283.723
282.067
280.257
278.285
276.14
273.817
271.307
268.603
265.7
262.594
259.28
255.756
252.022
248.078
243.926
239.569
235.012
230.262
225.327
220.215
214.939
209.509
203.939
198.244
192.438
186.537
180.557
174.515
168.428
162.312
156.185
150.063
143.962
137.897
131.885
125.939
120.073
114.3
108.632
103.08
97.6548
92.3654
87.2201
82.2265
77.3909
72.7188
68.2147
63.8823
59.7241
55.742
51.9368
48.3085
44.8564
41.5789
38.4733
35.5364
32.7632
30.1474
27.6795
25.3455
23.1226
20.9718
18.8245
16.5557
13.9349
10.5331
5.54694
-2.53175
-16.5377
-41.8033
-88.3603
-175.082
-337.472
-642.299
-1215.11
-2291.92
-4316.25
-8121.4
-15272.5
-28708.7
-53946.3
300
300
300
300
300
300
300
300
300
300
300
300
300
300
300
300
300
300
300
300
300
300
300
300
300
300
300
300
300
300
300
300
300
300
300
300
300
300
300
300
300
300
300
300
300
300
300
300
300
300
300
300
300
300
300
300
300
300
300
300
300
300
299.999
299.999
299.999
299.999
299.999
299.999
299.998
299.998
299.998
299.997
299.997
299.996
299.995
299.994
299.994
299.992
299.991
299.99
299.988
299.987
299.985
299.983
299.98
299.978
299.975
299.972
299.968
299.964
299.96
299.956
299.951
299.945
299.939
299.933
299.926
299.918
299.91
299.901
299.892
299.882
299.871
299.859
299.847
299.834
299.82
299.806
299.79
299.774
299.757
299.738
299.719
299.699
299.678
299.656
299.633
299.609
299.584
299.558
299.531
299.502
299.473
299.442
299.41
299.377
299.343
299.308
299.271
299.233
299.193
299.152
299.109
299.065
299.019
298.97
298.92
298.868
298.813
298.756
298.695
298.631
298.564
298.493
298.417
298.337
298.25
298.158
298.058
297.95
297.833
297.706
297.567
297.414
297.247
297.062
296.858
296.632
296.381
296.102
295.791
295.444
295.058
294.626
294.144
293.607
293.007
292.338
291.594
290.765
289.846
288.826
287.697
286.452
285.079
283.57
281.917
280.109
278.139
275.996
273.675
271.166
268.464
265.563
262.458
259.145
255.623
251.89
247.947
243.796
239.439
234.883
230.133
225.198
220.087
214.81
209.381
203.811
198.115
192.309
186.407
180.427
174.385
168.297
162.181
156.053
149.931
143.83
137.765
131.753
125.807
119.942
114.17
108.503
102.953
97.5291
92.2416
87.0985
82.1073
77.2743
72.605
68.104
63.7748
59.6201
55.6415
51.8399
48.2155
44.7673
41.4936
38.3921
35.4591
32.6899
30.078
27.6141
25.2839
23.0647
20.9175
18.7735
16.5078
13.8899
10.4904
5.50572
-2.57264
-16.5802
-41.8505
-88.4173
-175.157
-337.578
-642.459
-1215.36
-2292.32
-4316.89
-8122.46
-15274.3
-28711.7
-53951.5
300
300
300
300
300
300
300
300
300
300
300
300
300
300
300
300
300
300
300
300
300
300
300
300
300
300
300
300
300
300
300
300
300
300
300
300
300
300
300
300
300
300
300
300
300
300
300
300
300
300
300
300
300
300
300
300
300
300
300
300
300
299.999
299.999
299.999
299.999
299.999
299.998
299.998
299.998
299.997
299.997
299.996
299.995
299.994
299.993
299.992
299.991
299.99
299.988
299.986
299.984
299.982
299.98
299.977
299.974
299.97
299.967
299.962
299.958
299.953
299.947
299.941
299.935
299.928
299.92
299.912
299.903
299.893
299.883
299.872
299.86
299.847
299.833
299.819
299.804
299.788
299.77
299.752
299.733
299.713
299.692
299.67
299.647
299.623
299.597
299.571
299.544
299.515
299.485
299.455
299.423
299.39
299.356
299.321
299.284
299.246
299.208
299.168
299.126
299.084
299.04
298.994
298.947
298.899
298.849
298.797
298.743
298.687
298.629
298.568
298.505
298.438
298.369
298.295
298.217
298.134
298.046
297.951
297.85
297.741
297.623
297.495
297.355
297.202
297.034
296.849
296.645
296.419
296.169
295.89
295.58
295.235
294.849
294.419
293.939
293.403
292.805
292.138
291.396
290.57
289.652
288.635
287.509
286.265
284.895
283.389
281.738
279.933
277.965
275.825
273.506
270.999
268.299
265.4
262.297
258.986
255.465
251.734
247.792
243.642
239.286
234.73
229.981
225.046
219.935
214.659
209.229
203.659
197.963
192.157
186.255
180.274
174.231
168.143
162.027
155.899
149.776
143.675
137.611
131.599
125.654
119.79
114.018
108.353
102.804
97.3827
92.0974
86.9569
81.9685
77.1386
72.4727
67.9753
63.6499
59.4992
55.5248
51.7276
48.1075
44.6639
41.3948
38.2979
35.3696
32.605
29.9977
27.5383
25.2125
22.9976
20.8546
18.7145
16.4525
13.8378
10.441
5.45803
-2.62
-16.6296
-41.9055
-88.4838
-175.245
-337.704
-642.649
-1215.66
-2292.79
-4317.66
-8123.72
-15276.4
-28715.2
-53957.6
300
300
300
300
300
300
300
300
300
300
300
300
300
300
300
300
300
300
300
300
300
300
300
300
300
300
300
300
300
300
300
300
300
300
300
300
300
300
300
300
300
300
300
300
300
300
300
300
300
300
300
300
300
300
300
300
300
300
300
299.999
299.999
299.999
299.999
299.999
299.998
299.998
299.998
299.997
299.997
299.996
299.995
299.994
299.994
299.992
299.991
299.99
299.988
299.986
299.984
299.982
299.979
299.976
299.973
299.969
299.965
299.96
299.955
299.95
299.944
299.937
299.93
299.922
299.914
299.905
299.895
299.884
299.872
299.86
299.847
299.833
299.818
299.802
299.784
299.766
299.747
299.727
299.706
299.683
299.66
299.635
299.609
299.582
299.554
299.525
299.494
299.463
299.43
299.396
299.361
299.324
299.287
299.248
299.209
299.168
299.126
299.083
299.039
298.993
298.947
298.899
298.85
298.8
298.748
298.695
298.641
298.584
298.527
298.467
298.405
298.341
298.274
298.204
298.132
298.055
297.975
297.89
297.8
297.704
297.601
297.49
297.371
297.242
297.102
296.949
296.781
296.596
296.392
296.167
295.917
295.64
295.331
294.987
294.603
294.175
293.697
293.163
292.567
291.903
291.163
290.34
289.425
288.41
287.288
286.047
284.68
283.177
281.529
279.727
277.762
275.625
273.308
270.804
268.107
265.21
262.109
258.8
255.281
251.551
247.611
243.462
239.107
234.553
229.804
224.87
219.759
214.483
209.053
203.483
197.787
191.98
186.078
180.097
174.054
167.965
161.848
155.72
149.598
143.497
137.433
131.421
125.477
119.614
113.844
108.18
102.633
97.2142
91.9316
86.7941
81.809
76.9828
72.3209
67.8277
63.5067
59.3606
55.3911
51.5989
47.984
44.5455
41.2818
38.1903
35.2673
32.508
29.906
27.4518
25.1311
22.9212
20.7829
18.6473
16.3895
13.7785
10.3847
5.40371
-2.67399
-16.6858
-41.9683
-88.5601
-175.346
-337.848
-642.867
-1216
-2293.34
-4318.55
-8125.19
-15278.8
-28719.3
-53964.7
300
300
300
300
300
300
300
300
300
300
300
300
300
300
300
300
300
300
300
300
300
300
300
300
300
300
300
300
300
300
300
300
300
300
300
300
300
300
300
300
300
300
300
300
300
300
300
300
300
300
300
300
300
300
300
300
300
300
299.999
299.999
299.999
299.999
299.999
299.998
299.998
299.997
299.997
299.996
299.995
299.995
299.994
299.992
299.991
299.99
299.988
299.986
299.984
299.981
299.978
299.975
299.972
299.968
299.963
299.958
299.953
299.947
299.94
299.933
299.925
299.917
299.907
299.897
299.886
299.874
299.861
299.848
299.833
299.817
299.8
299.782
299.763
299.743
299.721
299.698
299.674
299.649
299.623
299.595
299.566
299.535
299.504
299.471
299.436
299.401
299.364
299.326
299.286
299.246
299.204
299.161
299.117
299.072
299.026
298.978
298.93
298.88
298.83
298.778
298.726
298.672
298.618
298.562
298.505
298.447
298.387
298.326
298.264
298.2
298.134
298.066
297.996
297.923
297.848
297.769
297.686
297.599
297.507
297.409
297.305
297.194
297.074
296.944
296.804
296.65
296.483
296.298
296.095
295.871
295.623
295.347
295.04
294.698
294.316
293.89
293.414
292.883
292.291
291.629
290.893
290.073
289.161
288.151
287.031
285.794
284.431
282.932
281.287
279.488
277.526
275.393
273.079
270.579
267.884
264.99
261.891
258.585
255.068
251.34
247.402
243.254
238.901
234.347
229.6
224.666
219.556
214.28
208.85
203.28
197.584
191.777
185.874
179.893
173.849
167.76
161.644
155.515
149.393
143.292
137.228
131.218
125.275
119.412
113.645
107.983
102.439
97.0221
91.7428
86.6088
81.6277
76.8057
72.1483
67.66
63.3442
59.2035
55.2395
51.4531
47.8441
44.4116
41.154
38.0685
35.1516
32.3985
29.8025
27.3542
25.0393
22.8349
20.702
18.5716
16.3185
13.7117
10.3213
5.34257
-2.73475
-16.7492
-42.039
-88.6462
-175.46
-338.012
-643.114
-1216.39
-2293.96
-4319.56
-8126.85
-15281.6
-28724
-53972.8
300
300
300
300
300
300
300
300
300
300
300
300
300
300
300
300
300
300
300
300
300
300
300
300
300
300
300
300
300
300
300
300
300
300
300
300
300
300
300
300
300
300
300
300
300
300
300
300
300
300
300
300
300
300
300
300
299.999
299.999
299.999
299.999
299.999
299.998
299.998
299.998
299.997
299.996
299.996
299.995
299.994
299.993
299.991
299.99
299.988
299.986
299.983
299.981
299.978
299.974
299.971
299.966
299.962
299.956
299.95
299.944
299.937
299.929
299.92
299.911
299.9
299.889
299.877
299.864
299.85
299.834
299.818
299.8
299.781
299.761
299.739
299.717
299.692
299.667
299.639
299.611
299.581
299.549
299.516
299.482
299.446
299.408
299.369
299.329
299.287
299.244
299.199
299.154
299.106
299.058
299.008
298.958
298.906
298.853
298.799
298.744
298.688
298.631
298.574
298.515
298.456
298.395
298.334
298.273
298.21
298.146
298.081
298.015
297.948
297.88
297.81
297.738
297.665
297.589
297.51
297.429
297.344
297.255
297.161
297.062
296.957
296.845
296.725
296.595
296.455
296.302
296.135
295.952
295.75
295.528
295.281
295.007
294.703
294.363
293.984
293.561
293.089
292.561
291.972
291.315
290.582
289.766
288.859
287.852
286.737
285.504
284.145
282.65
281.01
279.215
277.257
275.127
272.817
270.32
267.629
264.738
261.642
258.339
254.824
251.099
247.162
243.016
238.664
234.112
229.365
224.433
219.323
214.048
208.618
203.048
197.352
191.544
185.642
179.66
173.616
167.527
161.41
155.282
149.159
143.059
136.996
130.987
125.045
119.184
113.419
107.759
102.218
96.8049
91.5293
86.3995
81.4229
76.6059
71.9538
67.4711
63.1612
59.0267
55.0691
51.2892
47.687
44.2614
41.0106
37.9321
35.0221
32.2758
29.6866
27.245
24.9366
22.7386
20.6118
18.4871
16.2393
13.6372
10.2506
5.27443
-2.80245
-16.8198
-42.1179
-88.7421
-175.588
-338.194
-643.39
-1216.82
-2294.66
-4320.69
-8128.7
-15284.7
-28729.2
-53981.8
300
300
300
300
300
300
300
300
300
300
300
300
300
300
300
300
300
300
300
300
300
300
300
300
300
300
300
300
300
300
300
300
300
300
300
300
300
300
300
300
300
300
300
300
300
300
300
300
300
300
300
300
300
300
300
299.999
299.999
299.999
299.999
299.999
299.998
299.998
299.997
299.997
299.996
299.995
299.994
299.993
299.991
299.99
299.988
299.986
299.983
299.981
299.978
299.974
299.97
299.965
299.96
299.955
299.948
299.941
299.934
299.925
299.916
299.905
299.894
299.881
299.868
299.853
299.838
299.82
299.802
299.782
299.761
299.738
299.714
299.688
299.661
299.632
299.601
299.569
299.535
299.499
299.461
299.422
299.381
299.338
299.294
299.248
299.2
299.15
299.1
299.047
298.993
298.938
298.882
298.824
298.765
298.705
298.644
298.582
298.519
298.456
298.391
298.326
298.26
298.194
298.127
298.059
297.991
297.923
297.854
297.784
297.714
297.642
297.57
297.497
297.423
297.348
297.271
297.192
297.111
297.027
296.94
296.85
296.755
296.655
296.55
296.438
296.318
296.189
296.049
295.898
295.732
295.551
295.352
295.131
294.888
294.617
294.315
293.979
293.604
293.185
292.717
292.193
291.608
290.956
290.227
289.416
288.514
287.512
286.402
285.174
283.82
282.329
280.694
278.904
276.95
274.825
272.519
270.026
267.339
264.451
261.359
258.058
254.547
250.823
246.889
242.745
238.395
233.844
229.099
224.167
219.058
213.783
208.354
202.784
197.088
191.28
185.377
179.395
173.351
167.262
161.145
155.017
148.895
142.795
136.734
130.726
124.785
118.927
113.164
107.508
101.97
96.5608
91.2896
86.1647
81.1934
76.3821
71.7361
67.2598
62.9566
58.8291
54.8788
51.1064
47.5118
44.0939
40.8509
37.7802
34.878
32.1395
29.5579
27.1237
24.8227
22.6317
20.5117
18.3934
16.1516
13.5547
10.1725
5.19909
-2.87728
-16.8978
-42.205
-88.8481
-175.729
-338.396
-643.696
-1217.3
-2295.42
-4321.94
-8130.75
-15288.1
-28735
-53991.8
300
300
300
300
300
300
300
300
300
300
300
300
300
300
300
300
300
300
300
300
300
300
300
300
300
300
300
300
300
300
300
300
300
300
300
300
300
300
300
300
300
300
300
300
300
300
300
300
300
300
300
300
300
299.999
299.999
299.999
299.999
299.999
299.998
299.998
299.997
299.997
299.996
299.995
299.994
299.993
299.992
299.99
299.988
299.986
299.984
299.981
299.977
299.974
299.97
299.965
299.959
299.953
299.947
299.939
299.931
299.921
299.911
299.9
299.887
299.874
299.859
299.843
299.825
299.806
299.786
299.764
299.74
299.715
299.687
299.658
299.627
299.595
299.56
299.523
299.484
299.443
299.401
299.356
299.309
299.26
299.209
299.156
299.101
299.045
298.986
298.926
298.864
298.801
298.736
298.67
298.602
298.534
298.464
298.393
298.322
298.249
298.176
298.102
298.028
297.954
297.879
297.804
297.729
297.653
297.577
297.502
297.426
297.35
297.274
297.197
297.12
297.043
296.965
296.886
296.806
296.724
296.641
296.556
296.468
296.376
296.281
296.181
296.076
295.965
295.846
295.719
295.581
295.432
295.269
295.09
294.894
294.677
294.437
294.17
293.872
293.541
293.17
292.756
292.293
291.774
291.195
290.548
289.825
289.02
288.123
287.127
286.022
284.8
283.452
281.967
280.337
278.552
276.604
274.483
272.182
269.694
267.01
264.127
261.038
257.741
254.232
250.512
246.58
242.438
238.09
233.541
228.796
223.866
218.758
213.483
208.054
202.485
196.789
190.981
185.078
179.096
173.052
166.963
160.846
154.719
148.598
142.499
136.439
130.432
124.494
118.639
112.878
107.226
101.692
96.2877
91.0217
85.9024
80.9373
76.1325
71.4935
67.0246
62.7291
58.6096
54.6675
50.9036
47.3175
43.9083
40.6741
37.6121
34.7187
31.9888
29.4157
26.9899
24.697
22.5139
20.4014
18.2903
16.055
13.4641
10.0866
5.11633
-2.95941
-16.9833
-42.3005
-88.9642
-175.883
-338.616
-644.03
-1217.83
-2296.26
-4323.31
-8133
-15291.8
-28741.3
-54002.6
300
300
300
300
300
300
300
300
300
300
300
300
300
300
300
300
300
300
300
300
300
300
300
300
300
300
300
300
300
300
300
300
300
300
300
300
300
300
300
300
300
300
300
300
300
300
300
300
300
300
300
300
299.999
299.999
299.999
299.999
299.999
299.998
299.998
299.997
299.997
299.996
299.995
299.994
299.992
299.991
299.989
299.987
299.984
299.981
299.978
299.974
299.969
299.964
299.959
299.952
299.945
299.937
299.928
299.918
299.907
299.895
299.881
299.866
299.85
299.832
299.813
299.792
299.769
299.745
299.718
299.69
299.659
299.627
299.592
299.555
299.516
299.474
299.43
299.383
299.335
299.283
299.23
299.174
299.115
299.055
298.992
298.926
298.859
298.79
298.718
298.645
298.57
298.494
298.416
298.337
298.256
298.175
298.092
298.009
297.925
297.841
297.756
297.671
297.586
297.501
297.417
297.332
297.248
297.164
297.08
296.997
296.914
296.832
296.75
296.668
296.586
296.505
296.423
296.341
296.259
296.176
296.091
296.005
295.916
295.825
295.73
295.632
295.528
295.418
295.302
295.177
295.042
294.896
294.737
294.563
294.371
294.158
293.923
293.661
293.369
293.043
292.678
292.27
291.813
291.301
290.728
290.087
289.371
288.572
287.682
286.693
285.595
284.38
283.038
281.559
279.935
278.156
276.214
274.099
271.803
269.319
266.641
263.762
260.677
257.383
253.878
250.161
246.231
242.092
237.746
233.198
228.456
223.526
218.419
213.145
207.717
202.147
196.451
190.644
184.741
178.759
172.716
166.627
160.511
154.384
148.264
142.166
136.108
130.104
124.168
118.316
112.56
106.912
101.383
95.9838
90.7237
85.611
80.6529
75.8557
71.2246
66.7641
62.4774
58.3669
54.4341
50.6796
47.1032
43.7037
40.4793
37.4271
34.5434
31.8231
29.2595
26.8429
24.5591
22.3847
20.2806
18.1774
15.9494
13.3649
9.99265
5.02593
-3.04905
-17.0766
-42.4045
-89.0905
-176.05
-338.857
-644.393
-1218.4
-2297.18
-4324.79
-8135.44
-15295.9
-28748.1
-54014.3
300
300
300
300
300
300
300
300
300
300
300
300
300
300
300
300
300
300
300
300
300
300
300
300
300
300
300
300
300
300
300
300
300
300
300
300
300
300
300
300
300
300
300
300
300
300
300
300
300
300
300
299.999
299.999
299.999
299.999
299.998
299.998
299.998
299.997
299.996
299.995
299.994
299.993
299.991
299.989
299.987
299.985
299.982
299.978
299.974
299.97
299.964
299.959
299.952
299.944
299.936
299.926
299.915
299.904
299.89
299.876
299.86
299.842
299.823
299.801
299.778
299.753
299.726
299.697
299.665
299.631
299.594
299.555
299.513
299.469
299.422
299.372
299.319
299.264
299.205
299.144
299.08
299.013
298.943
298.87
298.795
298.717
298.637
298.555
298.47
298.383
298.295
298.204
298.112
298.019
297.924
297.828
297.732
297.635
297.537
297.44
297.342
297.244
297.147
297.05
296.953
296.858
296.763
296.669
296.576
296.484
296.393
296.304
296.215
296.127
296.041
295.955
295.87
295.786
295.702
295.618
295.533
295.449
295.362
295.275
295.185
295.092
294.996
294.895
294.789
294.676
294.555
294.425
294.284
294.13
293.961
293.775
293.569
293.34
293.084
292.799
292.48
292.123
291.722
291.272
290.768
290.203
289.57
288.862
288.07
287.188
286.207
285.116
283.909
282.574
281.103
279.486
277.714
275.777
273.668
271.379
268.9
266.227
263.352
260.272
256.983
253.481
249.767
245.84
241.703
237.36
232.814
228.073
223.144
218.038
212.765
207.337
201.769
196.073
190.266
184.363
178.382
172.338
166.25
160.135
154.009
147.891
141.795
135.739
129.737
123.806
117.957
112.205
106.562
101.039
95.6467
90.3936
85.2884
80.3384
75.5498
70.9278
66.4767
62.1999
58.0995
54.1772
50.4334
46.8677
43.4791
40.2656
37.2243
34.3513
31.6417
29.0886
26.6823
24.4084
22.2437
20.1488
18.0542
15.8342
13.2569
9.89048
4.92767
-3.14639
-17.1777
-42.5172
-89.2273
-176.232
-339.116
-644.786
-1219.01
-2298.16
-4326.39
-8138.07
-15300.2
-28755.4
-54026.9
300
300
300
300
300
300
300
300
300
300
300
300
300
300
300
300
300
300
300
300
300
300
300
300
300
300
300
300
300
300
300
300
300
300
300
300
300
300
300
300
300
300
300
300
300
300
300
300
300
300
299.999
299.999
299.999
299.999
299.998
299.998
299.997
299.997
299.996
299.995
299.993
299.992
299.99
299.988
299.985
299.982
299.979
299.975
299.97
299.965
299.959
299.952
299.944
299.935
299.925
299.914
299.901
299.887
299.871
299.854
299.835
299.813
299.79
299.765
299.737
299.707
299.675
299.64
299.602
299.561
299.517
299.47
299.421
299.367
299.311
299.251
299.188
299.121
299.051
298.978
298.901
298.821
298.737
298.651
298.561
298.468
298.373
298.274
298.174
298.07
297.965
297.858
297.749
297.639
297.527
297.415
297.302
297.188
297.074
296.96
296.847
296.734
296.622
296.51
296.4
296.291
296.184
296.079
295.975
295.872
295.772
295.674
295.578
295.483
295.391
295.3
295.211
295.124
295.038
294.953
294.869
294.785
294.701
294.617
294.532
294.445
294.356
294.264
294.168
294.067
293.959
293.845
293.721
293.586
293.44
293.278
293.099
292.901
292.68
292.433
292.157
291.847
291.498
291.106
290.665
290.17
289.614
288.99
288.291
287.509
286.636
285.663
284.582
283.383
282.056
280.593
278.984
277.22
275.291
273.188
270.905
268.433
265.765
262.896
259.82
256.535
253.037
249.327
245.403
241.269
236.927
232.384
227.644
222.717
217.612
212.34
206.913
201.345
195.649
189.843
183.94
177.96
171.917
165.83
159.716
153.592
147.475
141.382
135.328
129.33
123.403
117.559
111.813
106.176
100.659
95.2741
90.0291
84.9325
79.9918
75.2129
70.6012
66.1609
61.8951
57.8062
53.8956
50.1636
46.61
43.2335
40.0321
37.0028
34.1419
31.444
28.9025
26.5075
24.2445
22.0904
20.0055
17.9205
15.7093
13.1398
9.7798
4.82132
-3.25163
-17.287
-42.6387
-89.3745
-176.427
-339.395
-645.207
-1219.67
-2299.22
-4328.11
-8140.88
-15304.9
-28763.2
-54040.3
300
300
300
300
300
300
300
300
300
300
300
300
300
300
300
300
300
300
300
300
300
300
300
300
300
300
300
300
300
300
300
300
300
300
300
300
300
300
300
300
300
300
300
300
300
300
300
300
300
299.999
299.999
299.999
299.999
299.998
299.998
299.997
299.996
299.995
299.994
299.993
299.991
299.989