/*--------------------------------*- C++ -*----------------------------------*\
| =========                 |                                                 |
| \\      /  F ield         | OpenFOAM: The Open Source CFD Toolbox           |
|  \\    /   O peration     | Version:  2306                                  |
|   \\  /    A nd           | Website:  www.openfoam.com                      |
|    \\/     M anipulation  |                                                 |
\*---------------------------------------------------------------------------*/
FoamFile
{
    version     2.0;
    format      ascii;
    arch        "LSB;label=32;scalar=64";
    class       volVectorField;
    location    "5.5";
    object      U;
}
// * * * * * * * * * * * * * * * * * * * * * * * * * * * * * * * * * * * * * //

dimensions      [0 1 -1 0 0 0 0];

internalField   nonuniform List<vector> 
32768
(
(1.00001 -4.04977e-05 0)
(1.00017 -0.000121696 0)
(1.00049 -0.000203043 0)
(1.00097 -0.000284543 0)
(1.00163 -0.0003663 0)
(1.00244 -0.000448412 0)
(1.00342 -0.000530945 0)
(1.00457 -0.000613955 0)
(1.00588 -0.000697502 0)
(1.00736 -0.000781649 0)
(1.009 -0.000866452 0)
(1.01082 -0.00095196 0)
(1.01281 -0.00103822 0)
(1.01498 -0.00112526 0)
(1.01731 -0.00121311 0)
(1.01983 -0.00130179 0)
(1.02252 -0.00139131 0)
(1.02539 -0.00148168 0)
(1.02845 -0.00157287 0)
(1.03169 -0.00166488 0)
(1.03511 -0.00175766 0)
(1.03872 -0.00185117 0)
(1.04251 -0.00194535 0)
(1.0465 -0.00204013 0)
(1.05068 -0.00213542 0)
(1.05504 -0.00223112 0)
(1.0596 -0.00232712 0)
(1.06435 -0.00242328 0)
(1.0693 -0.00251945 0)
(1.07443 -0.00261549 0)
(1.07976 -0.00271121 0)
(1.08528 -0.00280642 0)
(1.09099 -0.00290093 0)
(1.09688 -0.00299452 0)
(1.10297 -0.00308696 0)
(1.10923 -0.00317803 0)
(1.11568 -0.00326747 0)
(1.1223 -0.00335504 0)
(1.1291 -0.00344049 0)
(1.13607 -0.00352354 0)
(1.1432 -0.00360395 0)
(1.15049 -0.00368146 0)
(1.15793 -0.00375581 0)
(1.16552 -0.00382675 0)
(1.17324 -0.00389404 0)
(1.1811 -0.00395746 0)
(1.18907 -0.00401678 0)
(1.19717 -0.00407181 0)
(1.20537 -0.00412236 0)
(1.21366 -0.00416828 0)
(1.22204 -0.00420941 0)
(1.2305 -0.00424564 0)
(1.23903 -0.00427687 0)
(1.24762 -0.00430303 0)
(1.25625 -0.00432407 0)
(1.26492 -0.00433996 0)
(1.27361 -0.00435072 0)
(1.28233 -0.00435635 0)
(1.29104 -0.00435691 0)
(1.29976 -0.00435247 0)
(1.30846 -0.00434311 0)
(1.31714 -0.00432895 0)
(1.32578 -0.0043101 0)
(1.33438 -0.00428671 0)
(1.34293 -0.00425892 0)
(1.35142 -0.00422689 0)
(1.35984 -0.00419078 0)
(1.36819 -0.00415078 0)
(1.37645 -0.00410704 0)
(1.38462 -0.00405974 0)
(1.39269 -0.00400906 0)
(1.40066 -0.00395516 0)
(1.40851 -0.00389819 0)
(1.41625 -0.00383831 0)
(1.42387 -0.00377566 0)
(1.43136 -0.00371037 0)
(1.43871 -0.00364256 0)
(1.44593 -0.00357233 0)
(1.453 -0.00349978 0)
(1.45993 -0.00342497 0)
(1.46671 -0.00334798 0)
(1.47332 -0.00326885 0)
(1.47978 -0.00318761 0)
(1.48608 -0.00310429 0)
(1.4922 -0.0030189 0)
(1.49815 -0.00293142 0)
(1.50393 -0.00284185 0)
(1.50952 -0.00275017 0)
(1.51493 -0.00265635 0)
(1.52015 -0.00256034 0)
(1.52517 -0.00246213 0)
(1.53 -0.00236165 0)
(1.53462 -0.00225888 0)
(1.53903 -0.00215377 0)
(1.54323 -0.00204629 0)
(1.54722 -0.00193641 0)
(1.55098 -0.00182411 0)
(1.55452 -0.00170937 0)
(1.55782 -0.00159219 0)
(1.56089 -0.00147257 0)
(1.56371 -0.00135054 0)
(1.56629 -0.00122613 0)
(1.56862 -0.00109938 0)
(1.57069 -0.000970359 0)
(1.5725 -0.00083914 0)
(1.57404 -0.000705815 0)
(1.57532 -0.000570489 0)
(1.57633 -0.000433284 0)
(1.57706 -0.000294335 0)
(1.5775 -0.000153791 0)
(1.57767 -1.18093e-05 0)
(1.57755 0.000131416 0)
(1.57714 0.000275711 0)
(1.57645 0.000420882 0)
(1.57546 0.000566719 0)
(1.57418 0.000713007 0)
(1.57261 0.000859523 0)
(1.57074 0.00100604 0)
(1.56858 0.00115231 0)
(1.56613 0.00129811 0)
(1.56339 0.00144319 0)
(1.56036 0.0015873 0)
(1.55704 0.00173019 0)
(1.55343 0.00187163 0)
(1.54955 0.00201135 0)
(1.54538 0.00214911 0)
(1.54095 0.00228467 0)
(1.53624 0.00241779 0)
(1.53127 0.00254822 0)
(1.52604 0.00267572 0)
(1.52056 0.00280006 0)
(1.51484 0.00292102 0)
(1.50888 0.00303838 0)
(1.50268 0.00315192 0)
(1.49626 0.00326143 0)
(1.48963 0.00336671 0)
(1.48279 0.00346757 0)
(1.47575 0.00356383 0)
(1.46853 0.00365532 0)
(1.46113 0.00374187 0)
(1.45356 0.00382334 0)
(1.44583 0.0038996 0)
(1.43795 0.00397051 0)
(1.42994 0.00403597 0)
(1.4218 0.00409589 0)
(1.41355 0.00415019 0)
(1.40519 0.0041988 0)
(1.39675 0.00424168 0)
(1.38822 0.00427881 0)
(1.37962 0.00431016 0)
(1.37097 0.00433576 0)
(1.36227 0.00435561 0)
(1.35354 0.00436977 0)
(1.34479 0.0043783 0)
(1.33602 0.00438126 0)
(1.32726 0.00437876 0)
(1.3185 0.00437091 0)
(1.30977 0.00435782 0)
(1.30106 0.00433965 0)
(1.2924 0.00431654 0)
(1.28379 0.00428867 0)
(1.27524 0.00425621 0)
(1.26676 0.00421936 0)
(1.25836 0.0041783 0)
(1.25004 0.00413326 0)
(1.24182 0.00408445 0)
(1.2337 0.00403207 0)
(1.22569 0.00397637 0)
(1.21779 0.00391757 0)
(1.21002 0.0038559 0)
(1.20237 0.00379158 0)
(1.19485 0.00372484 0)
(1.18746 0.00365592 0)
(1.18022 0.00358503 0)
(1.17312 0.0035124 0)
(1.16617 0.00343823 0)
(1.15937 0.00336275 0)
(1.15272 0.00328614 0)
(1.14622 0.00320859 0)
(1.13988 0.0031303 0)
(1.1337 0.00305142 0)
(1.12767 0.00297211 0)
(1.12181 0.00289252 0)
(1.1161 0.00281275 0)
(1.11056 0.00273291 0)
(1.10517 0.00265306 0)
(1.09995 0.00257323 0)
(1.09488 0.00249343 0)
(1.08997 0.00241361 0)
(1.08523 0.00233369 0)
(1.08064 0.00225358 0)
(1.07621 0.00217312 0)
(1.07195 0.00209217 0)
(1.06784 0.00201056 0)
(1.0639 0.00192817 0)
(1.06013 0.00184487 0)
(1.05653 0.00176063 0)
(1.05309 0.00167547 0)
(1.04983 0.00158952 0)
(1.04673 0.00150299 0)
(1.04381 0.00141621 0)
(1.04107 0.0013296 0)
(1.0385 0.00124366 0)
(1.0361 0.00115895 0)
(1.03386 0.00107609 0)
(1.03179 0.000995682 0)
(1.02988 0.000918334 0)
(1.02812 0.000844594 0)
(1.0265 0.00077494 0)
(1.02502 0.00070976 0)
(1.02366 0.00064934 0)
(1.02242 0.000593852 0)
(1.02129 0.000543359 0)
(1.02025 0.000497819 0)
(1.0193 0.000457093 0)
(1.01842 0.000420963 0)
(1.01761 0.000389143 0)
(1.01687 0.000361304 0)
(1.01617 0.000337081 0)
(1.01552 0.000316099 0)
(1.01491 0.000297978 0)
(1.01433 0.000282352 0)
(1.01378 0.000268873 0)
(1.01325 0.00025722 0)
(1.01275 0.000247103 0)
(1.01226 0.000238266 0)
(1.0118 0.000230485 0)
(1.01134 0.00022357 0)
(1.0109 0.000217359 0)
(1.01047 0.000211721 0)
(1.01005 0.000206548 0)
(1.00965 0.000201754 0)
(1.00925 0.00019727 0)
(1.00886 0.000193046 0)
(1.00848 0.000189042 0)
(1.0081 0.000185229 0)
(1.00774 0.000181587 0)
(1.00738 0.000178101 0)
(1.00702 0.000174762 0)
(1.00668 0.000171566 0)
(1.00634 0.00016851 0)
(1.006 0.000165594 0)
(1.00568 0.00016282 0)
(1.00535 0.00016019 0)
(1.00503 0.000157709 0)
(1.00472 0.00015538 0)
(1.00441 0.000153208 0)
(1.00411 0.000151199 0)
(1.00381 0.000149353 0)
(1.00351 0.000147686 0)
(1.00322 0.000146179 0)
(1.00292 0.000144887 0)
(1.00265 0.000143702 0)
(1.00233 0.000142844 0)
(1.00211 0.000141897 0)
(1.00165 0.000141547 0)
(1.00001 -0.000121669 0)
(1.00017 -0.000365309 0)
(1.00049 -0.000609309 0)
(1.00097 -0.000853805 0)
(1.00162 -0.00109907 0)
(1.00244 -0.00134538 0)
(1.00342 -0.00159293 0)
(1.00456 -0.00184191 0)
(1.00587 -0.00209251 0)
(1.00735 -0.00234492 0)
(1.009 -0.0025993 0)
(1.01082 -0.0028558 0)
(1.0128 -0.00311455 0)
(1.01497 -0.00337566 0)
(1.0173 -0.00363921 0)
(1.01982 -0.00390526 0)
(1.02251 -0.00417385 0)
(1.02538 -0.00444497 0)
(1.02843 -0.0047186 0)
(1.03167 -0.00499466 0)
(1.03509 -0.00527306 0)
(1.0387 -0.00555367 0)
(1.04249 -0.0058363 0)
(1.04648 -0.00612073 0)
(1.05065 -0.00640671 0)
(1.05502 -0.00669393 0)
(1.05958 -0.00698205 0)
(1.06433 -0.00727067 0)
(1.06928 -0.00755936 0)
(1.07441 -0.00784763 0)
(1.07974 -0.00813496 0)
(1.08526 -0.00842079 0)
(1.09097 -0.00870452 0)
(1.09687 -0.0089855 0)
(1.10296 -0.00926305 0)
(1.10923 -0.00953647 0)
(1.11568 -0.00980503 0)
(1.12231 -0.010068 0)
(1.12912 -0.0103245 0)
(1.13609 -0.0105739 0)
(1.14323 -0.0108154 0)
(1.15052 -0.0110481 0)
(1.15797 -0.0112714 0)
(1.16556 -0.0114844 0)
(1.1733 -0.0116865 0)
(1.18116 -0.0118769 0)
(1.18915 -0.012055 0)
(1.19725 -0.0122203 0)
(1.20546 -0.012372 0)
(1.21377 -0.0125099 0)
(1.22216 -0.0126334 0)
(1.23063 -0.0127421 0)
(1.23917 -0.0128358 0)
(1.24777 -0.0129143 0)
(1.25641 -0.0129774 0)
(1.26509 -0.0130251 0)
(1.2738 -0.0130573 0)
(1.28252 -0.0130741 0)
(1.29125 -0.0130757 0)
(1.29998 -0.0130622 0)
(1.30869 -0.013034 0)
(1.31738 -0.0129914 0)
(1.32603 -0.0129347 0)
(1.33464 -0.0128643 0)
(1.3432 -0.0127808 0)
(1.3517 -0.0126845 0)
(1.36013 -0.012576 0)
(1.36849 -0.0124558 0)
(1.37676 -0.0123244 0)
(1.38494 -0.0121823 0)
(1.39302 -0.0120301 0)
(1.40099 -0.0118682 0)
(1.40885 -0.0116972 0)
(1.4166 -0.0115174 0)
(1.42422 -0.0113293 0)
(1.43172 -0.0111333 0)
(1.43908 -0.0109297 0)
(1.4463 -0.0107189 0)
(1.45338 -0.0105012 0)
(1.46031 -0.0102767 0)
(1.46709 -0.0100456 0)
(1.47372 -0.00980819 0)
(1.48018 -0.00956444 0)
(1.48648 -0.00931445 0)
(1.49261 -0.00905824 0)
(1.49857 -0.0087958 0)
(1.50434 -0.00852709 0)
(1.50994 -0.00825205 0)
(1.51536 -0.00797058 0)
(1.52058 -0.00768258 0)
(1.52561 -0.00738793 0)
(1.53044 -0.00708652 0)
(1.53507 -0.00677821 0)
(1.53949 -0.00646288 0)
(1.54369 -0.00614045 0)
(1.54768 -0.0058108 0)
(1.55145 -0.00547387 0)
(1.55499 -0.00512962 0)
(1.5583 -0.00477804 0)
(1.56137 -0.00441914 0)
(1.5642 -0.00405299 0)
(1.56678 -0.00367967 0)
(1.56911 -0.00329934 0)
(1.57119 -0.00291217 0)
(1.57301 -0.0025184 0)
(1.57456 -0.00211829 0)
(1.57584 -0.00171217 0)
(1.57685 -0.0013004 0)
(1.57758 -0.000883387 0)
(1.57803 -0.000461578 0)
(1.5782 -3.54549e-05 0)
(1.57808 0.000394428 0)
(1.57768 0.000827528 0)
(1.57698 0.00126326 0)
(1.57599 0.001701 0)
(1.57471 0.00214009 0)
(1.57314 0.00257987 0)
(1.57127 0.00301965 0)
(1.56911 0.00345872 0)
(1.56666 0.00389636 0)
(1.56391 0.00433183 0)
(1.56088 0.0047644 0)
(1.55755 0.00519334 0)
(1.55395 0.00561788 0)
(1.55006 0.00603728 0)
(1.54589 0.00645081 0)
(1.54145 0.00685773 0)
(1.53673 0.0072573 0)
(1.53176 0.0076488 0)
(1.52652 0.00803152 0)
(1.52103 0.00840477 0)
(1.5153 0.00876786 0)
(1.50933 0.00912012 0)
(1.50312 0.00946092 0)
(1.4967 0.00978962 0)
(1.49005 0.0101056 0)
(1.4832 0.0104084 0)
(1.47616 0.0106973 0)
(1.46892 0.0109719 0)
(1.46151 0.0112317 0)
(1.45392 0.0114762 0)
(1.44618 0.0117051 0)
(1.43829 0.0119179 0)
(1.43027 0.0121143 0)
(1.42212 0.0122941 0)
(1.41385 0.0124571 0)
(1.40548 0.0126029 0)
(1.39702 0.0127316 0)
(1.38848 0.0128429 0)
(1.37987 0.012937 0)
(1.37121 0.0130137 0)
(1.3625 0.0130732 0)
(1.35375 0.0131156 0)
(1.34498 0.0131411 0)
(1.33621 0.0131499 0)
(1.32743 0.0131423 0)
(1.31866 0.0131186 0)
(1.30991 0.0130791 0)
(1.3012 0.0130245 0)
(1.29252 0.012955 0)
(1.2839 0.0128712 0)
(1.27534 0.0127736 0)
(1.26685 0.0126628 0)
(1.25844 0.0125394 0)
(1.25011 0.0124041 0)
(1.24188 0.0122574 0)
(1.23375 0.0121001 0)
(1.22573 0.0119327 0)
(1.21783 0.0117561 0)
(1.21004 0.0115708 0)
(1.20238 0.0113776 0)
(1.19486 0.0111772 0)
(1.18747 0.0109702 0)
(1.18022 0.0107573 0)
(1.17312 0.0105392 0)
(1.16616 0.0103165 0)
(1.15935 0.0100898 0)
(1.1527 0.00985979 0)
(1.1462 0.00962696 0)
(1.13986 0.00939189 0)
(1.13367 0.00915508 0)
(1.12765 0.00891699 0)
(1.12178 0.00867804 0)
(1.11607 0.00843859 0)
(1.11053 0.00819892 0)
(1.10514 0.00795922 0)
(1.09991 0.00771961 0)
(1.09485 0.00748008 0)
(1.08994 0.00724051 0)
(1.08519 0.00700067 0)
(1.08061 0.00676024 0)
(1.07618 0.0065188 0)
(1.07191 0.00627589 0)
(1.06781 0.00603103 0)
(1.06388 0.0057838 0)
(1.0601 0.00553389 0)
(1.0565 0.00528115 0)
(1.05306 0.00502568 0)
(1.0498 0.00476784 0)
(1.04671 0.00450827 0)
(1.04379 0.00424795 0)
(1.04105 0.00398814 0)
(1.03848 0.00373034 0)
(1.03608 0.00347625 0)
(1.03384 0.00322769 0)
(1.03177 0.00298651 0)
(1.02986 0.0027545 0)
(1.0281 0.0025333 0)
(1.02649 0.00232437 0)
(1.025 0.00212886 0)
(1.02365 0.00194762 0)
(1.02241 0.00178118 0)
(1.02128 0.00162973 0)
(1.02024 0.00149313 0)
(1.01929 0.00137097 0)
(1.01841 0.00126259 0)
(1.0176 0.00116715 0)
(1.01685 0.00108365 0)
(1.01616 0.001011 0)
(1.01551 0.000948065 0)
(1.0149 0.000893716 0)
(1.01432 0.000846849 0)
(1.01377 0.000806422 0)
(1.01324 0.000771473 0)
(1.01274 0.000741131 0)
(1.01225 0.000714627 0)
(1.01179 0.00069129 0)
(1.01133 0.000670549 0)
(1.01089 0.000651921 0)
(1.01046 0.000635009 0)
(1.01005 0.000619491 0)
(1.00964 0.000605109 0)
(1.00924 0.00059166 0)
(1.00885 0.000578987 0)
(1.00847 0.000566974 0)
(1.00809 0.000555534 0)
(1.00773 0.000544605 0)
(1.00737 0.000534145 0)
(1.00702 0.000524127 0)
(1.00667 0.000514536 0)
(1.00633 0.000505365 0)
(1.006 0.000496615 0)
(1.00567 0.000488291 0)
(1.00535 0.0004804 0)
(1.00503 0.000472954 0)
(1.00472 0.000465966 0)
(1.00441 0.000459448 0)
(1.0041 0.000453416 0)
(1.00381 0.000447881 0)
(1.00351 0.000442869 0)
(1.00322 0.000438368 0)
(1.00292 0.000434442 0)
(1.00264 0.000431011 0)
(1.00233 0.000428228 0)
(1.00211 0.000425942 0)
(1.00165 0.000424186 0)
(1.00001 -0.000202868 0)
(1.00017 -0.000608802 0)
(1.00049 -0.00101525 0)
(1.00097 -0.00142259 0)
(1.00162 -0.00183122 0)
(1.00244 -0.00224156 0)
(1.00341 -0.00265396 0)
(1.00456 -0.00306875 0)
(1.00586 -0.00348626 0)
(1.00734 -0.0039068 0)
(1.00898 -0.00433065 0)
(1.0108 -0.00475805 0)
(1.01279 -0.00518924 0)
(1.01495 -0.00562437 0)
(1.01728 -0.00606361 0)
(1.01979 -0.00650705 0)
(1.02248 -0.00695474 0)
(1.02535 -0.0074067 0)
(1.0284 -0.00786286 0)
(1.03163 -0.00832313 0)
(1.03505 -0.00878734 0)
(1.03866 -0.00925526 0)
(1.04245 -0.0097266 0)
(1.04644 -0.010201 0)
(1.05061 -0.010678 0)
(1.05498 -0.0111572 0)
(1.05954 -0.0116378 0)
(1.06429 -0.0121194 0)
(1.06924 -0.0126011 0)
(1.07438 -0.0130822 0)
(1.07971 -0.0135618 0)
(1.08523 -0.0140389 0)
(1.09095 -0.0145125 0)
(1.09685 -0.0149816 0)
(1.10295 -0.015445 0)
(1.10923 -0.0159016 0)
(1.11569 -0.01635 0)
(1.12233 -0.0167892 0)
(1.12914 -0.0172177 0)
(1.13613 -0.0176342 0)
(1.14328 -0.0180375 0)
(1.15059 -0.0184263 0)
(1.15805 -0.0187992 0)
(1.16566 -0.0191551 0)
(1.17341 -0.0194926 0)
(1.1813 -0.0198107 0)
(1.1893 -0.0201083 0)
(1.19743 -0.0203843 0)
(1.20566 -0.0206378 0)
(1.21398 -0.020868 0)
(1.2224 -0.0210742 0)
(1.23089 -0.0212558 0)
(1.23945 -0.0214122 0)
(1.24807 -0.0215432 0)
(1.25674 -0.0216484 0)
(1.26545 -0.0217278 0)
(1.27418 -0.0217813 0)
(1.28292 -0.0218092 0)
(1.29167 -0.0218116 0)
(1.30042 -0.0217888 0)
(1.30916 -0.0217414 0)
(1.31787 -0.0216699 0)
(1.32654 -0.0215749 0)
(1.33517 -0.0214571 0)
(1.34375 -0.0213173 0)
(1.35227 -0.0211563 0)
(1.36072 -0.0209748 0)
(1.36909 -0.0207738 0)
(1.37738 -0.0205542 0)
(1.38557 -0.0203168 0)
(1.39367 -0.0200625 0)
(1.40166 -0.0197921 0)
(1.40954 -0.0195064 0)
(1.4173 -0.0192062 0)
(1.42493 -0.0188923 0)
(1.43244 -0.0185652 0)
(1.43981 -0.0182255 0)
(1.44705 -0.0178738 0)
(1.45414 -0.0175106 0)
(1.46108 -0.0171362 0)
(1.46787 -0.0167509 0)
(1.4745 -0.0163549 0)
(1.48098 -0.0159486 0)
(1.48728 -0.0155318 0)
(1.49342 -0.0151047 0)
(1.49939 -0.0146673 0)
(1.50518 -0.0142195 0)
(1.51079 -0.0137611 0)
(1.51621 -0.0132921 0)
(1.52145 -0.0128121 0)
(1.52648 -0.0123211 0)
(1.53132 -0.0118188 0)
(1.53596 -0.011305 0)
(1.54039 -0.0107795 0)
(1.54461 -0.0102421 0)
(1.54861 -0.00969271 0)
(1.55239 -0.00913113 0)
(1.55594 -0.00855732 0)
(1.55926 -0.00797124 0)
(1.56234 -0.00737292 0)
(1.56518 -0.00676247 0)
(1.56777 -0.00614003 0)
(1.57011 -0.00550585 0)
(1.5722 -0.00486023 0)
(1.57402 -0.00420354 0)
(1.57558 -0.00353625 0)
(1.57687 -0.00285889 0)
(1.57788 -0.00217206 0)
(1.57862 -0.00147645 0)
(1.57908 -0.000772806 0)
(1.57925 -6.19388e-05 0)
(1.57914 0.000655259 0)
(1.57874 0.00137785 0)
(1.57804 0.00210486 0)
(1.57706 0.00283524 0)
(1.57578 0.0035679 0)
(1.5742 0.00430173 0)
(1.57233 0.00503557 0)
(1.57017 0.00576824 0)
(1.56771 0.00649853 0)
(1.56496 0.00722523 0)
(1.56192 0.0079471 0)
(1.55859 0.00866289 0)
(1.55498 0.00937137 0)
(1.55108 0.0100713 0)
(1.5469 0.0107614 0)
(1.54244 0.0114405 0)
(1.53772 0.0121073 0)
(1.53273 0.0127607 0)
(1.52748 0.0133994 0)
(1.52197 0.0140223 0)
(1.51622 0.0146282 0)
(1.51023 0.0152161 0)
(1.50401 0.0157849 0)
(1.49756 0.0163334 0)
(1.4909 0.0168608 0)
(1.48403 0.017366 0)
(1.47696 0.0178482 0)
(1.4697 0.0183064 0)
(1.46226 0.0187399 0)
(1.45466 0.0191479 0)
(1.44689 0.0195298 0)
(1.43898 0.0198849 0)
(1.43093 0.0202127 0)
(1.42275 0.0205126 0)
(1.41446 0.0207844 0)
(1.40606 0.0210277 0)
(1.39757 0.0212422 0)
(1.38901 0.0214279 0)
(1.38037 0.0215846 0)
(1.37168 0.0217124 0)
(1.36294 0.0218114 0)
(1.35417 0.0218819 0)
(1.34538 0.0219241 0)
(1.33657 0.0219384 0)
(1.32777 0.0219253 0)
(1.31897 0.0218854 0)
(1.3102 0.0218192 0)
(1.30146 0.0217276 0)
(1.29277 0.0216111 0)
(1.28412 0.0214708 0)
(1.27554 0.0213076 0)
(1.26703 0.0211222 0)
(1.25859 0.0209159 0)
(1.25025 0.0206896 0)
(1.242 0.0204443 0)
(1.23385 0.0201813 0)
(1.22581 0.0199016 0)
(1.21789 0.0196064 0)
(1.21009 0.0192968 0)
(1.20242 0.018974 0)
(1.19488 0.0186391 0)
(1.18748 0.0182933 0)
(1.18022 0.0179377 0)
(1.17311 0.0175734 0)
(1.16614 0.0172014 0)
(1.15933 0.0168229 0)
(1.15266 0.0164388 0)
(1.14616 0.01605 0)
(1.13981 0.0156575 0)
(1.13362 0.0152622 0)
(1.12759 0.0148647 0)
(1.12172 0.0144659 0)
(1.11601 0.0140662 0)
(1.11046 0.0136662 0)
(1.10507 0.0132662 0)
(1.09984 0.0128664 0)
(1.09478 0.0124667 0)
(1.08987 0.012067 0)
(1.08512 0.011667 0)
(1.08054 0.0112659 0)
(1.07611 0.0108633 0)
(1.07185 0.0104582 0)
(1.06775 0.0100499 0)
(1.06382 0.00963772 0)
(1.06005 0.00922111 0)
(1.05644 0.00879983 0)
(1.05301 0.00837404 0)
(1.04975 0.00794431 0)
(1.04666 0.00751174 0)
(1.04375 0.00707794 0)
(1.041 0.006645 0)
(1.03843 0.00621542 0)
(1.03604 0.00579204 0)
(1.0338 0.00537788 0)
(1.03174 0.00497601 0)
(1.02983 0.00458943 0)
(1.02807 0.00422087 0)
(1.02645 0.00387273 0)
(1.02497 0.00354696 0)
(1.02362 0.00324498 0)
(1.02238 0.00296765 0)
(1.02125 0.00271529 0)
(1.02021 0.00248768 0)
(1.01926 0.00228414 0)
(1.01838 0.00210357 0)
(1.01758 0.00194456 0)
(1.01683 0.00180543 0)
(1.01614 0.00168439 0)
(1.01548 0.00157954 0)
(1.01487 0.00148899 0)
(1.01429 0.00141091 0)
(1.01375 0.00134356 0)
(1.01322 0.00128534 0)
(1.01272 0.00123479 0)
(1.01223 0.00119063 0)
(1.01177 0.00115174 0)
(1.01131 0.00111718 0)
(1.01087 0.00108614 0)
(1.01045 0.00105795 0)
(1.01003 0.00103209 0)
(1.00962 0.00100811 0)
(1.00922 0.00098569 0)
(1.00883 0.000964561 0)
(1.00845 0.000944528 0)
(1.00808 0.00092545 0)
(1.00771 0.000907221 0)
(1.00735 0.000889774 0)
(1.007 0.000873063 0)
(1.00666 0.000857064 0)
(1.00632 0.000841764 0)
(1.00598 0.000827166 0)
(1.00566 0.000813277 0)
(1.00534 0.000800111 0)
(1.00502 0.000787687 0)
(1.00471 0.000776025 0)
(1.0044 0.000765147 0)
(1.0041 0.000755079 0)
(1.0038 0.000745845 0)
(1.0035 0.000737465 0)
(1.00321 0.000729981 0)
(1.00292 0.00072337 0)
(1.00264 0.000717789 0)
(1.00233 0.000712905 0)
(1.00211 0.000709701 0)
(1.00165 0.000705947 0)
(1.00001 -0.000283796 0)
(1.00017 -0.000851615 0)
(1.00049 -0.00142016 0)
(1.00097 -0.00198999 0)
(1.00162 -0.00256167 0)
(1.00243 -0.00313573 0)
(1.0034 -0.00371269 0)
(1.00454 -0.00429304 0)
(1.00585 -0.00487722 0)
(1.00732 -0.00546569 0)
(1.00896 -0.00605882 0)
(1.01078 -0.00665698 0)
(1.01276 -0.00726047 0)
(1.01491 -0.00786956 0)
(1.01724 -0.00848446 0)
(1.01975 -0.00910529 0)
(1.02244 -0.00973216 0)
(1.0253 -0.0103651 0)
(1.02835 -0.0110039 0)
(1.03158 -0.0116487 0)
(1.035 -0.012299 0)
(1.0386 -0.0129546 0)
(1.04239 -0.0136151 0)
(1.04637 -0.0142799 0)
(1.05055 -0.0149486 0)
(1.05491 -0.0156203 0)
(1.05947 -0.0162943 0)
(1.06423 -0.0169696 0)
(1.06918 -0.0176452 0)
(1.07432 -0.0183201 0)
(1.07966 -0.0189929 0)
(1.08519 -0.0196623 0)
(1.09091 -0.020327 0)
(1.09683 -0.0209854 0)
(1.10293 -0.0216359 0)
(1.10922 -0.0222769 0)
(1.11569 -0.0229066 0)
(1.12235 -0.0235233 0)
(1.12918 -0.0241251 0)
(1.13618 -0.0247102 0)
(1.14335 -0.0252767 0)
(1.15069 -0.0258229 0)
(1.15817 -0.0263468 0)
(1.16581 -0.0268468 0)
(1.17358 -0.027321 0)
(1.1815 -0.0277679 0)
(1.18953 -0.028186 0)
(1.19768 -0.0285737 0)
(1.20595 -0.0289298 0)
(1.21431 -0.0292532 0)
(1.22275 -0.0295427 0)
(1.23128 -0.0297976 0)
(1.23988 -0.0300172 0)
(1.24853 -0.0302009 0)
(1.25723 -0.0303484 0)
(1.26597 -0.0304595 0)
(1.27474 -0.0305343 0)
(1.28352 -0.030573 0)
(1.29231 -0.0305758 0)
(1.30109 -0.0305433 0)
(1.30985 -0.0304762 0)
(1.3186 -0.0303752 0)
(1.3273 -0.0302412 0)
(1.33597 -0.0300752 0)
(1.34457 -0.0298783 0)
(1.35312 -0.0296516 0)
(1.3616 -0.0293964 0)
(1.37 -0.0291137 0)
(1.37831 -0.028805 0)
(1.38653 -0.0284714 0)
(1.39465 -0.0281141 0)
(1.40266 -0.0277343 0)
(1.41056 -0.0273333 0)
(1.41834 -0.0269119 0)
(1.42599 -0.0264714 0)
(1.43352 -0.0260125 0)
(1.44091 -0.0255362 0)
(1.44816 -0.0250431 0)
(1.45527 -0.0245339 0)
(1.46223 -0.0240092 0)
(1.46903 -0.0234694 0)
(1.47568 -0.0229147 0)
(1.48217 -0.0223455 0)
(1.48849 -0.0217619 0)
(1.49465 -0.021164 0)
(1.50063 -0.0205516 0)
(1.50643 -0.0199246 0)
(1.51206 -0.019283 0)
(1.51749 -0.0186264 0)
(1.52274 -0.0179546 0)
(1.5278 -0.0172674 0)
(1.53265 -0.0165643 0)
(1.53731 -0.0158451 0)
(1.54175 -0.0151096 0)
(1.54598 -0.0143573 0)
(1.55 -0.0135881 0)
(1.55379 -0.0128019 0)
(1.55736 -0.0119984 0)
(1.56069 -0.0111777 0)
(1.56379 -0.0103398 0)
(1.56665 -0.00948475 0)
(1.56925 -0.00861286 0)
(1.57161 -0.00772441 0)
(1.57371 -0.00681984 0)
(1.57554 -0.00589967 0)
(1.57711 -0.00496455 0)
(1.57841 -0.00401522 0)
(1.57944 -0.00305254 0)
(1.58019 -0.00207746 0)
(1.58065 -0.00109104 0)
(1.58083 -9.44245e-05 0)
(1.58073 0.000911145 0)
(1.58033 0.00192435 0)
(1.57964 0.00294379 0)
(1.57866 0.00396802 0)
(1.57738 0.0049955 0)
(1.5758 0.00602465 0)
(1.57393 0.00705386 0)
(1.57176 0.00808146 0)
(1.5693 0.00910576 0)
(1.56654 0.010125 0)
(1.56349 0.0111376 0)
(1.56015 0.0121416 0)
(1.55652 0.0131354 0)
(1.5526 0.0141172 0)
(1.54841 0.0150852 0)
(1.54394 0.0160378 0)
(1.53919 0.0169732 0)
(1.53418 0.0178898 0)
(1.52891 0.0187858 0)
(1.52339 0.0196596 0)
(1.51761 0.0205096 0)
(1.51159 0.0213343 0)
(1.50534 0.0221321 0)
(1.49887 0.0229017 0)
(1.49217 0.0236415 0)
(1.48527 0.0243502 0)
(1.47817 0.0250265 0)
(1.47087 0.0256693 0)
(1.4634 0.0262774 0)
(1.45576 0.0268497 0)
(1.44795 0.0273853 0)
(1.44 0.0278833 0)
(1.43191 0.0283429 0)
(1.4237 0.0287635 0)
(1.41537 0.0291445 0)
(1.40693 0.0294855 0)
(1.3984 0.0297862 0)
(1.38979 0.0300462 0)
(1.38112 0.0302656 0)
(1.37239 0.0304445 0)
(1.36361 0.0305829 0)
(1.3548 0.0306812 0)
(1.34596 0.0307398 0)
(1.33712 0.0307592 0)
(1.32827 0.0307402 0)
(1.31944 0.0306834 0)
(1.31063 0.0305898 0)
(1.30186 0.0304604 0)
(1.29313 0.0302963 0)
(1.28445 0.0300986 0)
(1.27583 0.0298686 0)
(1.26729 0.0296078 0)
(1.25882 0.0293174 0)
(1.25045 0.028999 0)
(1.24217 0.0286541 0)
(1.234 0.0282842 0)
(1.22593 0.027891 0)
(1.21799 0.027476 0)
(1.21017 0.0270409 0)
(1.20247 0.0265873 0)
(1.19492 0.0261168 0)
(1.1875 0.025631 0)
(1.18022 0.0251315 0)
(1.17309 0.0246198 0)
(1.16611 0.0240974 0)
(1.15928 0.0235659 0)
(1.15261 0.0230266 0)
(1.14609 0.0224809 0)
(1.13974 0.02193 0)
(1.13354 0.0213751 0)
(1.1275 0.0208174 0)
(1.12163 0.0202577 0)
(1.11591 0.019697 0)
(1.11036 0.0191359 0)
(1.10497 0.0185748 0)
(1.09974 0.0180141 0)
(1.09467 0.0174536 0)
(1.08977 0.0168933 0)
(1.08502 0.0163324 0)
(1.08044 0.0157703 0)
(1.07602 0.015206 0)
(1.07175 0.0146384 0)
(1.06766 0.0140665 0)
(1.06373 0.0134891 0)
(1.05996 0.0129057 0)
(1.05636 0.0123158 0)
(1.05293 0.0117196 0)
(1.04967 0.011118 0)
(1.04659 0.0105125 0)
(1.04368 0.00990532 0)
(1.04094 0.00929936 0)
(1.03837 0.00869814 0)
(1.03597 0.00810561 0)
(1.03375 0.00752599 0)
(1.03168 0.00696359 0)
(1.02977 0.00642257 0)
(1.02802 0.00590677 0)
(1.02641 0.00541956 0)
(1.02493 0.00496365 0)
(1.02357 0.00454102 0)
(1.02234 0.0041529 0)
(1.02121 0.00379973 0)
(1.02017 0.0034812 0)
(1.01922 0.00319636 0)
(1.01835 0.00294367 0)
(1.01754 0.00272114 0)
(1.0168 0.00252645 0)
(1.0161 0.00235708 0)
(1.01545 0.00221036 0)
(1.01484 0.00208367 0)
(1.01426 0.00197441 0)
(1.01371 0.00188017 0)
(1.01319 0.0017987 0)
(1.01269 0.00172796 0)
(1.0122 0.00166617 0)
(1.01174 0.00161175 0)
(1.01129 0.00156337 0)
(1.01085 0.00151991 0)
(1.01042 0.00148044 0)
(1.01 0.00144422 0)
(1.0096 0.00141064 0)
(1.0092 0.00137922 0)
(1.00881 0.00134962 0)
(1.00843 0.00132154 0)
(1.00806 0.0012948 0)
(1.00769 0.00126925 0)
(1.00733 0.00124479 0)
(1.00698 0.00122136 0)
(1.00664 0.00119893 0)
(1.0063 0.00117747 0)
(1.00597 0.001157 0)
(1.00564 0.00113752 0)
(1.00532 0.00111905 0)
(1.005 0.00110162 0)
(1.00469 0.00108526 0)
(1.00439 0.00106999 0)
(1.00408 0.00105586 0)
(1.00379 0.0010429 0)
(1.00349 0.00103114 0)
(1.0032 0.00102064 0)
(1.00291 0.00101134 0)
(1.00263 0.00100354 0)
(1.00232 0.000996613 0)
(1.0021 0.000992236 0)
(1.00165 0.000986705 0)
(1.00001 -0.000364475 0)
(1.00017 -0.00109372 0)
(1.00048 -0.00182391 0)
(1.00097 -0.00255578 0)
(1.00161 -0.00329006 0)
(1.00242 -0.00402743 0)
(1.00339 -0.00476857 0)
(1.00453 -0.0055141 0)
(1.00583 -0.00626462 0)
(1.0073 -0.00702071 0)
(1.00894 -0.00778287 0)
(1.01074 -0.00855157 0)
(1.01272 -0.00932722 0)
(1.01487 -0.0101102 0)
(1.0172 -0.0109007 0)
(1.0197 -0.0116989 0)
(1.02238 -0.012505 0)
(1.02524 -0.0133191 0)
(1.02828 -0.0141409 0)
(1.03151 -0.0149704 0)
(1.03492 -0.0158072 0)
(1.03852 -0.016651 0)
(1.04231 -0.0175013 0)
(1.04629 -0.0183573 0)
(1.05046 -0.0192184 0)
(1.05483 -0.0200836 0)
(1.05939 -0.0209519 0)
(1.06414 -0.0218221 0)
(1.06909 -0.0226929 0)
(1.07424 -0.0235628 0)
(1.07958 -0.0244303 0)
(1.08512 -0.0252936 0)
(1.09086 -0.026151 0)
(1.09678 -0.0270004 0)
(1.1029 -0.0278398 0)
(1.10921 -0.028667 0)
(1.1157 -0.0294798 0)
(1.12237 -0.0302759 0)
(1.12923 -0.0310529 0)
(1.13625 -0.0318085 0)
(1.14345 -0.0325402 0)
(1.15081 -0.0332456 0)
(1.15833 -0.0339223 0)
(1.166 -0.0345682 0)
(1.17381 -0.0351808 0)
(1.18176 -0.0357582 0)
(1.18983 -0.0362982 0)
(1.19803 -0.036799 0)
(1.20633 -0.0372589 0)
(1.21473 -0.0376765 0)
(1.22322 -0.0380503 0)
(1.2318 -0.0383792 0)
(1.24044 -0.0386624 0)
(1.24914 -0.0388992 0)
(1.25789 -0.0390891 0)
(1.26667 -0.039232 0)
(1.27549 -0.0393279 0)
(1.28431 -0.039377 0)
(1.29315 -0.0393798 0)
(1.30197 -0.0393369 0)
(1.31078 -0.0392493 0)
(1.31957 -0.0391179 0)
(1.32832 -0.0389439 0)
(1.33702 -0.0387286 0)
(1.34567 -0.0384734 0)
(1.35426 -0.0381799 0)
(1.36277 -0.0378495 0)
(1.3712 -0.0374839 0)
(1.37955 -0.0370848 0)
(1.3878 -0.0366536 0)
(1.39595 -0.0361922 0)
(1.40399 -0.0357019 0)
(1.41192 -0.0351842 0)
(1.41973 -0.0346407 0)
(1.42741 -0.0340725 0)
(1.43496 -0.033481 0)
(1.44237 -0.0328671 0)
(1.44965 -0.0322319 0)
(1.45677 -0.0315762 0)
(1.46375 -0.0309006 0)
(1.47058 -0.0302058 0)
(1.47725 -0.0294921 0)
(1.48376 -0.0287599 0)
(1.4901 -0.0280093 0)
(1.49628 -0.0272403 0)
(1.50228 -0.0264529 0)
(1.5081 -0.0256469 0)
(1.51374 -0.0248221 0)
(1.5192 -0.0239782 0)
(1.52447 -0.0231147 0)
(1.52954 -0.0222314 0)
(1.53442 -0.0213277 0)
(1.53909 -0.0204033 0)
(1.54356 -0.0194578 0)
(1.54781 -0.0184907 0)
(1.55185 -0.0175019 0)
(1.55566 -0.0164909 0)
(1.55925 -0.0154577 0)
(1.56261 -0.0144021 0)
(1.56572 -0.0133243 0)
(1.5686 -0.0122243 0)
(1.57123 -0.0111025 0)
(1.5736 -0.0099592 0)
(1.57572 -0.00879498 0)
(1.57757 -0.00761052 0)
(1.57916 -0.00640665 0)
(1.58047 -0.00518433 0)
(1.58151 -0.00394467 0)
(1.58228 -0.00268889 0)
(1.58275 -0.00141836 0)
(1.58294 -0.000134577 0)
(1.58284 0.00116085 0)
(1.58245 0.00246623 0)
(1.58177 0.00377976 0)
(1.58079 0.00509954 0)
(1.57951 0.00642359 0)
(1.57793 0.00774988 0)
(1.57605 0.0090763 0)
(1.57388 0.0104007 0)
(1.57141 0.0117209 0)
(1.56864 0.0130347 0)
(1.56558 0.0143398 0)
(1.56222 0.015634 0)
(1.55858 0.016915 0)
(1.55464 0.0181806 0)
(1.55043 0.0194285 0)
(1.54593 0.0206565 0)
(1.54116 0.0218623 0)
(1.53613 0.0230438 0)
(1.53083 0.0241989 0)
(1.52527 0.0253254 0)
(1.51946 0.0264212 0)
(1.51341 0.0274844 0)
(1.50712 0.0285129 0)
(1.5006 0.029505 0)
(1.49387 0.0304587 0)
(1.48692 0.0313723 0)
(1.47977 0.0322442 0)
(1.47244 0.0330728 0)
(1.46492 0.0338566 0)
(1.45722 0.0345943 0)
(1.44937 0.0352846 0)
(1.44137 0.0359263 0)
(1.43323 0.0365186 0)
(1.42496 0.0370605 0)
(1.41658 0.0375512 0)
(1.40809 0.0379903 0)
(1.39951 0.0383773 0)
(1.39084 0.038712 0)
(1.38211 0.0389941 0)
(1.37333 0.0392239 0)
(1.36449 0.0394015 0)
(1.35563 0.0395272 0)
(1.34674 0.0396017 0)
(1.33784 0.0396256 0)
(1.32895 0.0395998 0)
(1.32007 0.0395254 0)
(1.31121 0.0394034 0)
(1.30238 0.0392352 0)
(1.2936 0.0390221 0)
(1.28488 0.0387658 0)
(1.27622 0.0384678 0)
(1.26763 0.03813 0)
(1.25913 0.0377541 0)
(1.25071 0.0373421 0)
(1.2424 0.0368959 0)
(1.23419 0.0364176 0)
(1.22609 0.0359092 0)
(1.21811 0.0353727 0)
(1.21026 0.0348104 0)
(1.20254 0.0342243 0)
(1.19496 0.0336164 0)
(1.18751 0.0329889 0)
(1.18021 0.0323438 0)
(1.17306 0.0316832 0)
(1.16607 0.0310088 0)
(1.15922 0.0303228 0)
(1.15253 0.0296268 0)
(1.14601 0.0289226 0)
(1.13964 0.0282118 0)
(1.13343 0.0274961 0)
(1.12738 0.0267767 0)
(1.1215 0.026055 0)
(1.11578 0.025332 0)
(1.11023 0.0246087 0)
(1.10483 0.0238855 0)
(1.0996 0.0231628 0)
(1.09453 0.0224407 0)
(1.08963 0.0217188 0)
(1.08488 0.0209964 0)
(1.0803 0.0202726 0)
(1.07588 0.0195461 0)
(1.07163 0.0188155 0)
(1.06753 0.0180795 0)
(1.0636 0.0173367 0)
(1.05984 0.0165862 0)
(1.05625 0.0158276 0)
(1.05282 0.015061 0)
(1.04957 0.0142876 0)
(1.04649 0.0135092 0)
(1.04358 0.0127288 0)
(1.04085 0.01195 0)
(1.03829 0.0111773 0)
(1.03589 0.0104159 0)
(1.03367 0.00967099 0)
(1.03161 0.00894826 0)
(1.0297 0.00825301 0)
(1.02795 0.00759018 0)
(1.02634 0.00696407 0)
(1.02487 0.00637819 0)
(1.02351 0.00583508 0)
(1.02228 0.00533631 0)
(1.02115 0.00488246 0)
(1.02012 0.00447314 0)
(1.01917 0.00410711 0)
(1.0183 0.0037824 0)
(1.01749 0.00349647 0)
(1.01675 0.00324632 0)
(1.01605 0.00302869 0)
(1.01541 0.0028402 0)
(1.0148 0.00267742 0)
(1.01422 0.00253705 0)
(1.01367 0.00241598 0)
(1.01315 0.0023113 0)
(1.01265 0.00222041 0)
(1.01217 0.002141 0)
(1.0117 0.00207106 0)
(1.01125 0.00200887 0)
(1.01081 0.00195299 0)
(1.01038 0.00190224 0)
(1.00997 0.00185565 0)
(1.00956 0.00181244 0)
(1.00916 0.00177202 0)
(1.00878 0.00173391 0)
(1.0084 0.00169776 0)
(1.00802 0.00166333 0)
(1.00766 0.00163042 0)
(1.0073 0.00159891 0)
(1.00695 0.00156873 0)
(1.00661 0.00153982 0)
(1.00627 0.00151217 0)
(1.00594 0.00148579 0)
(1.00562 0.00146068 0)
(1.0053 0.00143688 0)
(1.00498 0.00141441 0)
(1.00467 0.00139331 0)
(1.00437 0.00137363 0)