/*--------------------------------*- C++ -*----------------------------------*\
| =========                 |                                                 |
| \\      /  F ield         | OpenFOAM: The Open Source CFD Toolbox           |
|  \\    /   O peration     | Version:  2306                                  |
|   \\  /    A nd           | Website:  www.openfoam.com                      |
|    \\/     M anipulation  |                                                 |
\*---------------------------------------------------------------------------*/
FoamFile
{
    version     2.0;
    format      ascii;
    arch        "LSB;label=32;scalar=64";
    class       volScalarField;
    location    "0.08";
    object      G;
}
// * * * * * * * * * * * * * * * * * * * * * * * * * * * * * * * * * * * * * //

dimensions      [1 0 -3 0 0 0 0];

internalField   nonuniform List<scalar> 
100
(
9754.48
10815.9
11567.4
11954.8
12148.8
12148.8
11954.8
11567.4
10815.9
9754.49
10815.9
12121.3
13003.6
13462.8
13685.5
13685.5
13462.8
13003.6
12121.3
10815.9
11567.4
13003.6
13982.6
14498.6
14746.3
14746.3
14498.6
13982.6
13003.6
11567.4
11954.8
13462.8
14498.6
15052.5
15317.3
15317.3
15052.5
14498.6
13462.8
11954.8
12148.8
13685.5
14746.3
15317.3
15590
15590
15317.3
14746.3
13685.5
12148.8
12148.8
13685.5
14746.3
15317.3
15590
15590
15317.3
14746.3
13685.5
12148.8
11954.8
13462.8
14498.6
15052.5
15317.3
15317.3
15052.5
14498.6
13462.8
11954.8
11567.4
13003.6
13982.6
14498.6
14746.3
14746.3
14498.6
13982.6
13003.6
11567.4
10815.9
12121.3
13003.6
13462.8
13685.5
13685.5
13462.8
13003.6
12121.3
10815.9
9754.49
10815.9
11567.4
11954.8
12148.8
12148.8
11954.8
11567.4
10815.9
9754.48
)
;

boundaryField
{
    fixedWall_Bottom
    {
        type            calculated;
        value           nonuniform List<scalar> 10(8486.73 9313.73 9963.34 10302.9 10476.1 10476.1 10302.9 9963.34 9313.74 8486.74);
    }
    fixedWall_Right
    {
        type            calculated;
        value           nonuniform List<scalar> 10(8486.74 9313.74 9963.34 10302.9 10476.1 10476.1 10302.9 9963.34 9313.73 8486.73);
    }
    fixedWall_Left
    {
        type            calculated;
        value           nonuniform List<scalar> 10(8486.73 9313.73 9963.34 10302.9 10476.1 10476.1 10302.9 9963.34 9313.74 8486.74);
    }
    fixedWall_Top
    {
        type            calculated;
        value           nonuniform List<scalar> 10(8486.74 9313.74 9963.34 10302.9 10476.1 10476.1 10302.9 9963.34 9313.73 8486.73);
    }
    frontAndBack
    {
        type            empty;
    }
}


// ************************************************************************* //
