/*--------------------------------*- C++ -*----------------------------------*\
| =========                 |                                                 |
| \\      /  F ield         | OpenFOAM: The Open Source CFD Toolbox           |
|  \\    /   O peration     | Version:  2306                                  |
|   \\  /    A nd           | Website:  www.openfoam.com                      |
|    \\/     M anipulation  |                                                 |
\*---------------------------------------------------------------------------*/
FoamFile
{
    version     2.0;
    format      ascii;
    arch        "LSB;label=32;scalar=64";
    class       volScalarField;
    location    "2";
    object      Keff;
}
// * * * * * * * * * * * * * * * * * * * * * * * * * * * * * * * * * * * * * //

dimensions      [1 1 -3 -1 0 0 0];

internalField   nonuniform List<scalar> 
32768
(
67.2037
67.2018
67.1978
67.1918
67.1838
67.1738
67.1617
67.1476
67.1315
67.1134
67.0932
67.0709
67.0466
67.0202
66.9917
66.9611
66.9283
66.8935
66.8565
66.8173
66.7761
66.7326
66.687
66.6393
66.5893
66.5373
66.4831
66.4268
66.3683
66.3078
66.2452
66.1807
66.1141
66.0456
65.9752
65.903
65.829
65.7534
65.6762
65.5975
65.5174
65.436
65.3534
65.2697
65.1851
65.0997
65.0137
64.9272
64.8402
64.7531
64.6659
64.5789
64.492
64.4055
64.3196
64.2342
64.1495
64.0657
63.9826
63.9004
63.8191
63.7387
63.6593
63.5808
63.5034
63.4271
63.352
63.2783
63.2062
63.1359
63.0677
63.0017
62.9383
62.8779
62.8207
62.767
62.7171
62.6713
62.6298
62.5929
62.5607
62.5334
62.5112
62.4941
62.4821
62.4754
62.474
62.4777
62.4866
62.5006
62.5195
62.5434
62.5721
62.6054
62.6432
62.6854
62.7317
62.782
62.8361
62.8937
62.9548
63.0189
63.0861
63.1559
63.2283
63.3029
63.3795
63.458
63.538
63.6194
63.7019
63.7853
63.8695
63.9541
64.0391
64.1241
64.2091
64.2939
64.3783
64.4621
64.5452
64.6275
64.7088
64.789
64.8681
64.9459
65.0224
65.0974
65.1709
65.2429
65.3133
65.382
65.4491
65.5144
65.5781
65.64
65.7001
65.7585
65.8152
65.8701
65.9233
65.9749
66.0247
66.0728
66.1194
66.1643
66.2076
66.2494
66.2897
66.3285
66.3658
66.4017
66.4363
66.4696
66.5015
66.5322
66.5616
66.5899
66.6171
66.6431
66.6681
66.692
66.7149
66.7369
66.7579
66.7781
66.7974
66.8159
66.8335
66.8504
66.8666
66.8821
66.8968
66.911
66.9245
66.9374
66.9497
66.9615
66.9727
66.9835
66.9937
67.0035
67.0129
67.0218
67.0303
67.0384
67.0462
67.0536
67.0606
67.0674
67.0738
67.0799
67.0858
67.0913
67.0967
67.1017
67.1065
67.1112
67.1155
67.1197
67.1237
67.1275
67.1312
67.1346
67.1379
67.141
67.144
67.1469
67.1496
67.1522
67.1547
67.157
67.1593
67.1614
67.1634
67.1654
67.1672
67.169
67.1707
67.1723
67.1738
67.1753
67.1766
67.178
67.1792
67.1804
67.1816
67.1827
67.1837
67.1847
67.1857
67.1866
67.1874
67.1882
67.189
67.1898
67.1905
67.1912
67.1919
67.1925
67.1931
67.1937
67.1942
67.1947
67.1952
67.1957
67.1962
67.1966
67.1971
67.1975
67.1979
67.1983
67.1986
67.199
67.1993
67.1998
67.2037
67.2018
67.1978
67.1918
67.1838
67.1738
67.1617
67.1477
67.1316
67.1134
67.0932
67.071
67.0466
67.0202
66.9917
66.9611
66.9284
66.8935
66.8565
66.8174
66.7761
66.7326
66.687
66.6393
66.5893
66.5372
66.483
66.4266
66.3682
66.3076
66.245
66.1803
66.1137
66.0451
65.9746
65.9024
65.8283
65.7526
65.6753
65.5964
65.5162
65.4346
65.3519
65.2681
65.1833
65.0978
65.0116
64.9249
64.8378
64.7505
64.6631
64.5758
64.4888
64.4021
64.316
64.2304
64.1456
64.0615
63.9782
63.8959
63.8144
63.7338
63.6542
63.5756
63.498
63.4216
63.3465
63.2727
63.2005
63.1301
63.0618
62.9958
62.9324
62.8719
62.8147
62.761
62.7111
62.6653
62.6239
62.587
62.5549
62.5277
62.5055
62.4884
62.4766
62.4699
62.4686
62.4724
62.4814
62.4955
62.5146
62.5386
62.5674
62.6008
62.6388
62.6811
62.7276
62.7781
62.8323
62.8902
62.9514
63.0158
63.0831
63.1531
63.2257
63.3005
63.3774
63.456
63.5362
63.6178
63.7005
63.7842
63.8685
63.9533
64.0385
64.1237
64.2089
64.2938
64.3784
64.4623
64.5456
64.628
64.7094
64.7898
64.869
64.9469
65.0234
65.0985
65.1721
65.2442
65.3146
65.3834
65.4505
65.5159
65.5795
65.6414
65.7016
65.76
65.8167
65.8716
65.9249
65.9764
66.0262
66.0743
66.1208
66.1657
66.209
66.2508
66.291
66.3298
66.3671
66.403
66.4376
66.4708
66.5027
66.5333
66.5628
66.591
66.6181
66.6441
66.669
66.6929
66.7158
66.7378
66.7588
66.7789
66.7982
66.8166
66.8343
66.8511
66.8673
66.8827
66.8975
66.9116
66.925
66.9379
66.9502
66.962
66.9732
66.9839
66.9942
67.0039
67.0133
67.0222
67.0307
67.0388
67.0465
67.0539
67.061
67.0677
67.0741
67.0802
67.086
67.0916
67.0969
67.102
67.1068
67.1114
67.1157
67.1199
67.1239
67.1277
67.1313
67.1348
67.1381
67.1412
67.1442
67.147
67.1497
67.1523
67.1548
67.1571
67.1594
67.1615
67.1635
67.1655
67.1673
67.1691
67.1707
67.1723
67.1739
67.1753
67.1767
67.178
67.1793
67.1805
67.1816
67.1827
67.1838
67.1847
67.1857
67.1866
67.1875
67.1883
67.1891
67.1898
67.1905
67.1912
67.1919
67.1925
67.1931
67.1937
67.1942
67.1948
67.1953
67.1957
67.1962
67.1967
67.1971
67.1975
67.1979
67.1983
67.1986
67.199
67.1993
67.1998
67.2037
67.2018
67.1978
67.1918
67.1838
67.1738
67.1618
67.1477
67.1316
67.1135
67.0933
67.0711
67.0467
67.0203
66.9918
66.9612
66.9285
66.8936
66.8566
66.8175
66.7762
66.7327
66.6871
66.6393
66.5893
66.5371
66.4828
66.4264
66.3679
66.3072
66.2445
66.1797
66.1129
66.0442
65.9736
65.9011
65.8269
65.7509
65.6734
65.5943
65.5138
65.432
65.3489
65.2648
65.1798
65.0939
65.0074
64.9203
64.8329
64.7452
64.6574
64.5698
64.4824
64.3953
64.3088
64.2228
64.1376
64.0531
63.9695
63.8868
63.8049
63.724
63.6441
63.5652
63.4874
63.4107
63.3353
63.2613
63.189
63.1185
63.05
62.9839
62.9205
62.86
62.8027
62.749
62.6992
62.6534
62.6121
62.5753
62.5432
62.5161
62.494
62.4771
62.4654
62.459
62.4577
62.4617
62.4709
62.4852
62.5046
62.5289
62.5579
62.5917
62.6299
62.6726
62.7194
62.7702
62.8248
62.883
62.9446
63.0094
63.0771
63.1476
63.2205
63.2958
63.373
63.4521
63.5327
63.6147
63.6979
63.7819
63.8666
63.9518
64.0374
64.123
64.2085
64.2937
64.3786
64.4628
64.5464
64.629
64.7107
64.7913
64.8707
64.9488
65.0255
65.1008
65.1745
65.2467
65.3172
65.3861
65.4533
65.5187
65.5825
65.6444
65.7046
65.7631
65.8197
65.8747
65.9279
65.9794
66.0291
66.0773
66.1237
66.1686
66.2119
66.2536
66.2938
66.3325
66.3697
66.4056
66.4401
66.4732
66.505
66.5356
66.565
66.5932
66.6202
66.6462
66.671
66.6949
66.7177
66.7396
66.7605
66.7806
66.7998
66.8182
66.8357
66.8526
66.8687
66.884
66.8987
66.9128
66.9262
66.9391
66.9513
66.963
66.9742
66.9849
66.9951
67.0048
67.0141
67.023
67.0314
67.0395
67.0472
67.0546
67.0616
67.0683
67.0747
67.0808
67.0866
67.0921
67.0974
67.1024
67.1072
67.1118
67.1162
67.1203
67.1243
67.1281
67.1317
67.1351
67.1384
67.1415
67.1445
67.1473
67.15
67.1526
67.155
67.1573
67.1596
67.1617
67.1637
67.1656
67.1675
67.1692
67.1709
67.1725
67.174
67.1755
67.1768
67.1781
67.1794
67.1806
67.1817
67.1828
67.1839
67.1848
67.1858
67.1867
67.1875
67.1884
67.1891
67.1899
67.1906
67.1913
67.1919
67.1926
67.1932
67.1937
67.1943
67.1948
67.1953
67.1958
67.1962
67.1967
67.1971
67.1975
67.1979
67.1983
67.1987
67.1991
67.1993
67.1999
67.2037
67.2018
67.1978
67.1919
67.1838
67.1738
67.1618
67.1478
67.1317
67.1136
67.0934
67.0712
67.0469
67.0205
66.992
66.9614
66.9287
66.8938
66.8568
66.8177
66.7763
66.7328
66.6871
66.6393
66.5892
66.537
66.4826
66.4261
66.3674
66.3066
66.2437
66.1787
66.1118
66.0428
65.9719
65.8992
65.8247
65.7484
65.6705
65.5911
65.5102
65.428
65.3445
65.26
65.1745
65.0881
65.0011
64.9135
64.8255
64.7373
64.649
64.5607
64.4727
64.3851
64.298
64.2115
64.1256
64.0406
63.9564
63.8731
63.7908
63.7094
63.629
63.5496
63.4714
63.3943
63.3186
63.2443
63.1717
63.101
63.0324
62.9661
62.9026
62.842
62.7848
62.7311
62.6813
62.6356
62.5943
62.5576
62.5257
62.4988
62.4769
62.4602
62.4487
62.4424
62.4415
62.4458
62.4553
62.4699
62.4896
62.5142
62.5437
62.5779
62.6166
62.6597
62.707
62.7583
62.8135
62.8722
62.9344
62.9998
63.0681
63.1392
63.2128
63.2886
63.3665
63.4462
63.5275
63.6101
63.6939
63.7785
63.8638
63.9496
64.0357
64.1218
64.2078
64.2936
64.3789
64.4636
64.5476
64.6306
64.7127
64.7936
64.8733
64.9517
65.0287
65.1042
65.1781
65.2505
65.3212
65.3902
65.4575
65.5231
65.5869
65.6489
65.7091
65.7676
65.8243
65.8792
65.9324
65.9839
66.0336
66.0817
66.1281
66.1729
66.2161
66.2578
66.2979
66.3365
66.3737
66.4094
66.4438
66.4768
66.5086
66.5391
66.5683
66.5964
66.6234
66.6492
66.674
66.6977
66.7205
66.7422
66.7631
66.7831
66.8022
66.8205
66.838
66.8547
66.8707
66.886
66.9006
66.9146
66.928
66.9407
66.9529
66.9646
66.9757
66.9863
66.9965
67.0061
67.0154
67.0242
67.0326
67.0406
67.0483
67.0556
67.0626
67.0692
67.0756
67.0816
67.0874
67.0929
67.0981
67.1031
67.1079
67.1124
67.1168
67.1209
67.1248
67.1286
67.1322
67.1356
67.1388
67.1419
67.1449
67.1477
67.1504
67.1529
67.1554
67.1577
67.1599
67.162
67.164
67.1659
67.1677
67.1695
67.1711
67.1727
67.1742
67.1757
67.177
67.1783
67.1796
67.1808
67.1819
67.183
67.184
67.185
67.1859
67.1868
67.1877
67.1885
67.1892
67.19
67.1907
67.1914
67.192
67.1926
67.1932
67.1938
67.1943
67.1949
67.1954
67.1958
67.1963
67.1967
67.1972
67.1976
67.198
67.1983
67.1987
67.1991
67.1994
67.1999
67.2037
67.2018
67.1979
67.1919
67.1839
67.1739
67.1619
67.1479
67.1318
67.1137
67.0936
67.0714
67.0471
67.0207
66.9923
66.9617
66.9289
66.8941
66.8571
66.8179
66.7765
66.733
66.6872
66.6393
66.5892
66.5369
66.4824
66.4257
66.3668
66.3058
66.2427
66.1775
66.1103
66.041
65.9698
65.8967
65.8218
65.7451
65.6668
65.5869
65.5055
65.4227
65.3387
65.2535
65.1674
65.0804
64.9926
64.9044
64.8157
64.7267
64.6377
64.5487
64.4599
64.3715
64.2836
64.1963
64.1097
64.0239
63.939
63.8549
63.7719
63.6898
63.6088
63.5288
63.45
63.3724
63.2962
63.2216
63.1486
63.0776
63.0088
62.9424
62.8787
62.8181
62.7608
62.7071
62.6573
62.6117
62.5706
62.534
62.5023
62.4756
62.4539
62.4375
62.4263
62.4204
62.4197
62.4244
62.4343
62.4494
62.4696
62.4947
62.5247
62.5595
62.5988
62.6425
62.6905
62.7425
62.7984
62.8579
62.9208
62.987
63.0561
63.128
63.2024
63.2791
63.3579
63.4384
63.5205
63.604
63.6885
63.774
63.8601
63.9466
64.0334
64.1203
64.207
64.2934
64.3794
64.4647
64.5492
64.6328
64.7153
64.7967
64.8768
64.9556
65.0329
65.1088
65.183
65.2556
65.3265
65.3957
65.4632
65.5289
65.5928
65.6549
65.7152
65.7737
65.8304
65.8853
65.9385
65.9899
66.0396
66.0876
66.134
66.1787
66.2218
66.2633
66.3033
66.3419
66.3789
66.4145
66.4488
66.4817
66.5133
66.5437
66.5728
66.6008
66.6276
66.6533
66.6779
66.7015
66.7241
66.7458
66.7665
66.7864
66.8054
66.8236
66.8409
66.8576
66.8735
66.8887
66.9032
66.9171
66.9303
66.943
66.9551
66.9666
66.9777
66.9882
66.9983
67.0079
67.017
67.0258
67.0341
67.0421
67.0497
67.0569
67.0638
67.0704
67.0767
67.0827
67.0884
67.0939
67.0991
67.104
67.1088
67.1133
67.1176
67.1217
67.1256
67.1293
67.1328
67.1362
67.1394
67.1425
67.1454
67.1482
67.1509
67.1534
67.1558
67.1581
67.1603
67.1624
67.1644
67.1663
67.1681
67.1698
67.1714
67.173
67.1745
67.1759
67.1773
67.1786
67.1798
67.181
67.1821
67.1832
67.1842
67.1852
67.1861
67.187
67.1878
67.1886
67.1894
67.1901
67.1908
67.1915
67.1921
67.1927
67.1933
67.1939
67.1944
67.1949
67.1954
67.1959
67.1964
67.1968
67.1972
67.1976
67.198
67.1984
67.1988
67.1991
67.1994
67.1999
67.2037
67.2018
67.1979
67.1919
67.1839
67.1739
67.162
67.148
67.132
67.1139
67.0938
67.0716
67.0474
67.021
66.9926
66.962
66.9293
66.8944
66.8574
66.8182
66.7768
66.7332
66.6874
66.6394
66.5892
66.5367
66.4821
66.4252
66.3662
66.3049
66.2415
66.1761
66.1085
66.0389
65.9672
65.8937
65.8183
65.7411
65.6622
65.5817
65.4996
65.4162
65.3314
65.2455
65.1586
65.0708
64.9822
64.893
64.8034
64.7135
64.6235
64.5336
64.4439
64.3545
64.2656
64.1773
64.0898
64.003
63.9171
63.8322
63.7482
63.6653
63.5834
63.5027
63.4232
63.345
63.2683
63.1931
63.1197
63.0483
62.9792
62.9126
62.8488
62.788
62.7307
62.677
62.6273
62.5819
62.5408
62.5045
62.473
62.4465
62.4251
62.409
62.3982
62.3927
62.3925
62.3976
62.408
62.4237
62.4444
62.4702
62.5009
62.5363
62.5764
62.6209
62.6697
62.7226
62.7794
62.8399
62.9038
62.9709
63.0411
63.114
63.1895
63.2672
63.347
63.4286
63.5118
63.5963
63.6819
63.7683
63.8554
63.943
64.0307
64.1185
64.2061
64.2933
64.38
64.4661
64.5513
64.6355
64.7187
64.8007
64.8813
64.9606
65.0383
65.1145
65.1891
65.262
65.3332
65.4027
65.4703
65.5362
65.6002
65.6624
65.7228
65.7813
65.838
65.893
65.9461
65.9975
66.0471
66.0951
66.1413
66.1859
66.2289
66.2703
66.3102
66.3486
66.3855
66.421
66.4551
66.4878
66.5193
66.5495
66.5784
66.6062
66.6328
66.6584
66.6829
66.7063
66.7288
66.7503
66.7708
66.7905
66.8094
66.8274
66.8446
66.8611
66.8769
66.8919
66.9063
66.9201
66.9332
66.9458
66.9578
66.9692
66.9801
66.9906
67.0005
67.01
67.0191
67.0278
67.036
67.0439
67.0514
67.0586
67.0654
67.072
67.0782
67.0841
67.0898
67.0952
67.1003
67.1052
67.1099
67.1143
67.1186
67.1226
67.1265
67.1302
67.1337
67.137
67.1402
67.1432
67.1461
67.1489
67.1515
67.154
67.1564
67.1587
67.1608
67.1629
67.1649
67.1667
67.1685
67.1702
67.1718
67.1734
67.1749
67.1763
67.1776
67.1789
67.1801
67.1813
67.1824
67.1834
67.1844
67.1854
67.1863
67.1872
67.188
67.1888
67.1896
67.1903
67.191
67.1916
67.1923
67.1929
67.1935
67.194
67.1945
67.1951
67.1955
67.196
67.1965
67.1969
67.1973
67.1977
67.1981
67.1985
67.1988
67.1992
67.1995
67.2
67.2037
67.2018
67.1979
67.1919
67.184
67.174
67.1621
67.1481
67.1321
67.1141
67.094
67.0719
67.0477
67.0214
66.993
66.9624
66.9297
66.8949
66.8578
66.8186
66.7772
66.7335
66.6877
66.6396
66.5892
66.5366
66.4818
66.4247
66.3654
66.3039
66.2402
66.1744
66.1064
66.0363
65.9642
65.8902
65.8142
65.7363
65.6568
65.5755
65.4927
65.4084
65.3228
65.236
65.1481
65.0593
64.9697
64.8794
64.7888
64.6978
64.6066
64.5155
64.4246
64.3341
64.244
64.1545
64.0658
63.9779
63.8909
63.8048
63.7198
63.6358
63.553
63.4713
63.391
63.312
63.2346
63.1588
63.0849
63.0131
62.9436
62.8767
62.8127
62.7518
62.6945
62.6408
62.5912
62.5458
62.505
62.4689
62.4376
62.4115
62.3905
62.3747
62.3643
62.3593
62.3597
62.3654
62.3764
62.3927
62.4141
62.4407
62.4722
62.5085
62.5494
62.5949
62.6447
62.6987
62.7565
62.8181
62.8832
62.9516
63.0229
63.0971
63.1739
63.2529
63.334
63.4169
63.5013
63.5871
63.6739
63.7616
63.8499
63.9386
64.0275
64.1163
64.205
64.2932
64.3809
64.4678
64.5539
64.6389
64.7228
64.8055
64.8868
64.9666
65.0449
65.1215
65.1965
65.2698
65.3413
65.4111
65.4789
65.545
65.6092
65.6715
65.7319
65.7905
65.8473
65.9022
65.9553
66.0066
66.0562
66.104
66.1502
66.1946
66.2375
66.2787
66.3184
66.3566
66.3934
66.4287
66.4626
66.4951
66.5264
66.5564
66.5851
66.6127
66.6392
66.6645
66.6888
66.712
66.7343
66.7556
66.776
66.7955
66.8142
66.832
66.8491
66.8654
66.881
66.8959
66.9101
66.9237
66.9367
66.9491
66.961
66.9723
66.9831
66.9934
67.0033
67.0126
67.0216
67.0302
67.0383
67.0461
67.0535
67.0606
67.0673
67.0738
67.0799
67.0858
67.0914
67.0967
67.1018
67.1066
67.1112
67.1156
67.1198
67.1238
67.1276
67.1312
67.1347
67.138
67.1411
67.1441
67.1469
67.1497
67.1523
67.1547
67.1571
67.1593
67.1614
67.1635
67.1654
67.1673
67.169
67.1707
67.1723
67.1738
67.1753
67.1767
67.178
67.1792
67.1804
67.1816
67.1827
67.1837
67.1847
67.1857
67.1866
67.1874
67.1882
67.189
67.1898
67.1905
67.1912
67.1918
67.1924
67.193
67.1936
67.1942
67.1947
67.1952
67.1957
67.1961
67.1966
67.197
67.1974
67.1978
67.1982
67.1985
67.1989
67.1993
67.1995
67.2
67.2037
67.2018
67.1979
67.192
67.184
67.1741
67.1622
67.1483
67.1324
67.1144
67.0944
67.0723
67.0481
67.0218
66.9935
66.9629
66.9303
66.8954
66.8584
66.8192
66.7777
66.734
66.688
66.6398
66.5893
66.5366
66.4816
66.4242
66.3647
66.3029
66.2388
66.1725
66.1041
66.0335
65.9609
65.8862
65.8095
65.7309
65.6505
65.5684
65.4847
65.3995
65.3129
65.225
65.136
65.046
64.9552
64.8637
64.7717
64.6794
64.5869
64.4945
64.4022
64.3103
64.2188
64.128
64.0378
63.9485
63.8602
63.7728
63.6865
63.6013
63.5174
63.4346
63.3533
63.2734
63.1952
63.1187
63.0441
62.9718
62.9019
62.8347
62.7705
62.7095
62.652
62.5984
62.5489
62.5037
62.463
62.4272
62.3963
62.3704
62.3499
62.3346
62.3247
62.3202
62.3212
62.3275
62.3393
62.3563
62.3786
62.406
62.4385
62.4758
62.5178
62.5644
62.6154
62.6706
62.7297
62.7926
62.8591
62.9289
63.0017
63.0773
63.1556
63.2361
63.3187
63.4031
63.4891
63.5763
63.6646
63.7538
63.8435
63.9335
64.0238
64.1139
64.2038
64.2932
64.382
64.47
64.557
64.643
64.7278
64.8112
64.8932
64.9737
65.0526
65.1298
65.2053
65.279
65.3509
65.4209
65.4891
65.5554
65.6197
65.6821
65.7427
65.8013
65.8581
65.913
65.9661
66.0173
66.0668
66.1145
66.1605
66.2048
66.2475
66.2886
66.3281
66.3661
66.4026
66.4377
66.4713
66.5037
66.5347
66.5644
66.593
66.6203
66.6465
66.6716
66.6957
66.7187
66.7407
66.7618
66.782
66.8013
66.8197
66.8374
66.8542
66.8704
66.8858
66.9005
66.9145
66.928
66.9408
66.953
66.9647
66.9759
66.9865
66.9967
67.0064
67.0157
67.0245
67.0329
67.041
67.0486
67.0559
67.0629
67.0696
67.0759
67.082
67.0877
67.0932
67.0984
67.1034
67.1082
67.1127
67.1171
67.1212
67.1251
67.1289
67.1324
67.1358
67.1391
67.1422
67.1451
67.1479
67.1506
67.1531
67.1556
67.1579
67.1601
67.1622
67.1642
67.1661
67.1679
67.1696
67.1713
67.1728
67.1743
67.1758
67.1771
67.1784
67.1797
67.1808
67.182
67.183
67.1841
67.185
67.186
67.1869
67.1877
67.1885
67.1893
67.19
67.1907
67.1914
67.192
67.1926
67.1932
67.1938
67.1943
67.1948
67.1953
67.1958
67.1963
67.1967
67.1971
67.1975
67.1979
67.1983
67.1986
67.199
67.1993
67.1996
67.2001
67.2037
67.2018
67.1979
67.192
67.1841
67.1742
67.1624
67.1485
67.1326
67.1147
67.0947
67.0727
67.0486
67.0224
66.9941
66.9636
66.9309
66.8961
66.8591
66.8198
66.7783
66.7346
66.6886
66.6402
66.5896
66.5367
66.4814
66.4238
66.364
66.3018
66.2373
66.1706
66.1016
66.0305
65.9572
65.8817
65.8043
65.7249
65.6436
65.5605
65.4758
65.3894
65.3016
65.2125
65.1222
65.0309
64.9387
64.8458
64.7523
64.6585
64.5645
64.4705
64.3766
64.2831
64.19
64.0976
64.0058
63.915
63.8251
63.7362
63.6484
63.5619
63.4765
63.3926
63.3101
63.2292
63.1499
63.0726
62.9974
62.9244
62.8541
62.7865
62.722
62.6608
62.6033
62.5497
62.5003
62.4552
62.4148
62.3793
62.3487
62.3233
62.3032
62.2885
62.2791
62.2753
62.2769
62.2841
62.2966
62.3146
62.3378
62.3662
62.3997
62.4382
62.4815
62.5293
62.5817
62.6383
62.6989
62.7633
62.8314
62.9028
62.9773
63.0546
63.1346
63.2169
63.3012
63.3874
63.4751
63.564
63.6541
63.7449
63.8362
63.9279
64.0196
64.1112
64.2025
64.2933
64.3834
64.4726
64.5608
64.6478
64.7336
64.8179
64.9008
64.982
65.0616
65.1395
65.2155
65.2897
65.362
65.4324
65.5008
65.5673
65.6319
65.6945
65.7551
65.8138
65.8706
65.9254
65.9785
66.0296
66.079
66.1266
66.1724
66.2165
66.259
66.2999
66.3391
66.3769
66.4132
66.448
66.4814
66.5135
66.5442
66.5737
66.6019
66.629
66.6549
66.6798
66.7036
66.7263
66.7481
66.7689
66.7888
66.8079
66.8261
66.8435
66.8601
66.876
66.8912
66.9057
66.9196
66.9328
66.9454
66.9575
66.969
66.98
66.9905
67.0005
67.01
67.0191
67.0278
67.0361
67.044
67.0515
67.0587
67.0656
67.0721
67.0783
67.0843
67.0899
67.0953
67.1005
67.1054
67.11
67.1145
67.1187
67.1228
67.1266
67.1303
67.1338
67.1372
67.1403
67.1434
67.1463
67.149
67.1516
67.1541
67.1565
67.1588
67.1609
67.163
67.1649
67.1668
67.1686
67.1703
67.1719
67.1735
67.1749
67.1763
67.1777
67.1789
67.1801
67.1813
67.1824
67.1835
67.1845
67.1854
67.1863
67.1872
67.188
67.1888
67.1896
67.1903
67.191
67.1916
67.1923
67.1929
67.1934
67.194
67.1945
67.195
67.1955
67.196
67.1964
67.1968
67.1972
67.1976
67.198
67.1984
67.1987
67.1991
67.1994
67.1997
67.2002
67.2037
67.2018
67.198
67.1921
67.1842
67.1744
67.1626
67.1488
67.1329
67.1151
67.0952
67.0732
67.0492
67.0231
66.9948
66.9644
66.9318
66.897
66.86
66.8207
66.7792
66.7354
66.6893
66.6408
66.59
66.5369
66.4814
66.4236
66.3633
66.3008
66.2358
66.1686
66.0991
66.0272
65.9532
65.877
65.7987
65.7183
65.636
65.5518
65.4659
65.3783
65.2892
65.1987
65.1069
65.0141
64.9203
64.8258
64.7306
64.6351
64.5393
64.4435
64.3479
64.2525
64.1576
64.0633
63.9698
63.8772
63.7855
63.6949
63.6055
63.5173
63.4305
63.3451
63.2613
63.1792
63.0989
63.0206
62.9445
62.8709
62.8
62.732
62.6672
62.6058
62.5482
62.4946
62.4453
62.4005
62.3603
62.3251
62.295
62.27
62.2504
62.2363
62.2276
62.2245
62.2269
62.2349
62.2483
62.2672
62.2915
62.3211
62.3558
62.3956
62.4402
62.4896
62.5435
62.6017
62.664
62.7302
62.8
62.8733
62.9497
63.0289
63.1109
63.1951
63.2815
63.3696
63.4593
63.5502
63.6422
63.7349
63.8281
63.9216
64.0151
64.1084
64.2013
64.2936
64.3851
64.4757
64.5652
64.6534
64.7403
64.8257
64.9095
64.9916
65.0719
65.1505
65.2271
65.3019
65.3746
65.4454
65.5142
65.581
65.6457
65.7084
65.7692
65.8279
65.8847
65.9395
65.9925
66.0435
66.0928
66.1402
66.1858
66.2297
66.272
66.3126
66.3516
66.3891
66.4251
66.4596
66.4927
66.5245
66.5549
66.5841
66.612
66.6388
66.6644
66.6889
66.7124
66.7349
66.7563
66.7769
66.7965
66.8153
66.8332
66.8504
66.8667
66.8824
66.8973
66.9116
66.9252
66.9382
66.9506
66.9625
66.9738
66.9846
66.9948
67.0047
67.014
67.023
67.0315
67.0396
67.0474
67.0547
67.0618
67.0685
67.0749
67.081
67.0868
67.0924
67.0977
67.1027
67.1075
67.1121
67.1165
67.1206
67.1246
67.1283
67.1319
67.1354
67.1386
67.1417
67.1447
67.1475
67.1502
67.1528
67.1552
67.1576
67.1598
67.1619
67.1639
67.1658
67.1677
67.1694
67.1711
67.1726
67.1741
67.1756
67.1769
67.1783
67.1795
67.1807
67.1818
67.1829
67.1839
67.1849
67.1858
67.1867
67.1876
67.1884
67.1892
67.1899
67.1906
67.1913
67.1919
67.1925
67.1931
67.1937
67.1942
67.1947
67.1952
67.1957
67.1961
67.1966
67.197
67.1974
67.1978
67.1982
67.1985
67.1989
67.1992
67.1995
67.1998
67.2003
67.2037
67.2018
67.198
67.1922
67.1843
67.1746
67.1628
67.1491
67.1333
67.1155
67.0957
67.0739
67.0499
67.0239
66.9957
66.9653
66.9328
66.898
66.861
66.8218
66.7802
66.7364
66.6902
66.6416
66.5907
66.5374
66.4816
66.4235
66.3629
66.2999
66.2345
66.1666
66.0965
66.0239
65.9491
65.872
65.7927
65.7113
65.6279
65.5425
65.4552
65.3662
65.2756
65.1836
65.0902
64.9956
64.9001
64.8037
64.7067
64.6092
64.5114
64.4136
64.3159
64.2185
64.1216
64.0253
63.9297
63.8351
63.7414
63.6489
63.5576
63.4677
63.3791
63.2922
63.2069
63.1234
63.0419
62.9625
62.8856
62.8112
62.7396
62.6711
62.6059
62.5444
62.4867
62.4331
62.3839
62.3393
62.2994
62.2646
62.2349
62.2104
62.1914
62.1779
62.17
62.1676
62.1709
62.1798
62.1943
62.2143
62.2398
62.2706
62.3067
62.3479
62.3941
62.4451
62.5006
62.5606
62.6248
62.693
62.7649
62.8402
62.9188
63.0002
63.0844
63.1709
63.2594
63.3498
63.4418
63.5349
63.6291
63.7239
63.8192
63.9147
64.0102
64.1053
64.2001
64.2941
64.3872
64.4794
64.5703
64.6599
64.748
64.8345
64.9194
65.0025
65.0837
65.163
65.2403
65.3156
65.3889
65.4601
65.5292
65.5963
65.6612
65.7241
65.785
65.8438
65.9005
65.9553
66.0082
66.0591
66.1082
66.1554
66.2008
66.2445
66.2864
66.3268
66.3655
66.4027
66.4383
66.4725
66.5053
66.5367
66.5668
66.5956
66.6232
66.6496
66.6749
66.6991
66.7222
66.7444
66.7655
66.7857
66.805
66.8235
66.8411
66.858
66.8741
66.8894
66.9041
66.9181
66.9314
66.9442
66.9564
66.968
66.9791
66.9896
66.9997
67.0093
67.0185
67.0272
67.0356
67.0435
67.0511
67.0583
67.0652
67.0718
67.078
67.084
67.0897
67.0951
67.1003
67.1052
67.1099
67.1144
67.1186
67.1227
67.1265
67.1302
67.1337
67.1371
67.1403
67.1433
67.1462
67.1489
67.1516
67.1541
67.1565
67.1587
67.1609
67.163
67.1649
67.1668
67.1686
67.1703
67.1719
67.1734
67.1749
67.1763
67.1776
67.1789
67.1801
67.1813
67.1824
67.1834
67.1844
67.1854
67.1863
67.1872
67.188
67.1888
67.1895
67.1903
67.1909
67.1916
67.1922
67.1928
67.1934
67.1939
67.1945
67.195
67.1954
67.1959
67.1963
67.1968
67.1972
67.1976
67.1979
67.1983
67.1986
67.199
67.1993
67.1996
67.1999
67.2003
67.2037
67.2018
67.198
67.1922
67.1845
67.1747
67.1631
67.1494
67.1338
67.1161
67.0964
67.0746
67.0508
67.0248
66.9967
66.9664
66.934
66.8993
66.8623
66.8231
66.7816
66.7377
66.6914
66.6427
66.5916
66.5381
66.4821
66.4236
66.3626
66.2992
66.2332
66.1648
66.0939
66.0206
65.9449
65.8669
65.7865
65.7039
65.6192
65.5325
65.4438
65.3532
65.261
65.1672
65.072
64.9755
64.878
64.7796
64.6805
64.5808
64.4809
64.3808
64.2809
64.1812
64.082
63.9834
63.8856
63.7887
63.6928
63.5982
63.5048
63.4129
63.3224
63.2337
63.1468
63.0618
62.9789
62.8984
62.8204
62.7451
62.6728
62.6038
62.5382
62.4764
62.4186
62.365
62.3159
62.2715
62.232
62.1975
62.1683
62.1445
62.1261
62.1133
62.1061
62.1047
62.1089
62.1188
62.1344
62.1556
62.1824
62.2146
62.2522
62.295
62.3429
62.3956
62.4531
62.5151
62.5814
62.6517
62.7259
62.8036
62.8845
62.9684
63.055
63.144
63.2351
63.328
63.4225
63.5181
63.6147
63.7119
63.8096
63.9073
64.005
64.1023
64.199
64.2949
64.3899
64.4837
64.5762
64.6673
64.7568
64.8446
64.9306
65.0147
65.0969
65.177
65.2551
65.331
65.4049
65.4765
65.546
65.6134
65.6786
65.7416
65.8025
65.8614
65.9181
65.9728
66.0256
66.0763
66.1252
66.1722
66.2174
66.2608
66.3024
66.3424
66.3808
66.4176
66.4529
66.4867
66.5191
66.5502
66.5799
66.6083
66.6355
66.6616
66.6865
66.7103
66.733
66.7548
66.7756
66.7954
66.8144
66.8325
66.8498
66.8663
66.8821
66.8971
66.9115
66.9252
66.9383
66.9508
66.9627
66.974
66.9848
66.9952
67.005
67.0144
67.0234
67.0319
67.04
67.0478
67.0552
67.0622
67.0689
67.0753
67.0814
67.0873
67.0928
67.0981
67.1031
67.1079
67.1125
67.1168
67.121
67.1249
67.1287
67.1323
67.1357
67.1389
67.142
67.145
67.1478
67.1505
67.153
67.1555
67.1578
67.16
67.1621
67.1641
67.166
67.1678
67.1696
67.1712
67.1728
67.1743
67.1757
67.1771
67.1784
67.1796
67.1808
67.1819
67.183
67.184
67.185
67.1859
67.1868
67.1876
67.1884
67.1892
67.1899
67.1906
67.1913
67.1919
67.1926
67.1931
67.1937
67.1942
67.1947
67.1952
67.1957
67.1961
67.1966
67.197
67.1974
67.1977
67.1981
67.1985
67.1988
67.1991
67.1994
67.1998
67.2
67.2004
67.2037
67.2018
67.1981
67.1923
67.1846
67.175
67.1634
67.1498
67.1343
67.1167
67.0971
67.0755
67.0517
67.0259
66.9979
66.9678
66.9354
66.9008
66.8639
66.8247
66.7832
66.7393
66.6929
66.6442
66.5929
66.5392
66.4829
66.4241
66.3627
66.2988
66.2322
66.1632
66.0915
66.0174
65.9408
65.8617
65.7802
65.6963
65.6102
65.522
65.4317
65.3395
65.2454
65.1497
65.0525
64.9539
64.8542
64.7535
64.6521
64.5501
64.4477
64.3452
64.2427
64.1405
64.0388
63.9376
63.8373
63.7379
63.6397
63.5426
63.447
63.3528
63.2603
63.1696
63.0809
62.9942
62.9099
62.828
62.7488
62.6726
62.5995
62.5299
62.4639
62.4018
62.3439
62.2903
62.2413
62.1971
62.1579
62.1239
62.0952
62.072
62.0543
62.0423
62.036
62.0354
62.0406
62.0517
62.0685
62.091
62.1191
62.1529
62.1921
62.2367
62.2864
62.3412
62.4008
62.465
62.5336
62.6063
62.6829
62.7632
62.8468
62.9334
63.0228
63.1146
63.2085
63.3042
63.4014
63.4998
63.5991
63.699
63.7992
63.8995
63.9995
64.0991
64.1981
64.2961
64.3931
64.4888
64.5831
64.6758
64.7668
64.856
64.9432
65.0285
65.1116
65.1927
65.2715
65.3482
65.4226
65.4947
65.5646
65.6323
65.6977
65.7609
65.8219
65.8808
65.9375
65.9921
66.0447
66.0953
66.1439
66.1907
66.2355
66.2786
66.32
66.3596
66.3976
66.434
66.4689
66.5023
66.5343
66.5649
66.5942
66.6222
66.649
66.6746
66.6991
66.7224
66.7448
66.7661
66.7865
66.806
66.8246
66.8423
66.8592
66.8754
66.8908
66.9055
66.9195
66.9329
66.9457
66.9579
66.9695
66.9806
66.9911
67.0012
67.0108
67.0199
67.0286
67.0369
67.0449
67.0524
67.0596
67.0665
67.073
67.0792
67.0851
67.0908
67.0962
67.1013
67.1062
67.1108
67.1153
67.1195
67.1235
67.1274
67.131
67.1345
67.1378
67.141
67.144
67.1468
67.1496
67.1522
67.1546
67.157
67.1592
67.1614
67.1634
67.1654
67.1672
67.169
67.1707
67.1723
67.1738
67.1752
67.1766
67.1779
67.1792
67.1804
67.1815
67.1826
67.1837
67.1846
67.1856
67.1865
67.1873
67.1882
67.1889
67.1897
67.1904
67.1911
67.1917
67.1923
67.1929
67.1935
67.194
67.1945
67.195
67.1955
67.1959
67.1964
67.1968
67.1972
67.1976
67.1979
67.1983
67.1986
67.199
67.1993
67.1996
67.1999
67.2001
67.2006
67.2037
67.2019
67.1981
67.1924
67.1848
67.1752
67.1637
67.1503
67.1349
67.1174
67.098
67.0765
67.0529
67.0272
66.9994
66.9693
66.9371
66.9026
66.8658
66.8267
66.7852
66.7413
66.6949
66.646
66.5946
66.5407
66.4841
66.425
66.3632
66.2987
66.2316
66.1619
66.0894
66.0144
65.9367
65.8565
65.7738
65.6886
65.601
65.5111
65.4191
65.325
65.229
65.1312
65.0317
64.9309
64.8288
64.7256
64.6216
64.5169
64.4119
64.3067
64.2014
64.0965
63.9919
63.888
63.785
63.6829
63.5819
63.4823
63.3841
63.2876
63.1928
63.0999
63.0091
62.9207
62.8346
62.7513
62.6709
62.5936
62.5197
62.4493
62.3829
62.3204
62.2623
62.2088
62.1599
62.116
62.0772
62.0436
62.0155
61.9929
61.9759
61.9647
61.9593
61.9598
61.9661
61.9783
61.9964
62.0203
62.05
62.0854
62.1264
62.1728
62.2246
62.2815
62.3434
62.41
62.4811
62.5566
62.6359
62.719
62.8056
62.8952
62.9876
63.0824
63.1794
63.2782
63.3785
63.48
63.5822
63.6851
63.7881
63.8912
63.9939
64.0961
64.1975
64.2978
64.397
64.4948
64.5909
64.6854
64.7781
64.8687
64.9573
65.0438
65.1281
65.2101
65.2898
65.3672
65.4422
65.5148
65.5852
65.6531
65.7188
65.7821
65.8432
65.9021
65.9587
66.0132
66.0656
66.116
66.1644
66.2108
66.2554
66.2981
66.339
66.3783
66.4158
66.4518
66.4863
66.5192
66.5507
66.5809
66.6097
66.6372
66.6635
66.6887
66.7127
66.7356
66.7575
66.7784
66.7983
66.8174
66.8355
66.8529
66.8694
66.8852
66.9002
66.9145
66.9282
66.9413
66.9537
66.9655
66.9768
66.9876
66.9979
67.0076
67.017
67.0259
67.0343
67.0424
67.0501
67.0574
67.0644
67.071
67.0773
67.0834
67.0891
67.0946
67.0998
67.1048
67.1095
67.114
67.1183
67.1224
67.1263
67.13
67.1335
67.1369
67.1401
67.1431
67.146
67.1488
67.1514
67.154
67.1564
67.1586
67.1608
67.1629
67.1648
67.1667
67.1685
67.1702
67.1718
67.1734
67.1748
67.1762
67.1776
67.1788
67.1801
67.1812
67.1823
67.1834
67.1844
67.1853
67.1862
67.1871
67.1879
67.1887
67.1895
67.1902
67.1909
67.1915
67.1921
67.1927
67.1933
67.1938
67.1944
67.1949
67.1953
67.1958
67.1962
67.1966
67.197
67.1974
67.1978
67.1982
67.1985
67.1988
67.1991
67.1994
67.1997
67.2
67.2002
67.2007
67.2037
67.2019
67.1982
67.1925
67.185
67.1755
67.1641
67.1508
67.1355
67.1183
67.099
67.0776
67.0542
67.0287
67.001
66.9712
66.9391
66.9047
66.8681
66.829
66.7876
66.7437
66.6973
66.6483
66.5968
66.5427
66.4859
66.4264
66.3642
66.2992
66.2315
66.161
66.0877
66.0117
65.933
65.8516
65.7675
65.6808
65.5917
65.5
65.4061
65.31
65.2118
65.1117
65.0099
64.9065
64.8018
64.6959
64.5891
64.4815
64.3736
64.2653
64.1571
64.0491
63.9415
63.8346
63.7285
63.6234
63.5196
63.4171
63.3162
63.217
63.1197
63.0244
62.9315
62.841
62.7532
62.6683
62.5865
62.508
62.4331
62.362
62.295
62.2322
62.174
62.1204
62.0716
62.028
61.9895
61.9565
61.9289
61.907
61.8908
61.8805
61.876
61.8775
61.885
61.8985
61.9179
61.9434
61.9747
62.0118
62.0547
62.1032
62.1572
62.2165
62.2808
62.3501
62.424
62.5023
62.5847
62.671
62.7607