/*--------------------------------*- C++ -*----------------------------------*\
| =========                 |                                                 |
| \\      /  F ield         | OpenFOAM: The Open Source CFD Toolbox           |
|  \\    /   O peration     | Version:  2306                                  |
|   \\  /    A nd           | Website:  www.openfoam.com                      |
|    \\/     M anipulation  |                                                 |
\*---------------------------------------------------------------------------*/
FoamFile
{
    version     2.0;
    format      ascii;
    arch        "LSB;label=32;scalar=64";
    class       volScalarField;
    location    "2";
    object      p;
}
// * * * * * * * * * * * * * * * * * * * * * * * * * * * * * * * * * * * * * //

dimensions      [0 2 -2 0 0 0 0];

internalField   nonuniform List<scalar> 
32768
(
0.282265
0.282136
0.281855
0.281411
0.280807
0.280044
0.279121
0.278039
0.276794
0.275384
0.273809
0.272067
0.270154
0.26807
0.265811
0.263376
0.26076
0.257963
0.254981
0.251811
0.248451
0.244898
0.24115
0.237203
0.233056
0.228705
0.22415
0.219387
0.214416
0.209236
0.203845
0.198242
0.192429
0.186405
0.180172
0.17373
0.167083
0.160234
0.153186
0.145943
0.138512
0.130898
0.123108
0.115151
0.107034
0.0987677
0.0903629
0.0818307
0.0731837
0.0644349
0.0555984
0.0466889
0.0377218
0.0287132
0.0196798
0.0106385
0.0016067
-0.00739798
-0.0163578
-0.0252552
-0.0340724
-0.042792
-0.0513969
-0.0598703
-0.0681957
-0.076357
-0.0843385
-0.0921251
-0.099702
-0.107055
-0.114169
-0.121031
-0.127629
-0.133948
-0.139978
-0.145706
-0.151121
-0.156214
-0.160974
-0.165395
-0.169467
-0.173186
-0.176545
-0.179542
-0.182175
-0.184441
-0.186341
-0.187879
-0.189055
-0.189876
-0.190347
-0.190476
-0.190272
-0.189743
-0.188902
-0.187759
-0.18633
-0.184626
-0.182663
-0.180456
-0.178022
-0.175376
-0.172535
-0.169516
-0.166336
-0.163012
-0.15956
-0.155997
-0.15234
-0.148603
-0.144802
-0.140952
-0.137067
-0.13316
-0.129243
-0.125328
-0.121427
-0.117549
-0.113703
-0.109899
-0.106144
-0.102444
-0.0988068
-0.0952369
-0.0917393
-0.0883179
-0.0849763
-0.0817172
-0.0785429
-0.0754551
-0.0724551
-0.0695437
-0.0667213
-0.0639881
-0.0613436
-0.0587873
-0.0563184
-0.0539357
-0.0516381
-0.049424
-0.0472919
-0.04524
-0.0432664
-0.0413693
-0.0395467
-0.0377964
-0.0361165
-0.0345047
-0.0329591
-0.0314774
-0.0300575
-0.0286974
-0.027395
-0.0261481
-0.0249548
-0.0238131
-0.022721
-0.0216766
-0.0206782
-0.0197238
-0.0188117
-0.0179402
-0.0171077
-0.0163126
-0.0155532
-0.0148281
-0.0141359
-0.0134751
-0.0128445
-0.0122426
-0.0116683
-0.0111204
-0.0105976
-0.010099
-0.00962332
-0.00916968
-0.00873705
-0.00832449
-0.0079311
-0.00755602
-0.0071984
-0.00685747
-0.00653246
-0.00622264
-0.00592731
-0.00564582
-0.00537751
-0.00512179
-0.00487807
-0.0046458
-0.00442444
-0.00421349
-0.00401246
-0.00382088
-0.00363832
-0.00346435
-0.00329857
-0.0031406
-0.00299006
-0.0028466
-0.0027099
-0.00257962
-0.00245548
-0.00233716
-0.0022244
-0.00211693
-0.00201451
-0.00191687
-0.00182381
-0.00173509
-0.00165051
-0.00156987
-0.00149298
-0.00141965
-0.00134971
-0.001283
-0.00121935
-0.00115862
-0.00110066
-0.00104534
-0.000992516
-0.000942068
-0.000893876
-0.000847825
-0.000803806
-0.000761712
-0.000721445
-0.000682907
-0.000646006
-0.000610655
-0.000576768
-0.000544266
-0.000513069
-0.000483104
-0.000454298
-0.000426583
-0.000399892
-0.000374162
-0.000349331
-0.000325338
-0.000302127
-0.000279643
-0.00025783
-0.000236637
-0.000216014
-0.00019591
-0.000176276
-0.000157068
-0.000138234
-0.000119745
-0.000101512
-8.36065e-05
-6.5698e-05
-4.84409e-05
-3e-05
-1.41658e-05
0.282422
0.282293
0.282012
0.281568
0.280964
0.280202
0.27928
0.278198
0.276954
0.275546
0.273972
0.27223
0.270319
0.268235
0.265977
0.263543
0.260928
0.258132
0.255151
0.251982
0.248622
0.24507
0.241321
0.237374
0.233226
0.228875
0.224319
0.219555
0.214583
0.2094
0.204006
0.1984
0.192583
0.186555
0.180317
0.17387
0.167217
0.160361
0.153305
0.146055
0.138615
0.130991
0.123191
0.115223
0.107095
0.0988163
0.0903988
0.0818535
0.0731926
0.0644296
0.0555784
0.0466539
0.0376714
0.0286472
0.019598
0.0105407
0.00149285
-0.00752786
-0.0165037
-0.0254168
-0.0342496
-0.0429845
-0.0516044
-0.0600922
-0.0684316
-0.0766063
-0.0846007
-0.0923994
-0.0999877
-0.107351
-0.114475
-0.121347
-0.127953
-0.13428
-0.140316
-0.14605
-0.151471
-0.156568
-0.161333
-0.165756
-0.169831
-0.173551
-0.176912
-0.179909
-0.182541
-0.184806
-0.186704
-0.188239
-0.189412
-0.190228
-0.190695
-0.190818
-0.190606
-0.190071
-0.189221
-0.18807
-0.186631
-0.184918
-0.182944
-0.180727
-0.178281
-0.175623
-0.17277
-0.169739
-0.166546
-0.163209
-0.159744
-0.156169
-0.152498
-0.148749
-0.144936
-0.141073
-0.137176
-0.133257
-0.129329
-0.125403
-0.121491
-0.117603
-0.113748
-0.109935
-0.106171
-0.102464
-0.0988191
-0.0952423
-0.0917382
-0.0883109
-0.0849639
-0.0816998
-0.078521
-0.0754292
-0.0724256
-0.069511
-0.0666859
-0.0639501
-0.0613035
-0.0587455
-0.0562751
-0.0538912
-0.0515926
-0.0493778
-0.0472452
-0.045193
-0.0432193
-0.0413223
-0.0394998
-0.0377499
-0.0360704
-0.0344593
-0.0329143
-0.0314333
-0.0300143
-0.028655
-0.0273535
-0.0261075
-0.0249152
-0.0237745
-0.0226835
-0.0216402
-0.0206428
-0.0196894
-0.0187784
-0.017908
-0.0170766
-0.0162824
-0.0155241
-0.0148001
-0.0141088
-0.013449
-0.0128193
-0.0122184
-0.011645
-0.011098
-0.0105761
-0.0100783
-0.00960348
-0.00915063
-0.00871877
-0.00830696
-0.0079143
-0.00753991
-0.00718297
-0.00684269
-0.0065183
-0.00620909
-0.00591434
-0.00563341
-0.00536564
-0.00511044
-0.00486722
-0.00463543
-0.00441453
-0.00420402
-0.00400341
-0.00381224
-0.00363007
-0.00345648
-0.00329105
-0.00313342
-0.00298321
-0.00284007
-0.00270366
-0.00257368
-0.0024498
-0.00233175
-0.00221924
-0.00211202
-0.00200982
-0.00191241
-0.00181956
-0.00173104
-0.00164665
-0.0015662
-0.00148948
-0.00141632
-0.00134654
-0.00127998
-0.00121648
-0.00115589
-0.00109807
-0.00104287
-0.000990171
-0.000939841
-0.000891762
-0.000845818
-0.000801902
-0.000759907
-0.000719734
-0.000681286
-0.000644472
-0.000609204
-0.000575398
-0.000542972
-0.000511849
-0.000481954
-0.000453217
-0.000425568
-0.00039894
-0.000373271
-0.000348498
-0.000324563
-0.000301407
-0.000278976
-0.000257215
-0.000236073
-0.000215498
-0.000195442
-0.000175855
-0.000156694
-0.000137903
-0.00011946
-0.000101268
-8.34082e-05
-6.5533e-05
-4.8331e-05
-2.98852e-05
-1.42011e-05
0.282735
0.282606
0.282326
0.281883
0.28128
0.280518
0.279598
0.278517
0.277275
0.275868
0.274296
0.272556
0.270647
0.268566
0.26631
0.263877
0.261265
0.25847
0.25549
0.252323
0.248965
0.245413
0.241665
0.237718
0.233569
0.229217
0.224658
0.219892
0.214916
0.209729
0.204329
0.198718
0.192893
0.186856
0.180608
0.174151
0.167486
0.160616
0.153545
0.146279
0.138821
0.131178
0.123358
0.115368
0.107217
0.0989142
0.0904713
0.0818993
0.0732109
0.0644193
0.0555386
0.0465839
0.0375706
0.028515
0.0194339
0.0103446
0.00126459
-0.00778831
-0.0167962
-0.025741
-0.0346051
-0.0433708
-0.0520205
-0.0605375
-0.0689049
-0.0771065
-0.0851266
-0.0929497
-0.100561
-0.107946
-0.11509
-0.12198
-0.128602
-0.134945
-0.140995
-0.146741
-0.152173
-0.157279
-0.162052
-0.166481
-0.170561
-0.174285
-0.177647
-0.180645
-0.183275
-0.185538
-0.187432
-0.188961
-0.190127
-0.190935
-0.191391
-0.191503
-0.191279
-0.190728
-0.189863
-0.188695
-0.187237
-0.185503
-0.183509
-0.18127
-0.178801
-0.176119
-0.173242
-0.170185
-0.166967
-0.163604
-0.160114
-0.156512
-0.152816
-0.149041
-0.145203
-0.141316
-0.137395
-0.133452
-0.129501
-0.125554
-0.121621
-0.117713
-0.113839
-0.110007
-0.106227
-0.102503
-0.0988435
-0.0952528
-0.0917359
-0.0882968
-0.0849388
-0.0816649
-0.0784771
-0.0753772
-0.0723664
-0.0694454
-0.0666146
-0.063874
-0.0612232
-0.0586615
-0.0561881
-0.0538019
-0.0515014
-0.0492852
-0.0471516
-0.0450988
-0.0431249
-0.041228
-0.0394059
-0.0376567
-0.0359781
-0.0343681
-0.0328244
-0.0313449
-0.0299275
-0.02857
-0.0272702
-0.0260262
-0.0248359
-0.0236972
-0.0226083
-0.0215671
-0.0205718
-0.0196206
-0.0187118
-0.0178435
-0.0170141
-0.0162221
-0.0154658
-0.0147438
-0.0140546
-0.0133968
-0.012769
-0.01217
-0.0115984
-0.0110532
-0.010533
-0.0100369
-0.00956373
-0.00911248
-0.00868217
-0.00827185
-0.00788064
-0.00750765
-0.00715206
-0.00681308
-0.00648996
-0.00618195
-0.00588837
-0.00560856
-0.00534188
-0.00508772
-0.00484549
-0.00461466
-0.00439468
-0.00418505
-0.00398529
-0.00379494
-0.00361355
-0.0034407
-0.00327599
-0.00311905
-0.00296949
-0.00282698
-0.00269118
-0.00256177
-0.00243844
-0.00232092
-0.00220892
-0.00210217
-0.00200044
-0.00190347
-0.00181104
-0.00172292
-0.00163892
-0.00155884
-0.00148247
-0.00140965
-0.00134019
-0.00127394
-0.00121074
-0.00115043
-0.00109287
-0.00103793
-0.000985476
-0.000935381
-0.000887527
-0.000841799
-0.000798089
-0.000756292
-0.000716308
-0.000678041
-0.000641401
-0.0006063
-0.000572653
-0.000540381
-0.000509405
-0.000479653
-0.000451052
-0.000423534
-0.000397033
-0.000371486
-0.000346831
-0.00032301
-0.000299965
-0.000277641
-0.000255984
-0.000234943
-0.000214466
-0.000194506
-0.000175013
-0.000155943
-0.000137242
-0.000118887
-0.000100782
-8.30075e-05
-6.52159e-05
-4.80987e-05
-2.97385e-05
-1.41532e-05
0.283205
0.283076
0.282796
0.282354
0.281752
0.280993
0.280074
0.278996
0.277756
0.276352
0.274782
0.273046
0.27114
0.269061
0.266809
0.264379
0.26177
0.258978
0.256
0.252835
0.249478
0.245928
0.24218
0.238233
0.234083
0.229729
0.225168
0.220398
0.215416
0.210223
0.204816
0.199195
0.193359
0.18731
0.181047
0.174573
0.167889
0.160999
0.153907
0.146615
0.139131
0.13146
0.123609
0.115586
0.107401
0.0990617
0.0905804
0.0819685
0.0732385
0.0644038
0.0554788
0.0464786
0.0374188
0.028316
0.0191871
0.0100495
0.000921029
-0.00818032
-0.0172364
-0.026229
-0.0351402
-0.043952
-0.0526469
-0.0612075
-0.0696171
-0.0778593
-0.0859179
-0.0937776
-0.101423
-0.10884
-0.116014
-0.122932
-0.12958
-0.135946
-0.142017
-0.147781
-0.153229
-0.158349
-0.163133
-0.167572
-0.171659
-0.175388
-0.178753
-0.181752
-0.184381
-0.186639
-0.188528
-0.190048
-0.191204
-0.191999
-0.19244
-0.192534
-0.19229
-0.191718
-0.190828
-0.189634
-0.188148
-0.186385
-0.184359
-0.182086
-0.179583
-0.176865
-0.173951
-0.170857
-0.1676
-0.164199
-0.160669
-0.157029
-0.153294
-0.149481
-0.145604
-0.14168
-0.137722
-0.133745
-0.12976
-0.125779
-0.121815
-0.117877
-0.113974
-0.110115
-0.106309
-0.102562
-0.0988794
-0.0952679
-0.0917316
-0.0882747
-0.0849005
-0.0816117
-0.0784105
-0.0752985
-0.0722769
-0.0693463
-0.0665071
-0.0637592
-0.061102
-0.0585351
-0.0560573
-0.0536674
-0.0513642
-0.0491459
-0.0470108
-0.0449572
-0.042983
-0.0410863
-0.0392649
-0.0375167
-0.0358395
-0.0342312
-0.0326895
-0.0312122
-0.0297972
-0.0284423
-0.0271454
-0.0259043
-0.0247169
-0.0235814
-0.0224955
-0.0214575
-0.0204654
-0.0195175
-0.0186118
-0.0177467
-0.0169205
-0.0161317
-0.0153785
-0.0146595
-0.0139733
-0.0133185
-0.0126936
-0.0120974
-0.0115286
-0.010986
-0.0104685
-0.00997489
-0.00950419
-0.00905533
-0.00862734
-0.00821927
-0.00783022
-0.00745933
-0.00710577
-0.00676875
-0.0064475
-0.00614131
-0.00584948
-0.00557136
-0.00530629
-0.00505369
-0.00481296
-0.00458356
-0.00436496
-0.00415666
-0.00395817
-0.00376903
-0.00358881
-0.00341708
-0.00325345
-0.00309753
-0.00294896
-0.00280739
-0.00267249
-0.00254394
-0.00242144
-0.00230471
-0.00219346
-0.00208744
-0.00198639
-0.00189008
-0.00179828
-0.00171078
-0.00162735
-0.00154782
-0.00147198
-0.00139966
-0.00133069
-0.0012649
-0.00120213
-0.00114224
-0.00108509
-0.00103054
-0.00097845
-0.000928707
-0.00088119
-0.000835785
-0.000792383
-0.000750881
-0.00071118
-0.000673185
-0.000636805
-0.000601953
-0.000568546
-0.000536503
-0.000505749
-0.000476208
-0.000447812
-0.00042049
-0.000394179
-0.000368815
-0.000344337
-0.000320686
-0.000297806
-0.000275642
-0.000254141
-0.000233251
-0.000212922
-0.000193105
-0.000173752
-0.000154819
-0.000136253
-0.00011803
-0.000100055
-8.24086e-05
-6.4745e-05
-4.77526e-05
-2.95252e-05
-1.40546e-05
0.28383
0.283702
0.283423
0.282982
0.282382
0.281625
0.280709
0.279634
0.278397
0.276996
0.275431
0.273698
0.271796
0.269722
0.267474
0.265048
0.262443
0.259655
0.256681
0.253518
0.250164
0.246615
0.242868
0.238921
0.234771
0.230414
0.225849
0.221074
0.216086
0.210884
0.205466
0.199832
0.193982
0.187916
0.181634
0.175138
0.16843
0.161513
0.154391
0.147067
0.139547
0.131838
0.123946
0.11588
0.107647
0.0992596
0.090727
0.0820615
0.0732757
0.0643834
0.0553989
0.0463377
0.0372157
0.0280495
0.0188564
0.00965411
0.000460679
-0.0087056
-0.0178263
-0.0268829
-0.0358572
-0.0447308
-0.053486
-0.0621052
-0.0705714
-0.0788677
-0.086978
-0.0948867
-0.102579
-0.110039
-0.117253
-0.124208
-0.13089
-0.137286
-0.143385
-0.149174
-0.154643
-0.159782
-0.164582
-0.169034
-0.17313
-0.176866
-0.180235
-0.183234
-0.185861
-0.188115
-0.189995
-0.191505
-0.192646
-0.193424
-0.193845
-0.193915
-0.193645
-0.193043
-0.192122
-0.190892
-0.189369
-0.187565
-0.185497
-0.18318
-0.18063
-0.177864
-0.1749
-0.171756
-0.168448
-0.164994
-0.161412
-0.15772
-0.153933
-0.150068
-0.14614
-0.142166
-0.13816
-0.134135
-0.130104
-0.12608
-0.122073
-0.118094
-0.114153
-0.110258
-0.106418
-0.102638
-0.098926
-0.0952866
-0.0917246
-0.088244
-0.084848
-0.0815395
-0.0783204
-0.0751923
-0.0721563
-0.069213
-0.0663626
-0.0636049
-0.0609395
-0.0583655
-0.0558818
-0.0534873
-0.0511803
-0.0489593
-0.0468224
-0.0447677
-0.0427932
-0.0408968
-0.0390763
-0.0373296
-0.0356543
-0.0340483
-0.0325093
-0.0310351
-0.0296234
-0.028272
-0.0269788
-0.0257416
-0.0245582
-0.0234268
-0.0223451
-0.0213114
-0.0203236
-0.0193799
-0.0184786
-0.0176178
-0.0167958
-0.0160112
-0.0152621
-0.0145473
-0.0138651
-0.0132141
-0.0125931
-0.0120007
-0.0114356
-0.0108966
-0.0103825
-0.00989233
-0.00942492
-0.00897925
-0.00855435
-0.00814927
-0.00776312
-0.00739502
-0.00704416
-0.00670974
-0.00639101
-0.00608724
-0.00579774
-0.00552185
-0.00525894
-0.00500841
-0.00476967
-0.00454219
-0.00432543
-0.00411888
-0.00392209
-0.00373457
-0.0035559
-0.00338566
-0.00322346
-0.0030689
-0.00292164
-0.00278132
-0.00264762
-0.00252022
-0.00239883
-0.00228314
-0.0021729
-0.00206784
-0.00196772
-0.00187229
-0.00178133
-0.00169462
-0.00161197
-0.00153316
-0.00145803
-0.00138638
-0.00131805
-0.00125287
-0.00119069
-0.00113136
-0.00107475
-0.0010207
-0.000969106
-0.000919832
-0.000872763
-0.000827787
-0.000784795
-0.000743687
-0.000704362
-0.000666728
-0.000630694
-0.000596174
-0.000563085
-0.000531348
-0.000500887
-0.000471628
-0.000443503
-0.000416443
-0.000390384
-0.000365263
-0.00034102
-0.000317596
-0.000294936
-0.000272985
-0.000251691
-0.000231001
-0.000210868
-0.000191242
-0.000172075
-0.000153325
-0.000134938
-0.000116891
-9.90889e-05
-8.16129e-05
-6.41197e-05
-4.72919e-05
-2.92402e-05
-1.39196e-05
0.284611
0.284484
0.284206
0.283767
0.283169
0.282414
0.281502
0.28043
0.279197
0.277802
0.276241
0.274514
0.272617
0.270548
0.268305
0.265885
0.263285
0.260502
0.257532
0.254374
0.251023
0.247476
0.24373
0.239783
0.235632
0.231273
0.226703
0.221922
0.216925
0.211713
0.206282
0.200633
0.194765
0.188678
0.182372
0.175849
0.16911
0.162159
0.154999
0.147635
0.140071
0.132314
0.12437
0.116249
0.107958
0.0995092
0.090912
0.082179
0.0733231
0.0643581
0.0552988
0.0461608
0.0369603
0.0277143
0.0184405
0.00915673
-0.00011846
-0.00936645
-0.0185684
-0.0277056
-0.0367591
-0.0457106
-0.0545416
-0.0632344
-0.0717715
-0.080136
-0.0883112
-0.0962814
-0.104031
-0.111546
-0.11881
-0.125812
-0.132536
-0.138971
-0.145105
-0.150925
-0.156421
-0.161584
-0.166403
-0.17087
-0.174979
-0.178724
-0.182098
-0.185098
-0.187723
-0.18997
-0.191841
-0.193336
-0.19446
-0.195216
-0.195611
-0.195653
-0.195349
-0.19471
-0.193748
-0.192475
-0.190904
-0.18905
-0.186928
-0.184554
-0.181946
-0.17912
-0.176094
-0.172885
-0.169512
-0.165993
-0.162345
-0.158586
-0.154734
-0.150804
-0.146812
-0.142775
-0.138708
-0.134623
-0.130534
-0.126454
-0.122394
-0.118365
-0.114376
-0.110435
-0.106552
-0.102732
-0.0989822
-0.0953079
-0.0917136
-0.0882033
-0.0847802
-0.0814469
-0.0782055
-0.0750573
-0.0720034
-0.0690443
-0.06618
-0.0634103
-0.0607345
-0.0581518
-0.055661
-0.0532607
-0.0509492
-0.0487249
-0.0465858
-0.0445298
-0.042555
-0.0406591
-0.0388399
-0.037095
-0.0354222
-0.0338192
-0.0322837
-0.0308133
-0.0294057
-0.0280588
-0.0267703
-0.025538
-0.0243597
-0.0232335
-0.0221571
-0.0211287
-0.0201463
-0.019208
-0.0183121
-0.0174566
-0.01664
-0.0158606
-0.0151168
-0.0144071
-0.0137299
-0.0130839
-0.0124677
-0.01188
-0.0113195
-0.010785
-0.0102753
-0.00978932
-0.00932602
-0.00888434
-0.0084633
-0.00806196
-0.00767942
-0.00731482
-0.00696733
-0.00663616
-0.00632056
-0.00601981
-0.00573322
-0.00546013
-0.00519991
-0.00495196
-0.00471571
-0.00449062
-0.00427614
-0.0040718
-0.00387711
-0.00369162
-0.00351489
-0.00334651
-0.00318608
-0.00303323
-0.0028876
-0.00274885
-0.00261664
-0.00249068
-0.00237065
-0.00225627
-0.00214729
-0.00204342
-0.00194444
-0.00185011
-0.0017602
-0.00167449
-0.0015928
-0.00151491
-0.00144065
-0.00136983
-0.0013023
-0.00123789
-0.00117644
-0.00111781
-0.00106186
-0.00100845
-0.000957467
-0.000908776
-0.000862266
-0.000817823
-0.000775344
-0.000734725
-0.00069587
-0.000658685
-0.000623081
-0.000588974
-0.000556282
-0.000524925
-0.00049483
-0.000465924
-0.000438137
-0.000411403
-0.000385657
-0.000360839
-0.000336888
-0.000313747
-0.000291361
-0.000269675
-0.000248638
-0.0002282
-0.00020831
-0.000188922
-0.000169987
-0.000151464
-0.0001333
-0.000115472
-9.78858e-05
-8.0622e-05
-6.33411e-05
-4.67177e-05
-2.88851e-05
-1.37508e-05
0.285548
0.28542
0.285144
0.284707
0.284112
0.28336
0.282452
0.281385
0.280158
0.278767
0.277213
0.275492
0.273602
0.27154
0.269304
0.26689
0.264296
0.261519
0.258555
0.255402
0.252055
0.248511
0.244767
0.240821
0.236668
0.232306
0.227732
0.222943
0.217937
0.212712
0.207267
0.2016
0.19571
0.189597
0.183263
0.176707
0.169932
0.16294
0.155736
0.148322
0.140704
0.132889
0.124884
0.116696
0.108335
0.0998118
0.0911366
0.0823219
0.073381
0.0643281
0.0551782
0.0459472
0.0366517
0.0273092
0.0179375
0.0085552
-0.000818932
-0.0101658
-0.0194661
-0.0287006
-0.03785
-0.0468955
-0.0558182
-0.0645999
-0.0732227
-0.0816693
-0.089923
-0.0979675
-0.105787
-0.113367
-0.120692
-0.12775
-0.134526
-0.141007
-0.147183
-0.15304
-0.15857
-0.16376
-0.168603
-0.17309
-0.177214
-0.180969
-0.184349
-0.187351
-0.189973
-0.192213
-0.194071
-0.19555
-0.196652
-0.197383
-0.197747
-0.197753
-0.197409
-0.196726
-0.195715
-0.194388
-0.19276
-0.190844
-0.188658
-0.186216
-0.183537
-0.180637
-0.177535
-0.174249
-0.170797
-0.167198
-0.16347
-0.159631
-0.155699
-0.15169
-0.147621
-0.143508
-0.139366
-0.135209
-0.131051
-0.126903
-0.122779
-0.118688
-0.114641
-0.110645
-0.10671
-0.102842
-0.0990465
-0.0953302
-0.0916971
-0.0881511
-0.0846954
-0.0813325
-0.0780643
-0.0748922
-0.0718169
-0.0688388
-0.065958
-0.063174
-0.060486
-0.057893
-0.0553937
-0.0529866
-0.0506699
-0.0484418
-0.0463001
-0.0442429
-0.0422678
-0.0403726
-0.038555
-0.0368125
-0.0351428
-0.0335435
-0.0320122
-0.0305465
-0.0291441
-0.0278026
-0.0265198
-0.0252935
-0.0241214
-0.0230014
-0.0219314
-0.0209095
-0.0199336
-0.0190019
-0.0181124
-0.0172634
-0.0164533
-0.0156802
-0.0149427
-0.0142391
-0.0135679
-0.0129279
-0.0123175
-0.0117354
-0.0111804
-0.0106513
-0.0101469
-0.00966599
-0.00920763
-0.00877073
-0.00835433
-0.00795747
-0.00757926
-0.00721885
-0.0068754
-0.00654813
-0.00623628
-0.00593915
-0.00565604
-0.0053863
-0.0051293
-0.00488446
-0.00465118
-0.00442894
-0.00421721
-0.0040155
-0.00382333
-0.00364026
-0.00346585
-0.00329969
-0.0031414
-0.00299059
-0.00284691
-0.00271003
-0.00257961
-0.00245536
-0.00233696
-0.00222416
-0.00211667
-0.00201424
-0.00191663
-0.0018236
-0.00173495
-0.00165044
-0.00156988
-0.00149309
-0.00141987
-0.00135006
-0.00128348
-0.00121998
-0.00115941
-0.00110161
-0.00104646
-0.000993815
-0.000943558
-0.000895565
-0.000849722
-0.000805918
-0.00076405
-0.000724016
-0.000685722
-0.000649074
-0.000613985
-0.000580372
-0.000548153
-0.000517252
-0.000487593
-0.000459107
-0.000431724
-0.00040538
-0.000380009
-0.000355553
-0.000331952
-0.000309149
-0.00028709
-0.000265721
-0.000244992
-0.000224852
-0.000205253
-0.000186149
-0.000167492
-0.000149241
-0.000131343
-0.000113776
-9.64485e-05
-7.9438e-05
-6.24108e-05
-4.60316e-05
-2.84609e-05
-1.35489e-05
0.286638
0.286511
0.286236
0.285802
0.28521
0.284463
0.283559
0.282498
0.281277
0.279893
0.278346
0.276632
0.27475
0.272697
0.270468
0.268063
0.265477
0.262707
0.25975
0.256603
0.253261
0.249721
0.245981
0.242035
0.237881
0.233516
0.228937
0.22414
0.219124
0.213885
0.208422
0.202734
0.196819
0.190678
0.18431
0.177716
0.170899
0.16386
0.156602
0.149131
0.141451
0.133568
0.12549
0.117224
0.10878
0.100169
0.0914021
0.0824912
0.0734503
0.0642937
0.0550369
0.0456962
0.0362887
0.0268323
0.0173454
0.00784686
-0.00164387
-0.0111072
-0.0205233
-0.0298724
-0.0391347
-0.0482907
-0.0573212
-0.0662074
-0.074931
-0.0834743
-0.09182
-0.0999517
-0.107853
-0.11551
-0.122907
-0.13003
-0.136866
-0.143403
-0.149628
-0.155529
-0.161097
-0.166321
-0.171192
-0.175701
-0.179843
-0.18361
-0.186997
-0.190001
-0.19262
-0.194851
-0.196696
-0.198155
-0.199233
-0.199933
-0.200261
-0.200225
-0.199835
-0.199099
-0.19803
-0.19664
-0.194944
-0.192957
-0.190693
-0.188171
-0.185408
-0.182421
-0.179229
-0.175852
-0.172307
-0.168614
-0.164791
-0.160858
-0.156831
-0.152729
-0.148568
-0.144365
-0.140135
-0.135893
-0.131652
-0.127426
-0.123226
-0.119063
-0.114947
-0.110887
-0.106891
-0.102965
-0.0991172
-0.0953517
-0.0916733
-0.0880856
-0.0845919
-0.0811945
-0.0778952
-0.0746951
-0.071595
-0.0685951
-0.0656952
-0.0628946
-0.0601926
-0.0575878
-0.0550788
-0.052664
-0.0503414
-0.048109
-0.0459646
-0.043906
-0.0419309
-0.0400367
-0.0382211
-0.0364816
-0.0348157
-0.0332208
-0.0316946
-0.0302345
-0.0288382
-0.0275032
-0.0262272
-0.0250079
-0.023843
-0.0227305
-0.021668
-0.0206537
-0.0196855
-0.0187614
-0.0178796
-0.0170382
-0.0162356
-0.0154699
-0.0147397
-0.0140434
-0.0133793
-0.0127462
-0.0121426
-0.0115671
-0.0110186
-0.0104958
-0.00999743
-0.0095225
-0.00906989
-0.00863858
-0.00822757
-0.00783594
-0.00746279
-0.00710725
-0.00676851
-0.00644578
-0.00613831
-0.00584539
-0.00556633
-0.0053005
-0.00504725
-0.004806
-0.00457619
-0.00435728
-0.00414874
-0.00395009
-0.00376086
-0.0035806
-0.00340889
-0.00324531
-0.00308949
-0.00294106
-0.00279965
-0.00266494
-0.0025366
-0.00241434
-0.00229785
-0.00218686
-0.00208111
-0.00198035
-0.00188433
-0.00179283
-0.00170562
-0.00162251
-0.00154328
-0.00146776
-0.00139576
-0.0013271
-0.00126164
-0.00119919
-0.00113963
-0.00108281
-0.00102858
-0.000976822
-0.000927412
-0.000880229
-0.00083516
-0.000792098
-0.00075094
-0.000711586
-0.000673942
-0.000637918
-0.000603427
-0.000570387
-0.000538718
-0.000508345
-0.000479194
-0.000451195
-0.000424282
-0.000398389
-0.000373454
-0.000349418
-0.000326222
-0.000303811
-0.000282132
-0.000261131
-0.000240759
-0.000220967
-0.000201706
-0.000182931
-0.000164597
-0.00014666
-0.000129072
-0.000111808
-9.47803e-05
-7.80639e-05
-6.13312e-05
-4.52353e-05
-2.79686e-05
-1.33145e-05
0.287881
0.287756
0.287482
0.287051
0.286463
0.285721
0.284823
0.283768
0.282554
0.281178
0.27964
0.277935
0.276063
0.274018
0.2718
0.269404
0.266828
0.264067
0.261119
0.257978
0.254643
0.251109
0.247371
0.243428
0.239274
0.234906
0.230321
0.225516
0.220488
0.215234
0.209752
0.20404
0.198097
0.191923
0.185517
0.17888
0.172014
0.164921
0.157603
0.150066
0.142314
0.134353
0.12619
0.117835
0.109296
0.100584
0.0917103
0.0826883
0.0735315
0.064255
0.0548745
0.045407
0.0358699
0.0262817
0.0166614
0.00702851
-0.00259703
-0.012195
-0.0217449
-0.0312263
-0.0406189
-0.0499026
-0.0590574
-0.0680641
-0.0769039
-0.0855584
-0.0940102
-0.102242
-0.110239
-0.117984
-0.125463
-0.132662
-0.139567
-0.146167
-0.152448
-0.1584
-0.164012
-0.169275
-0.174178
-0.178714
-0.182876
-0.186657
-0.190053
-0.19306
-0.195675
-0.197897
-0.199725
-0.201163
-0.202212
-0.202876
-0.203164
-0.20308
-0.202635
-0.201839
-0.200703
-0.199241
-0.197466
-0.195395
-0.193043
-0.190428
-0.187567
-0.184479
-0.181184
-0.1777
-0.174047
-0.170244
-0.166312
-0.162268
-0.158132
-0.153922
-0.149654
-0.145347
-0.141016
-0.136675
-0.132339
-0.128022
-0.123734
-0.119488
-0.115293
-0.111158
-0.107092
-0.103101
-0.0991923
-0.0953704
-0.09164
-0.0880047
-0.0844675
-0.0810307
-0.0776959
-0.0744641
-0.0713358
-0.0683111
-0.0653896
-0.0625704
-0.0598525
-0.0572345
-0.0547148
-0.0522914
-0.0499623
-0.0477254
-0.0455782
-0.0435183
-0.0415433
-0.0396506
-0.0378376
-0.0361017
-0.0344402
-0.0328507
-0.0313305
-0.029877
-0.0284877
-0.0271603
-0.0258921
-0.024681
-0.0235246
-0.0224206
-0.0213669
-0.0203614
-0.019402
-0.0184867
-0.0176137
-0.0167811
-0.0159871
-0.01523
-0.0145082
-0.0138201
-0.0131642
-0.012539
-0.0119431
-0.0113753
-0.0108341
-0.0103185
-0.00982716
-0.00935902
-0.00891299
-0.00848805
-0.00808323
-0.00769756
-0.00733018
-0.00698021
-0.00664683
-0.00632928
-0.0060268
-0.00573869
-0.00546426
-0.00520286
-0.00495389
-0.00471675
-0.00449089
-0.00427576
-0.00407085
-0.00387569
-0.0036898
-0.00351275
-0.00334411
-0.00318348
-0.00303048
-0.00288474
-0.00274592
-0.00261368
-0.00248771
-0.0023677
-0.00225338
-0.00214447
-0.0020407
-0.00194183
-0.00184762
-0.00175785
-0.0016723
-0.00159076
-0.00151305
-0.00143897
-0.00136835
-0.00130102
-0.00123681
-0.00117557
-0.00111716
-0.00106144
-0.00100826
-0.000957513
-0.000909065
-0.000862802
-0.000818615
-0.000776396
-0.000736043
-0.000697462
-0.000660557
-0.000625242
-0.00059143
-0.000559042
-0.000527998
-0.000498225
-0.00046965
-0.000442206
-0.000415825
-0.000390446
-0.000366006
-0.000342447
-0.000319712
-0.000297747
-0.000276499
-0.000255917
-0.00023595
-0.000216552
-0.000197676
-0.000179276
-0.000161307
-0.000143729
-0.000126492
-0.000109573
-9.28851e-05
-7.65029e-05
-6.01047e-05
-4.43307e-05
-2.74092e-05
-1.30482e-05
0.289277
0.289153
0.288881
0.288453
0.28787
0.287133
0.286242
0.285195
0.283989
0.282623
0.281094
0.2794
0.277538
0.275506
0.273299
0.270914
0.268349
0.265599
0.26266
0.259529
0.256202
0.252674
0.248942
0.245001
0.240847
0.236477
0.231887
0.227073
0.222032
0.216762
0.211259
0.205521
0.199548
0.193337
0.186889
0.180204
0.173283
0.166128
0.158743
0.151131
0.143297
0.135248
0.12699
0.118533
0.109885
0.101058
0.0920632
0.0829144
0.0736256
0.0642123
0.0546908
0.0450784
0.0353935
0.025655
0.0158825
0.00609636
-0.00368287
-0.0134342
-0.0231365
-0.0327686
-0.0423095
-0.0517383
-0.0610345
-0.0701782
-0.0791498
-0.0879307
-0.0965028
-0.104849
-0.112952
-0.120798
-0.12837
-0.135655
-0.142639
-0.14931
-0.155656
-0.161665
-0.167328
-0.172633
-0.177573
-0.182139
-0.186325
-0.190123
-0.193529
-0.196538
-0.19915
-0.201361
-0.203172
-0.204584
-0.205601
-0.206227
-0.206467
-0.206329
-0.205823
-0.204958
-0.203746
-0.202201
-0.200337
-0.19817
-0.195717
-0.192995
-0.190022
-0.186819
-0.183405
-0.179799
-0.176022
-0.172094
-0.168036
-0.163867
-0.159605
-0.155271
-0.150883
-0.146456
-0.142009
-0.137556
-0.133111
-0.12869
-0.124303
-0.119961
-0.115677
-0.111458
-0.107312
-0.103247
-0.0992694
-0.0953837
-0.0915947
-0.0879057
-0.0843197
-0.0808387
-0.0774641
-0.0741968
-0.071037
-0.0679847
-0.0650391
-0.0621993
-0.059464
-0.0568315
-0.0543
-0.0518674
-0.0495314
-0.0472897
-0.0451396
-0.0430787
-0.0411042
-0.0392134
-0.0374036
-0.035672
-0.0340159
-0.0324326
-0.0309193
-0.0294735
-0.0280924
-0.0267736
-0.0255146
-0.0243128
-0.023166
-0.0220719
-0.0210281
-0.0200325
-0.0190832
-0.0181779
-0.0173149
-0.0164921
-0.0157079
-0.0149605
-0.0142482
-0.0135695
-0.0129227
-0.0123065
-0.0117194
-0.0111601
-0.0106273
-0.0101197
-0.00963627
-0.00917577
-0.00873715
-0.00831938
-0.00792149
-0.00754254
-0.00718163
-0.00683791
-0.00651057
-0.00619883
-0.00590195
-0.00561923
-0.00534998
-0.00509358
-0.0048494
-0.00461687
-0.00439543
-0.00418454
-0.00398371
-0.00379245
-0.00361031
-0.00343685
-0.00327165
-0.00311431
-0.00296447
-0.00282175
-0.00268582
-0.00255635
-0.00243303
-0.00231556
-0.00220366
-0.00209706
-0.00199551
-0.00189876
-0.00180658
-0.00171874
-0.00163504
-0.00155528
-0.00147925
-0.00140679
-0.00133771
-0.00127185
-0.00120906
-0.00114917
-0.00109205
-0.00103755
-0.000985555
-0.000935931
-0.000888559
-0.000843326
-0.000800123
-0.000758846
-0.000719395
-0.000681677
-0.000645599
-0.000611076
-0.000578024
-0.000546363
-0.000516018
-0.000486916
-0.000458985
-0.00043216
-0.000406376
-0.00038157
-0.000357683
-0.000334658
-0.000312438
-0.000290971
-0.000270205
-0.00025009
-0.000230577
-0.00021162
-0.000193172
-0.000175191
-0.000157631
-0.000140453
-0.000123608
-0.000107075
-9.07675e-05
-7.47586e-05
-5.87342e-05
-4.33198e-05
-2.67842e-05
-1.27505e-05
0.290824
0.290701
0.290432
0.290008
0.289429
0.288699
0.287815
0.286777
0.285581
0.284225
0.282708
0.281027
0.279177
0.277158
0.274964
0.272593
0.270041
0.267304
0.264377
0.261257
0.257939
0.25442
0.250693
0.246756
0.242604
0.238233
0.233638
0.228815
0.223761
0.218473
0.212948
0.207182
0.201175
0.194924
0.18843
0.181691
0.17471
0.167488
0.160027
0.152331
0.144406
0.136258
0.127893
0.119321
0.110551
0.101594
0.0924631
0.0831714
0.0737337
0.0641659
0.0544851
0.0447093
0.0348574
0.0249492
0.015005
0.00504596
-0.0049066
-0.0148309
-0.0247049
-0.0345067
-0.0442144
-0.0538065
-0.0632616
-0.072559
-0.0816788
-0.0906015
-0.0993087
-0.107782
-0.116006
-0.123964
-0.13164
-0.139022
-0.146094
-0.152845
-0.159263
-0.165337
-0.171056
-0.17641
-0.181391
-0.185991
-0.190203
-0.19402
-0.197437
-0.200451
-0.203058
-0.205258
-0.20705
-0.208435
-0.209416
-0.209998
-0.210186
-0.209987
-0.209412
-0.208469
-0.207172
-0.205534
-0.203569
-0.201294
-0.198726
-0.195883
-0.192785
-0.189451
-0.185901
-0.182158
-0.17824
-0.174171
-0.16997
-0.165658
-0.161255
-0.156781
-0.152254
-0.147693
-0.143115
-0.138535
-0.133968
-0.129429
-0.12493
-0.120482
-0.116097
-0.111783
-0.107548
-0.1034
-0.0993457
-0.0953889
-0.0915345
-0.0877858
-0.0841455
-0.0806155
-0.0771969
-0.0738904
-0.070696
-0.0676133
-0.0646415
-0.0617792
-0.059025
-0.0563768
-0.0538327
-0.0513903
-0.0490471
-0.0468004
-0.0446476
-0.0425859
-0.0406124
-0.0387241
-0.0369182
-0.0351918
-0.033542
-0.0319659
-0.0304607
-0.0290237
-0.027652
-0.026343
-0.0250943
-0.0239031
-0.0227672
-0.0216841
-0.0206515
-0.0196672
-0.0187291
-0.017835