/*--------------------------------*- C++ -*----------------------------------*\
| =========                 |                                                 |
| \\      /  F ield         | OpenFOAM: The Open Source CFD Toolbox           |
|  \\    /   O peration     | Version:  2306                                  |
|   \\  /    A nd           | Website:  www.openfoam.com                      |
|    \\/     M anipulation  |                                                 |
\*---------------------------------------------------------------------------*/
FoamFile
{
    version     2.0;
    format      ascii;
    arch        "LSB;label=32;scalar=64";
    class       surfaceScalarField;
    location    "2";
    object      phi;
}
// * * * * * * * * * * * * * * * * * * * * * * * * * * * * * * * * * * * * * //

dimensions      [0 3 -1 0 0 0 0];

oriented        oriented;

internalField   nonuniform List<scalar> 
65152
(
0.00625049
-4.89139e-07
0.00625196
-1.46841e-06
0.0062544
-2.44724e-06
0.00625783
-3.42653e-06
0.00626224
-4.4077e-06
0.00626763
-5.39159e-06
0.00627401
-6.37863e-06
0.00628138
-7.36927e-06
0.00628974
-8.36402e-06
0.00629911
-9.36333e-06
0.00630947
-1.03676e-05
0.00632085
-1.1377e-05
0.00633324
-1.23919e-05
0.00634665
-1.34122e-05
0.00636109
-1.44379e-05
0.00637656
-1.5469e-05
0.00639307
-1.65052e-05
0.00641061
-1.75461e-05
0.0064292
-1.85913e-05
0.00644884
-1.964e-05
0.00646954
-2.06914e-05
0.00649128
-2.17447e-05
0.00651408
-2.27986e-05
0.00653793
-2.38519e-05
0.00656283
-2.4903e-05
0.00658878
-2.59502e-05
0.00661578
-2.69916e-05
0.0066438
-2.80251e-05
0.00667285
-2.90483e-05
0.00670291
-3.00589e-05
0.00673396
-3.10541e-05
0.00676599
-3.20309e-05
0.00679898
-3.29864e-05
0.0068329
-3.39173e-05
0.00686772
-3.48203e-05
0.00690341
-3.56918e-05
0.00693994
-3.65282e-05
0.00697726
-3.73259e-05
0.00701534
-3.8081e-05
0.00705413
-3.87897e-05
0.00709358
-3.94485e-05
0.00713364
-4.00534e-05
0.00717424
-4.06009e-05
0.00721532
-4.10876e-05
0.00725683
-4.151e-05
0.0072987
-4.18653e-05
0.00734085
-4.21506e-05
0.00738321
-4.23638e-05
0.00742572
-4.25032e-05
0.00746828
-4.25681e-05
0.00751084
-4.25589e-05
0.00755332
-4.24775e-05
0.00759565
-4.23273e-05
0.00763776
-4.21135e-05
0.0076796
-4.18428e-05
0.00772113
-4.15234e-05
0.00776229
-4.11641e-05
0.00780307
-4.07738e-05
0.00784343
-4.03607e-05
0.00788336
-3.9931e-05
0.00792285
-3.94885e-05
0.00796188
-3.90334e-05
0.00800044
-3.85624e-05
0.00803851
-3.8068e-05
0.00807605
-3.75396e-05
0.00811301
-3.6963e-05
0.00814934
-3.63224e-05
0.00818494
-3.56005e-05
0.00821972
-3.47803e-05
0.00825356
-3.38459e-05
0.00828635
-3.27834e-05
0.00831793
-3.15821e-05
0.00834816
-3.02346e-05
0.0083769
-2.87376e-05
0.00840399
-2.70914e-05
0.00842929
-2.53002e-05
0.00845266
-2.33713e-05
0.00847398
-2.1315e-05
0.00849312
-1.9144e-05
0.00850999
-1.68723e-05
0.00852451
-1.45153e-05
0.0085366
-1.20887e-05
0.00854621
-9.60831e-06
0.0085533
-7.08967e-06
0.00855784
-4.54766e-06
0.00855984
-1.99633e-06
0.00855929
5.5115e-07
0.00855621
3.08264e-06
0.00855062
5.58702e-06
0.00854257
8.05408e-06
0.00853209
1.04745e-05
0.00851925
1.28399e-05
0.00850411
1.51425e-05
0.00848673
1.73753e-05
0.0084672
1.95319e-05
0.00844559
2.16065e-05
0.008422
2.35939e-05
0.00839651
2.54892e-05
0.00836922
2.72883e-05
0.00834024
2.89873e-05
0.00830965
3.05831e-05
0.00827758
3.2073e-05
0.00824412
3.34546e-05
0.0082094
3.47265e-05
0.00817351
3.58874e-05
0.00813657
3.69367e-05
0.0080987
3.78745e-05
0.00806
3.87011e-05
0.00802058
3.94175e-05
0.00798056
4.00254e-05
0.00794003
4.05266e-05
0.00789911
4.09236e-05
0.00785789
4.12193e-05
0.00781647
4.14169e-05
0.00777495
4.152e-05
0.00773342
4.15326e-05
0.00769196
4.14587e-05
0.00765066
4.13029e-05
0.00760959
4.10696e-05
0.00756882
4.07636e-05
0.00752843
4.03897e-05
0.00748848
3.99528e-05
0.00744902
3.94577e-05
0.00741011
3.89094e-05
0.0073718
3.83126e-05
0.00733413
3.7672e-05
0.00729714
3.69924e-05
0.00726086
3.62783e-05
0.00722532
3.55338e-05
0.00719056
3.47634e-05
0.00715659
3.3971e-05
0.00712343
3.31603e-05
0.00709109
3.23351e-05
0.00705959
3.14987e-05
0.00702894
3.06543e-05
0.00699914
2.9805e-05
0.00697018
2.89535e-05
0.00694208
2.81023e-05
0.00691483
2.7254e-05
0.00688842
2.64105e-05
0.00686284
2.55739e-05
0.0068381
2.4746e-05
0.00681417
2.39284e-05
0.00679104
2.31225e-05
0.00676871
2.23296e-05
0.00674716
2.15508e-05
0.00672638
2.0787e-05
0.00670634
2.00391e-05
0.00668703
1.93078e-05
0.00666844
1.85937e-05
0.00665054
1.78971e-05
0.00663332
1.72186e-05
0.00661676
1.65583e-05
0.00660085
1.59165e-05
0.00658555
1.52932e-05
0.00657086
1.46885e-05
0.00655676
1.41024e-05
0.00654323
1.35348e-05
0.00653024
1.29854e-05
0.00651779
1.24542e-05
0.00650585
1.1941e-05
0.0064944
1.14453e-05
0.00648343
1.09671e-05
0.00647293
1.05059e-05
0.00646287
1.00613e-05
0.00645323
9.63314e-06
0.00644401
9.22089e-06
0.00643519
8.82421e-06
0.00642675
8.44269e-06
0.00641867
8.07592e-06
0.00641095
7.72349e-06
0.00640356
7.38498e-06
0.0063965
7.05997e-06
0.00638975
6.74804e-06
0.0063833
6.44879e-06
0.00637714
6.16178e-06
0.00637126
5.88662e-06
0.00636563
5.62289e-06
0.00636026
5.37021e-06
0.00635513
5.12817e-06
0.00635024
4.8964e-06
0.00634556
4.67452e-06
0.0063411
4.46216e-06
0.00633684
4.25895e-06
0.00633278
4.06456e-06
0.0063289
3.87864e-06
0.0063252
3.70086e-06
0.00632167
3.53089e-06
0.0063183
3.36843e-06
0.00631509
3.21317e-06
0.00631202
3.06482e-06
0.0063091
2.92309e-06
0.00630631
2.78772e-06
0.00630365
2.65843e-06
0.00630112
2.53497e-06
0.0062987
2.4171e-06
0.0062964
2.30458e-06
0.0062942
2.19718e-06
0.0062921
2.09467e-06
0.00629011
1.99686e-06
0.0062882
1.90353e-06
0.00628639
1.81449e-06
0.00628466
1.72955e-06
0.00628301
1.64853e-06
0.00628144
1.57126e-06
0.00627994
1.49757e-06
0.00627851
1.42731e-06
0.00627715
1.36032e-06
0.00627586
1.29645e-06
0.00627462
1.23556e-06
0.00627344
1.17752e-06
0.00627232
1.12221e-06
0.00627125
1.06949e-06
0.00627023
1.01926e-06
0.00626926
9.71393e-07
0.00626834
9.25789e-07
0.00626745
8.82344e-07
0.00626661
8.40959e-07
0.00626581
8.0154e-07
0.00626505
7.63999e-07
0.00626432
7.28249e-07
0.00626363
6.94209e-07
0.00626296
6.618e-07
0.00626233
6.3095e-07
0.00626173
6.01585e-07
0.00626116
5.73639e-07
0.00626061
5.47047e-07
0.00626009
5.21748e-07
0.00625959
4.97682e-07
0.00625912
4.74795e-07
0.00625866
4.53032e-07
0.00625823
4.32343e-07
0.00625782
4.12679e-07
0.00625742
3.93996e-07
0.00625705
3.76248e-07
0.00625669
3.59394e-07
0.00625634
3.43396e-07
0.00625602
3.28214e-07
0.0062557
3.13814e-07
0.0062554
3.00162e-07
0.00625512
2.87225e-07
0.00625484
2.74974e-07
0.00625458
2.63378e-07
0.00625432
2.5241e-07
0.00625408
2.42046e-07
0.00625385
2.32259e-07
0.00625363
2.23027e-07
0.00625341
2.14329e-07
0.00625321
2.06141e-07
0.00625301
1.98449e-07
0.00625282
1.91226e-07
0.00625263
1.8446e-07
0.00625245
1.78146e-07
0.00625228
1.72122e-07
0.00625212
1.67006e-07
1.60375e-07
0.00625049
-9.78796e-07
0.00625196
-2.93514e-06
0.0062544
-4.89186e-06
0.00625782
-6.85046e-06
0.00626223
-8.81255e-06
0.00626762
-1.07797e-05
0.00627399
-1.27531e-05
0.00628136
-1.47338e-05
0.00628972
-1.67229e-05
0.00629907
-1.87212e-05
0.00630944
-2.07294e-05
0.00632081
-2.27481e-05
0.00633319
-2.47777e-05
0.0063466
-2.68183e-05
0.00636103
-2.88699e-05
0.00637649
-3.09324e-05
0.00639299
-3.30052e-05
0.00641054
-3.50876e-05
0.00642912
-3.71786e-05
0.00644876
-3.92769e-05
0.00646945
-4.13809e-05
0.00649119
-4.34887e-05
0.00651399
-4.5598e-05
0.00653785
-4.77062e-05
0.00656275
-4.98102e-05
0.00658871
-5.19066e-05
0.00661571
-5.39917e-05
0.00664375
-5.60611e-05
0.00667281
-5.81104e-05
0.00670288
-6.01344e-05
0.00673396
-6.21277e-05
0.00676601
-6.40847e-05
0.00679902
-6.59992e-05
0.00683297
-6.78646e-05
0.00686783
-6.96743e-05
0.00690355
-7.14212e-05
0.00694012
-7.30981e-05
0.0069775
-7.46974e-05
0.00701563
-7.62118e-05
0.00705447
-7.76336e-05
0.00709398
-7.89552e-05
0.00713409
-8.01692e-05
0.00717476
-8.12684e-05
0.00721592
-8.22457e-05
0.0072575
-8.30946e-05
0.00729945
-8.38088e-05
0.00734168
-8.4383e-05
0.00738413
-8.48126e-05
0.00742672
-8.50944e-05
0.00746938
-8.5227e-05
0.00751203
-8.52111e-05
0.0075546
-8.50503e-05
0.00759703
-8.47515e-05
0.00763924
-8.43251e-05
0.00768118
-8.37844e-05
0.0077228
-8.31456e-05
0.00776406
-8.24264e-05
0.00780494
-8.16447e-05
0.00784539
-8.08166e-05
0.00788542
-7.99547e-05
0.00792499
-7.90663e-05
0.00796411
-7.81522e-05
0.00800276
-7.72055e-05
0.0080409
-7.62118e-05
0.00807851
-7.51493e-05
0.00811554
-7.39903e-05
0.00815192
-7.27029e-05
0.00818757
-7.1253e-05
0.00822239
-6.96064e-05
0.00825628
-6.77314e-05
0.0082891
-6.56005e-05
0.00832071
-6.31922e-05
0.00835096
-6.04918e-05
0.00837972
-5.74926e-05
0.00840682
-5.41952e-05
0.00843213
-5.06078e-05
0.00845551
-4.67453e-05
0.00847682
-4.26283e-05
0.00849596
-3.82816e-05
0.00851282
-3.37338e-05
0.00852732
-2.90152e-05
0.00853939
-2.41574e-05
0.00854897
-1.91919e-05
0.00855603
-1.41499e-05
0.00856054
-9.06094e-06
0.0085625
-3.95322e-06
0.0085619
1.14672e-06
0.00855877
6.21485e-06
0.00855313
1.12288e-05
0.00854502
1.61681e-05
0.00853448
2.10142e-05
0.00852157
2.575e-05
0.00850635
3.03602e-05
0.00848889
3.48307e-05
0.00846928
3.91485e-05
0.00844758
4.33022e-05
0.00842389
4.7281e-05
0.00839831
5.10754e-05
0.00837092
5.46769e-05
0.00834183
5.8078e-05
0.00831114
6.12722e-05
0.00827896
6.42539e-05
0.00824539
6.70189e-05
0.00821056
6.95637e-05
0.00817456
7.1886e-05
0.00813751
7.39848e-05
0.00809953
7.58597e-05
0.00806071
7.7512e-05
0.00802119
7.89434e-05
0.00798106
8.01572e-05
0.00794043
8.11572e-05
0.0078994
8.19484e-05
0.00785808
8.25365e-05
0.00781657
8.29281e-05
0.00777496
8.31305e-05
0.00773334
8.31514e-05
0.0076918
8.29993e-05
0.00765042
8.2683e-05
0.00760928
8.22118e-05
0.00756845
8.1595e-05
0.007528
8.08424e-05
0.00748799
7.99636e-05
0.00744848
7.89687e-05
0.00740952
7.78672e-05
0.00737116
7.66688e-05
0.00733345
7.53832e-05
0.00729642
7.40194e-05
0.00726011
7.25867e-05
0.00722455
7.10937e-05
0.00718977
6.95489e-05
0.00715578
6.79601e-05
0.0071226
6.63352e-05
0.00709026
6.46813e-05
0.00705875
6.30053e-05
0.00702809
6.13136e-05
0.00699829
5.96122e-05
0.00696933
5.79066e-05
0.00694123
5.62019e-05
0.00691398
5.4503e-05
0.00688758
5.28141e-05
0.00686201
5.11392e-05
0.00683728
4.94818e-05
0.00681336
4.78452e-05
0.00679025
4.62321e-05
0.00676794
4.46452e-05
0.0067464
4.30865e-05
0.00672563
4.15582e-05
0.00670561
4.00617e-05
0.00668632
3.85985e-05
0.00666774
3.71697e-05
0.00664986
3.57763e-05
0.00663266
3.4419e-05
0.00661612
3.30982e-05
0.00660022
3.18145e-05
0.00658495
3.05679e-05
0.00657028
2.93586e-05
0.00655619
2.81864e-05
0.00654268
2.70512e-05
0.00652971
2.59527e-05
0.00651727
2.48906e-05
0.00650535
2.38643e-05
0.00649392
2.28734e-05
0.00648297
2.19172e-05
0.00647248
2.0995e-05
0.00646244
2.01063e-05
0.00645282
1.92503e-05
0.00644362
1.84262e-05
0.00643481
1.76333e-05
0.00642638
1.68706e-05
0.00641832
1.61375e-05
0.00641061
1.54331e-05
0.00640324
1.47565e-05
0.00639619
1.41069e-05
0.00638945
1.34834e-05
0.00638302
1.28853e-05
0.00637687
1.23117e-05
0.00637099
1.17618e-05
0.00636538
1.12348e-05
0.00636002
1.07298e-05
0.0063549
1.02461e-05
0.00635002
9.78293e-06
0.00634535
9.33954e-06
0.0063409
8.91517e-06
0.00633665
8.50911e-06
0.00633259
8.12067e-06
0.00632872
7.74916e-06
0.00632503
7.39391e-06
0.00632151
7.05429e-06
0.00631814
6.72967e-06
0.00631494
6.41944e-06
0.00631188
6.12302e-06
0.00630896
5.83984e-06
0.00630618
5.56936e-06
0.00630353
5.31104e-06
0.006301
5.06437e-06
0.00629859
4.82887e-06
0.00629629
4.60405e-06
0.0062941
4.38947e-06
0.00629201
4.18467e-06
0.00629001
3.98925e-06
0.00628811
3.80278e-06
0.0062863
3.62489e-06
0.00628458
3.45519e-06
0.00628293
3.29333e-06
0.00628137
3.13895e-06
0.00627987
2.99174e-06
0.00627845
2.85136e-06
0.00627709
2.71752e-06
0.0062758
2.58992e-06
0.00627456
2.46828e-06
0.00627339
2.35233e-06
0.00627227
2.24183e-06
0.0062712
2.13651e-06
0.00627019
2.03616e-06
0.00626922
1.94053e-06
0.00626829
1.84943e-06
0.00626741
1.76263e-06
0.00626657
1.67996e-06
0.00626577
1.60121e-06
0.00626501
1.52621e-06
0.00626429
1.45479e-06
0.00626359
1.38679e-06
0.00626293
1.32205e-06
0.0062623
1.26042e-06
0.0062617
1.20176e-06
0.00626113
1.14593e-06
0.00626058
1.09281e-06
0.00626006
1.04227e-06
0.00625957
9.94191e-07
0.00625909
9.48469e-07
0.00625864
9.04994e-07
0.00625821
8.63664e-07
0.0062578
8.24383e-07
0.00625741
7.87059e-07
0.00625703
7.51605e-07
0.00625667
7.17937e-07
0.00625633
6.85978e-07
0.006256
6.5565e-07
0.00625569
6.26885e-07
0.00625539
5.99612e-07
0.0062551
5.73769e-07
0.00625483
5.49294e-07
0.00625457
5.26129e-07
0.00625431
5.0422e-07
0.00625407
4.83516e-07
0.00625384
4.63965e-07
0.00625362
4.45524e-07
0.0062534
4.28146e-07
0.0062532
4.11794e-07
0.006253
3.9642e-07
0.00625281
3.82013e-07
0.00625263
3.68454e-07
0.00625245
3.55971e-07
0.00625228
3.43734e-07
0.00625211
3.34183e-07
3.19866e-07
0.00625049
-1.46723e-06
0.00625195
-4.39985e-06
0.00625439
-7.33309e-06
0.00625781
-1.02694e-05
0.00626221
-1.32111e-05
0.00626759
-1.61603e-05
0.00627396
-1.9119e-05
0.00628131
-2.20888e-05
0.00628966
-2.50713e-05
0.00629901
-2.80678e-05
0.00630936
-3.10794e-05
0.00632072
-3.4107e-05
0.00633309
-3.71511e-05
0.00634648
-4.02121e-05
0.0063609
-4.32899e-05
0.00637636
-4.63843e-05
0.00639285
-4.94945e-05
0.00641038
-5.26195e-05
0.00642896
-5.57578e-05
0.00644859
-5.89075e-05
0.00646927
-6.20662e-05
0.00649102
-6.5231e-05
0.00651382
-6.83986e-05
0.00653767
-7.1565e-05
0.00656259
-7.47256e-05
0.00658856
-7.78754e-05
0.00661558
-8.10086e-05
0.00664363
-8.4119e-05
0.00667272
-8.71996e-05
0.00670283
-9.02428e-05
0.00673394
-9.32406e-05
0.00676604
-9.61843e-05
0.00679911
-9.90646e-05
0.00683312
-0.000101872
0.00686804
-0.000104596
0.00690384
-0.000107226
0.0069405
-0.000109751
0.00697796
-0.000112161
0.00701619
-0.000114443
0.00705514
-0.000116586
0.00709477
-0.000118579
0.00713501
-0.00012041
0.00717581
-0.000122069
0.00721711
-0.000123545
0.00725884
-0.000124828
0.00730094
-0.000125909
0.00734334
-0.000126779
0.00738596
-0.000127432
0.00742873
-0.000127862
0.00747157
-0.000128068
0.00751441
-0.00012805
0.00755717
-0.000127814
0.00759979
-0.00012737
0.0076422
-0.000126733
0.00768433
-0.000125924
0.00772615
-0.000124966
0.00776761
-0.000123886
0.00780868
-0.00012271
0.00784933
-0.000121463
0.00788954
-0.000120164
0.00792929
-0.000118823
0.00796858
-0.000117442
0.00800739
-0.000116011
0.00804568
-0.000114507
0.00808343
-0.0001129
0.00812059
-0.000111146
0.00815709
-0.0001092
0.00819284
-0.00010701
0.00822776
-0.000104524
0.00826173
-0.000101696
0.00829461
-9.84853e-05
0.00832628
-9.48584e-05
0.00835658
-9.07942e-05
0.00838537
-8.62821e-05
0.0084125
-8.13234e-05
0.00843782
-7.59302e-05
0.0084612
-7.01247e-05
0.00848251
-6.39377e-05
0.00850163
-5.74064e-05
0.00851847
-5.05733e-05
0.00853294
-4.3484e-05
0.00854497
-3.61857e-05
0.0085545
-2.87258e-05
0.0085615
-2.11508e-05
0.00856595
-1.35052e-05
0.00856783
-5.83094e-06
0.00856714
1.83152e-06
0.00856391
9.44662e-06
0.00855816
1.69805e-05
0.00854992
2.44024e-05
0.00853925
3.16845e-05
0.0085262
3.8801e-05
0.00851083
4.57288e-05
0.00849322
5.24466e-05
0.00847343
5.89351e-05
0.00845156
6.51765e-05
0.00842768
7.1155e-05
0.0084019
7.68561e-05
0.00837431
8.22669e-05
0.00834501
8.73761e-05
0.00831411
9.21737e-05
0.00828171
9.66516e-05
0.00824793
0.000100803
0.00821287
0.000104623
0.00817665
0.000108108
0.00813938
0.000111256
0.00810117
0.000114067
0.00806214
0.000116543
0.0080224
0.000118686
0.00798205
0.000120502
0.00794121
0.000121996
0.00789999
0.000123176
0.00785847
0.00012405
0.00781677
0.000124628
0.00777498
0.000124922
0.00773319
0.000124943
0.00769149
0.000124704
0.00764995
0.000124218
0.00760866
0.000123499
0.0075677
0.000122562
0.00752712
0.000121421
0.00748699
0.000120091
0.00744737
0.000118586
0.00740832
0.000116922
0.00736988
0.000115112
0.00733209
0.000113172
0.00729499
0.000111115
0.00725862
0.000108955
0.00722301
0.000106705
0.00718818
0.000104378
0.00715416
0.000101985
0.00712095
9.95391e-05
0.00708858
9.70497e-05
0.00705706
9.45277e-05
0.00702639
9.19827e-05
0.00699658
8.94236e-05
0.00696763
8.68587e-05
0.00693954
8.42959e-05
0.0069123
8.17421e-05
0.00688591
7.92038e-05
0.00686036
7.6687e-05
0.00683564
7.41969e-05
0.00681175
7.17384e-05
0.00678867
6.93156e-05
0.00676638
6.69324e-05
0.00674487
6.45921e-05
0.00672413
6.22975e-05
0.00670415
6.0051e-05
0.00668489
5.78548e-05
0.00666635
5.57104e-05
0.00664851
5.36194e-05
0.00663134
5.15827e-05
0.00661484
4.96012e-05
0.00659898
4.76753e-05
0.00658374
4.58053e-05
0.00656911
4.39914e-05
0.00655506
4.22334e-05
0.00654158
4.0531e-05
0.00652865
3.88837e-05
0.00651625
3.72911e-05
0.00650436
3.57523e-05
0.00649297
3.42666e-05
0.00648205
3.28331e-05
0.0064716
3.14508e-05
0.00646158
3.01187e-05
0.006452
2.88356e-05
0.00644282
2.76005e-05
0.00643405
2.6412e-05
0.00642565
2.52691e-05
0.00641761
2.41704e-05
0.00640993
2.31148e-05
0.00640259
2.2101e-05
0.00639557
2.11276e-05
0.00638886
2.01935e-05
0.00638245
1.92974e-05
0.00637632
1.8438e-05
0.00637047
1.76141e-05
0.00636488
1.68246e-05
0.00635954
1.60681e-05
0.00635444
1.53435e-05
0.00634957
1.46497e-05
0.00634493
1.39855e-05
0.00634049
1.33499e-05
0.00633626
1.27417e-05
0.00633222
1.21599e-05
0.00632837
1.16034e-05
0.00632469
1.10714e-05
0.00632118
1.05627e-05
0.00631783
1.00765e-05
0.00631464
9.61192e-06
0.0063116
9.168e-06
0.00630869
8.74392e-06
0.00630592
8.33885e-06
0.00630328
7.95201e-06
0.00630076
7.58262e-06
0.00629836
7.22996e-06
0.00629607
6.8933e-06
0.00629389
6.57198e-06
0.00629181
6.26531e-06
0.00628983
5.97268e-06
0.00628794
5.69347e-06
0.00628613
5.4271e-06
0.00628442
5.17301e-06
0.00628278
4.93064e-06
0.00628122
4.6995e-06
0.00627973
4.47907e-06
0.00627831
4.26888e-06
0.00627696
4.06848e-06
0.00627568
3.87743e-06
0.00627445
3.69531e-06
0.00627328
3.52171e-06
0.00627216
3.35626e-06
0.0062711
3.19858e-06
0.00627009
3.04833e-06
0.00626913
2.90516e-06
0.00626821
2.76876e-06
0.00626733
2.63881e-06
0.0062665
2.51503e-06
0.0062657
2.39714e-06
0.00626494
2.28485e-06
0.00626422
2.17793e-06
0.00626353
2.07612e-06
0.00626287
1.97919e-06
0.00626224
1.88692e-06
0.00626165
1.7991e-06
0.00626108
1.71552e-06
0.00626053
1.63599e-06
0.00626002
1.56033e-06
0.00625952
1.48835e-06
0.00625905
1.4199e-06
0.0062586
1.35481e-06
0.00625817
1.29294e-06
0.00625776
1.23413e-06
0.00625737
1.17826e-06
0.006257
1.12518e-06
0.00625664
1.07478e-06
0.0062563
1.02693e-06
0.00625597
9.81529e-07
0.00625566
9.38464e-07
0.00625536
8.97636e-07
0.00625508
8.58947e-07
0.00625481
8.22307e-07
0.00625454
7.87628e-07
0.00625429
7.54829e-07
0.00625405
7.23833e-07
0.00625382
6.94566e-07
0.0062536
6.66958e-07
0.00625339
6.40943e-07
0.00625318
6.16465e-07
0.00625299
5.93447e-07
0.0062528
5.71887e-07
0.00625261
5.5158e-07
0.00625244
5.32931e-07
0.00625227
5.14568e-07
0.0062521
5.00354e-07
4.78789e-07
0.00625049
-1.95457e-06
0.00625195
-5.86134e-06
0.00625438
-9.76897e-06
0.0062578
-1.36809e-05
0.00626219
-1.76002e-05
0.00626755
-2.15296e-05
0.00627391
-2.54719e-05
0.00628125
-2.94292e-05
0.00628958
-3.34038e-05
0.00629891
-3.73974e-05
0.00630924
-4.14115e-05
0.00632058
-4.54473e-05
0.00633294
-4.95057e-05
0.00634631
-5.35871e-05
0.00636071
-5.76915e-05
0.00637615
-6.18186e-05
0.00639262
-6.59674e-05
0.00641014
-7.01367e-05
0.0064287
-7.43245e-05
0.00644833
-7.85282e-05
0.006469
-8.27448e-05
0.00649074
-8.69704e-05
0.00651355
-9.12006e-05
0.00653741
-9.54301e-05
0.00656234
-9.96529e-05
0.00658832
-0.000103862
0.00661537
-0.00010805
0.00664346
-0.000112209
0.00667259
-0.000116329
0.00670274
-0.0001204
0.00673391
-0.000124412
0.00676608
-0.000128352
0.00679923
-0.000132209
0.00683332
-0.000135969
0.00686835
-0.000139618
0.00690426
-0.000143143
0.00694104
-0.000146529
0.00697864
-0.000149761
0.00701702
-0.000152823
0.00705614
-0.000155701
0.00709594
-0.000158378
0.00713637
-0.000160839
0.00717737
-0.000163071
0.00721888
-0.000165058
0.00726084
-0.000166787
0.00730317
-0.000168245
0.00734582
-0.000169422
0.00738869
-0.000170308
0.00743173
-0.000170896
0.00747484
-0.000171183
0.00751796
-0.00017117
0.00756101
-0.000170865
0.00760392
-0.000170281
0.00764663
-0.000169437
0.00768906
-0.000168361
0.00773118
-0.000167084
0.00777294
-0.000165641
0.00781429
-0.000164068
0.00785523
-0.000162397
0.00789572
-0.000160653
0.00793574
-0.00015885
0.00797529
-0.00015699
0.00801434
-0.00015506
0.00805286
-0.000153031
0.00809083
-0.000150862
0.00812818
-0.000148497
0.00816485
-0.000145873
0.00820076
-0.000142924
0.00823582
-0.000139581
0.00826991
-0.000135782
0.00830289
-0.000131472
0.00833464
-0.00012661
0.00836501
-0.000121165
0.00839386
-0.000115124
0.00842102
-0.000108489
0.00844637
-0.000101275
0.00846975
-9.35124e-05
0.00849106
-8.52414e-05
0.00851016
-7.65118e-05
0.00852697
-6.73799e-05
0.00854139
-5.79062e-05
0.00855336
-4.81536e-05
0.00856282
-3.81851e-05
0.00856973
-2.80626e-05
0.00857407
-1.78456e-05
0.00857583
-7.59012e-06
0.00857501
2.65039e-06
0.00857163
1.28279e-05
0.00856571
2.28973e-05
0.0085573
3.28176e-05
0.00854643
4.25511e-05
0.00853317
5.20638e-05
0.00851757
6.13243e-05
0.00849972
7.03041e-05
0.00847967
7.89772e-05
0.00845753
8.73198e-05
0.00843338
9.53104e-05
0.0084073
0.00010293
0.00837941
0.00011016
0.0083498
0.000116986
0.00831858
0.000123395
0.00828585
0.000129376
0.00825174
0.000134918
0.00821634
0.000140017
0.00817979
0.000144666
0.00814218
0.000148863
0.00810364
0.000152609
0.00806427
0.000155906
0.0080242
0.000158756
0.00798354
0.000161168
0.00794239
0.000163148
0.00790085
0.000164708
0.00785905
0.000165858
0.00781706
0.000166612
0.007775
0.000166985
0.00773295
0.000166994
0.007691
0.000166654
0.00764923
0.000165985
0.00760773
0.000165005
0.00756655
0.000163732
0.00752579
0.000162188
0.00748549
0.000160391
0.00744571
0.000158362
0.00740651
0.000156121
0.00736794
0.000153686
0.00733003
0.000151078
0.00729283
0.000148314
0.00725637
0.000145414
0.00722068
0.000142394
0.00718579
0.000139273
0.00715171
0.000136065
0.00711846
0.000132786
0.00708606
0.000129451
0.00705452
0.000126073
0.00702383
0.000122666
0.00699402
0.000119241
0.00696507
0.000115809
0.00693698
0.000112381
0.00690976
0.000108966
0.00688339
0.000105572
0.00685787
0.000102208
0.00683319
9.88805e-05
0.00680933
9.55958e-05
0.00678628
9.23596e-05
0.00676404
8.91769e-05
0.00674258
8.60519e-05
0.00672189
8.29886e-05
0.00670195
7.99901e-05
0.00668275
7.70592e-05
0.00666426
7.41979e-05
0.00664647
7.14082e-05
0.00662936
6.86914e-05
0.00661291
6.60485e-05
0.00659711
6.34802e-05
0.00658193
6.09868e-05
0.00656735
5.85684e-05
0.00655336
5.62248e-05
0.00653993
5.39556e-05
0.00652706
5.17601e-05
0.00651471
4.96377e-05
0.00650288
4.75872e-05
0.00649154
4.56077e-05
0.00648067
4.36979e-05
0.00647026
4.18564e-05
0.0064603
4.0082e-05
0.00645076
3.8373e-05
0.00644164
3.67279e-05
0.0064329
3.51452e-05
0.00642455
3.36233e-05
0.00641656
3.21603e-05
0.00640892
3.07548e-05
0.00640162
2.9405e-05
0.00639463
2.81091e-05
0.00638796
2.68656e-05
0.00638159
2.56727e-05
0.0063755
2.45288e-05
0.00636968
2.34322e-05
0.00636412
2.23813e-05
0.00635881
2.13745e-05
0.00635375
2.04102e-05
0.00634891
1.94869e-05
0.00634429
1.8603e-05
0.00633989
1.77572e-05
0.00633568
1.69478e-05
0.00633167
1.61737e-05
0.00632784
1.54333e-05
0.00632418
1.47254e-05
0.0063207
1.40487e-05
0.00631737
1.34018e-05
0.0063142
1.27837e-05
0.00631117
1.21931e-05
0.00630829
1.1629e-05
0.00630554
1.10901e-05
0.00630291
1.05755e-05
0.00630041
1.00842e-05
0.00629803
9.61505e-06
0.00629575
9.16724e-06
0.00629359
8.73983e-06
0.00629152
8.33193e-06
0.00628955
7.9427e-06
0.00628767
7.57134e-06
0.00628588
7.21705e-06
0.00628417
6.87909e-06
0.00628255
6.55675e-06
0.006281
6.24933e-06
0.00627952
5.95617e-06
0.00627811
5.67663e-06
0.00627677
5.41011e-06
0.00627549
5.15603e-06
0.00627428
4.91382e-06
0.00627311
4.68296e-06
0.00627201
4.46293e-06
0.00627095
4.25324e-06
0.00626995
4.05342e-06
0.00626899
3.86303e-06
0.00626808
3.68164e-06
0.00626721
3.50884e-06
0.00626638
3.34423e-06
0.00626559
3.18745e-06
0.00626483
3.03814e-06
0.00626412
2.89596e-06
0.00626343
2.76057e-06
0.00626278
2.63168e-06
0.00626216
2.50899e-06
0.00626156
2.3922e-06
0.006261
2.28106e-06
0.00626046
2.17531e-06
0.00625994
2.0747e-06
0.00625945
1.97899e-06
0.00625899
1.88797e-06
0.00625854
1.80143e-06
0.00625811
1.71915e-06
0.00625771
1.64096e-06
0.00625732
1.56666e-06
0.00625695
1.49608e-06
0.00625659
1.42906e-06
0.00625625
1.36544e-06
0.00625593
1.30507e-06
0.00625562
1.24781e-06
0.00625533
1.19352e-06
0.00625504
1.14208e-06
0.00625477
1.09336e-06
0.00625451
1.04725e-06
0.00625426
1.00364e-06
0.00625402
9.62424e-07
0.0062538
9.23509e-07
0.00625358
8.86801e-07
0.00625336
8.5221e-07
0.00625316
8.19664e-07
0.00625297
7.89058e-07
0.00625278
7.60395e-07
0.0062526
7.33391e-07
0.00625242
7.08607e-07
0.00625225
6.84173e-07
0.00625208
6.65303e-07
6.36596e-07
0.00625049
-2.44046e-06
0.00625194
-7.31845e-06
0.00625437
-1.21976e-05
0.00625777
-1.70823e-05
0.00626215
-2.19765e-05
0.0062675
-2.68837e-05
0.00627384
-3.18071e-05
0.00628116
-3.67499e-05
0.00628947
-4.17147e-05
0.00629878
-4.67038e-05
0.00630908
-5.17192e-05
0.0063204
-5.67625e-05
0.00633273
-6.18347e-05
0.00634608
-6.69365e-05
0.00636045
-7.2068e-05
0.00637586
-7.72288e-05
0.00639232
-8.24178e-05
0.00640981
-8.76336e-05
0.00642836
-9.28736e-05
0.00644797
-9.81349e-05
0.00646864
-0.000103414
0.00649037
-0.000108705
0.00651317
-0.000114004
0.00653705
-0.000119303
0.00656199
-0.000124595
0.006588
-0.000129872
0.00661507
-0.000135124
0.0066432
-0.000140341
0.00667239
-0.000145511
0.00670261
-0.000150622
0.00673386
-0.00015566
0.00676611
-0.00016061
0.00679936
-0.000165457
0.00683358
-0.000170184
0.00686873
-0.000174775
0.0069048
-0.000179211
0.00694175
-0.000183474
0.00697953
-0.000187544
0.00701811
-0.000191404
0.00705744
-0.000195032
0.00709747
-0.000198411
0.00713815
-0.000201519
0.00717942
-0.00020434
0.00722122
-0.000206854
0.00726348
-0.000209045
0.00730613
-0.000210896
0.0073491
-0.000212394
0.00739232
-0.000213526
0.00743571
-0.000214285
0.00747919
-0.000214664
0.00752269
-0.000214667
0.00756612
-0.000214301
0.00760942
-0.000213582
0.00765252
-0.000212537
0.00769536
-0.000211196
0.00773788
-0.000209601
0.00778003
-0.000207794
0.00782178
-0.000205819
0.0078631
-0.000203716
0.00790396
-0.000201516
0.00794435
-0.000199238
0.00798424
-0.000196883
0.00802362
-0.000194436
0.00806245
-0.000191863
0.0081007
-0.000189109
0.00813831
-0.000186108
0.00817522
-0.000182783
0.00821134
-0.000179049
0.00824659
-0.000174823
0.00828083
-0.000170029
0.00831396
-0.000164597
0.00834582
-0.000158475
0.00837629
-0.000151627
0.0084052
-0.000144036
0.00843241
-0.000135704
0.00845779
-0.00012665
0.00848119
-0.000116911
0.00850248
-0.000106538
0.00852156
-9.55916e-05
0.00853833
-8.41425e-05
0.00855269
-7.22662e-05
0.00856457
-6.00407e-05
0.00857393
-4.75448e-05
0.00858073
-3.48557e-05
0.00858493
-2.20476e-05
0.00858653
-9.19075e-06
0.00858553
3.64813e-06
0.00858195
1.64087e-05
0.00857581
2.90346e-05
0.00856716
4.14742e-05
0.00855603
5.36803e-05
0.00854248
6.56097e-05
0.00852658
7.72232e-05
0.0085084
8.84846e-05
0.00848802
9.93613e-05
0.00846552
0.000109823
0.00844098
0.000119843
0.00841452
0.000129395
0.00838622
0.000138459
0.00835619
0.000147015
0.00832454
0.000155046
0.00829138
0.000162537
0.00825682
0.000169477
0.00822098
0.000175858
0.00818397
0.000181674
0.00814591
0.000186921
0.00810692
0.0001916
0.00806711
0.000195713
0.0080266
0.000199264
0.00798551
0.000202263
0.00794394
0.00020472
0.007902
0.000206648
0.00785979
0.00020806
0.00781743
0.000208976
0.007775
0.000209413
0.0077326
0.000209391
0.00769032
0.000208934
0.00764825
0.000208062
0.00760645
0.000206801
0.00756501
0.000205174
0.00752399
0.000203207
0.00748346
0.000200924
0.00744347
0.000198351
0.00740408
0.000195513
0.00736533
0.000192434
0.00732727
0.000189138
0.00728993
0.00018565
0.00725335
0.000181992
0.00721756
0.000178186
0.00718258
0.000174253
0.00714843
0.000170214
0.00711513
0.000166089
0.00708269
0.000161894
0.00705111
0.000157648
0.00702041
0.000153367
0.00699059
0.000149064
0.00696164
0.000144756
0.00693357
0.000140453
0.00690637
0.000136168
0.00688003
0.000131911
0.00685454
0.000127693
0.0068299
0.000123521
0.00680609
0.000119405
0.0067831
0.00011535
0.00676092
0.000111364
0.00673952
0.00010745
0.00671889
0.000103615
0.00669902
9.98618e-05
0.00667988
9.61938e-05
0.00666147
9.26139e-05
0.00664375
8.91241e-05
0.00662672
8.57262e-05
0.00661035
8.24213e-05
0.00659462
7.92102e-05
0.00657951
7.60933e-05
0.00656501
7.30706e-05
0.00655109
7.01418e-05
0.00653774
6.73064e-05
0.00652494
6.45636e-05
0.00651266
6.19123e-05
0.0065009
5.93512e-05
0.00648963
5.68791e-05
0.00647883
5.44943e-05
0.00646849
5.21951e-05
0.00645859
4.99798e-05
0.00644912
4.78464e-05
0.00644005
4.57931e-05
0.00643138
4.38177e-05
0.00642309
4.19184e-05
0.00641515
4.00928e-05
0.00640757
3.83391e-05
0.00640032
3.66549e-05
0.00639339
3.50383e-05
0.00638677
3.3487e-05
0.00638044
3.1999e-05
0.0063744
3.05722e-05
0.00636863
2.92045e-05
0.00636311
2.78939e-05
0.00635785
2.66383e-05
0.00635282
2.54359e-05
0.00634803
2.42845e-05
0.00634345
2.31825e-05
0.00633908
2.21279e-05
0.00633491
2.11189e-05
0.00633093
2.01537e-05
0.00632713
1.92308e-05
0.00632351
1.83483e-05
0.00632005
1.75047e-05
0.00631675
1.66984e-05
0.00631361
1.5928e-05
0.00631061
1.51919e-05
0.00630775
1.44887e-05
0.00630502
1.38171e-05
0.00630242
1.31758e-05
0.00629994
1.25634e-05
0.00629758
1.19788e-05
0.00629533
1.14208e-05
0.00629318
1.08882e-05
0.00629113
1.03799e-05
0.00628918
9.89487e-06
0.00628732
9.43212e-06
0.00628554
8.99067e-06
0.00628385
8.56957e-06
0.00628224
8.16794e-06
0.00628071
7.7849e-06
0.00627924
7.41964e-06
0.00627785
7.07136e-06
0.00627652
6.73931e-06
0.00627525
6.42275e-06
0.00627404
6.12099e-06
0.00627289
5.83338e-06
0.0062718
5.55925e-06
0.00627075
5.29802e-06
0.00626976
5.04909e-06
0.00626881
4.81191e-06
0.0062679
4.58593e-06
0.00626704
4.37067e-06
0.00626622
4.16561e-06
0.00626544
3.97031e-06
0.00626469
3.78431e-06
0.00626398
3.60719e-06
0.0062633
3.43854e-06
0.00626266
3.27798e-06
0.00626204
3.12514e-06
0.00626145
2.97967e-06
0.00626089
2.84123e-06
0.00626036
2.70949e-06
0.00625985
2.58417e-06
0.00625936
2.46495e-06
0.0062589
2.35158e-06
0.00625846
2.24377e-06
0.00625804
2.14129e-06
0.00625763
2.04389e-06
0.00625725
1.95134e-06
0.00625688