/*--------------------------------*- C++ -*----------------------------------*\
| =========                 |                                                 |
| \\      /  F ield         | OpenFOAM: The Open Source CFD Toolbox           |
|  \\    /   O peration     | Version:  2306                                  |
|   \\  /    A nd           | Website:  www.openfoam.com                      |
|    \\/     M anipulation  |                                                 |
\*---------------------------------------------------------------------------*/
FoamFile
{
    version     2.0;
    format      ascii;
    arch        "LSB;label=32;scalar=64";
    class       volScalarField;
    location    "2";
    object      T;
}
// * * * * * * * * * * * * * * * * * * * * * * * * * * * * * * * * * * * * * //

dimensions      [0 0 0 1 0 0 0];

internalField   nonuniform List<scalar> 
32768
(
300
299.999
299.999
299.999
299.998
299.997
299.996
299.994
299.991
299.987
299.983
299.976
299.968
299.957
299.943
299.924
299.901
299.871
299.834
299.788
299.73
299.659
299.572
299.465
299.336
299.18
298.993
298.771
298.507
298.196
297.831
297.406
296.911
296.34
295.683
294.931
294.075
293.105
292.01
290.779
289.403
287.871
286.172
284.296
282.233
279.974
277.511
274.835
271.939
268.818
265.466
261.881
258.061
254.004
249.713
245.189
240.437
235.463
230.274
224.881
219.293
213.523
207.585
201.493
195.262
188.91
182.454
175.912
169.302
162.642
155.952
149.249
142.554
135.884
129.257
122.692
116.206
109.815
103.536
97.3853
91.3765
85.524
79.8407
74.3386
69.0282
63.9192
59.0198
54.337
49.8761
45.6413
41.6354
37.8594
34.3131
30.9952
27.9025
25.0311
22.3756
19.9295
17.6857
15.6358
13.7711
12.082
10.5586
9.19074
7.96798
6.87985
5.91593
5.06596
4.31995
3.66825
3.10161
2.61128
2.18899
1.82705
1.51833
1.25627
1.0349
0.848802
0.693116
0.563503
0.456119
0.367581
0.294934
0.235613
0.187404
0.148413
0.117027
0.091882
0.0718312
0.0559171
0.0433447
0.0334579
0.0257184
0.0196873
0.0150085
0.0113949
0.00861635
0.00648911
0.00486757
0.0036368
0.00270658
0.00200647
0.00148173
0.00109005
0.00079887
0.00058328
0.00042429
0.000307502
0.000222048
0.000159763
0.000114538
8.18238e-05
5.82482e-05
4.13211e-05
2.9212e-05
2.0581e-05
1.4451e-05
1.01127e-05
7.05334e-06
4.90328e-06
3.39749e-06
2.3465e-06
1.61543e-06
1.10859e-06
7.58365e-07
5.17161e-07
3.5158e-07
2.38277e-07
1.60995e-07
1.08449e-07
7.28337e-08
4.87687e-08
3.25584e-08
2.16724e-08
1.43841e-08
9.51924e-09
6.28162e-09
4.13334e-09
2.71206e-09
1.7745e-09
1.15781e-09
7.53343e-10
4.88822e-10
3.16315e-10
2.0413e-10
1.31377e-10
8.43272e-11
5.39826e-11
3.44653e-11
2.19456e-11
1.39352e-11
8.82157e-12
5.56169e-12
3.48056e-12
2.1384e-12
1.24098e-12
5.75349e-13
-4.40352e-14
-8.3424e-13
-2.12965e-12
-4.53142e-12
-9.18899e-12
-1.83449e-11
-3.63984e-11
-7.19835e-11
-1.42029e-10
-2.7968e-10
-5.49731e-10
-1.07865e-09
-2.11293e-09
-4.13228e-09
-8.06903e-09
-1.57328e-08
-3.06317e-08
-5.95578e-08
-1.15647e-07
-2.24275e-07
-4.34414e-07
-8.40472e-07
-1.62428e-06
-3.13573e-06
-6.04751e-06
-1.16518e-05
-2.2429e-05
-4.31362e-05
-8.2891e-05
-0.000159156
-0.000305354
-0.000585416
-0.00112155
-0.00214726
-0.00410837
-0.00785576
-0.0150124
-0.0286728
-0.0547337
-0.104428
-0.199141
-0.379578
-0.723175
-1.37719
-2.62159
-4.98837
-9.48819
-18.0404
-34.2887
-65.1488
-123.741
-234.954
-445.98
-846.286
-1605.43
-3044.69
-5772.64
-10941.9
-20734.6
300
299.999
299.999
299.999
299.998
299.997
299.996
299.994
299.991
299.987
299.983
299.976
299.968
299.957
299.943
299.924
299.901
299.871
299.834
299.788
299.73
299.659
299.571
299.465
299.336
299.18
298.993
298.771
298.507
298.196
297.831
297.405
296.911
296.339
295.682
294.93
294.074
293.104
292.008
290.778
289.402
287.869
286.17
284.294
282.232
279.973
277.509
274.833
271.938
268.817
265.466
261.882
258.062
254.007
249.716
245.193
240.443
235.47
230.283
224.891
219.305
213.537
207.601
201.51
195.282
188.932
182.477
175.937
169.328
162.67
155.982
149.281
142.587
135.918
129.292
122.728
116.243
109.852
103.574
97.4231
91.4143
85.5616
79.878
74.3752
69.0641
63.9543
59.0538
54.3698
49.9076
45.6715
41.664
37.8864
34.3386
31.019
27.9247
25.0517
22.3945
19.9468
17.7014
15.6501
13.7839
12.0934
10.5688
9.19973
7.97588
6.88674
5.9219
5.07111
4.32436
3.67201
3.10479
2.61395
2.19123
1.82891
1.51986
1.25753
1.03592
0.849631
0.693783
0.564036
0.456542
0.367916
0.295197
0.235818
0.187563
0.148535
0.117121
0.0919532
0.071885
0.0559575
0.0433749
0.0334803
0.025735
0.0196994
0.0150174
0.0114013
0.00862095
0.0064924
0.0048699
0.00363845
0.00270774
0.00200727
0.00148228
0.00109043
0.000799128
0.000583454
0.000424406
0.000307579
0.000222099
0.000159796
0.000114559
8.18369e-05
5.82563e-05
4.1326e-05
2.92149e-05
2.05826e-05
1.44518e-05
1.01132e-05
7.0535e-06
4.90331e-06
3.39745e-06
2.34644e-06
1.61536e-06
1.10852e-06
7.5831e-07
5.17116e-07
3.51544e-07
2.3825e-07
1.60975e-07
1.08434e-07
7.28225e-08
4.87606e-08
3.25526e-08
2.16683e-08
1.43813e-08
9.51725e-09
6.28024e-09
4.13239e-09
2.71141e-09
1.77406e-09
1.15751e-09
7.53142e-10
4.88688e-10
3.16226e-10
2.04071e-10
1.31338e-10
8.43014e-11
5.39657e-11
3.44543e-11
2.19384e-11
1.39305e-11
8.81856e-12
5.55975e-12
3.47931e-12
2.13759e-12
1.24045e-12
5.74989e-13
-4.43127e-14
-8.34509e-13
-2.13e-12
-4.53197e-12
-9.18996e-12
-1.83467e-11
-3.64018e-11
-7.19897e-11
-1.42041e-10
-2.79702e-10
-5.49771e-10
-1.07872e-09
-2.11306e-09
-4.13253e-09
-8.0695e-09
-1.57337e-08
-3.06332e-08
-5.95607e-08
-1.15652e-07
-2.24285e-07
-4.34431e-07
-8.40502e-07
-1.62434e-06
-3.13583e-06
-6.04769e-06
-1.16522e-05
-2.24296e-05
-4.31372e-05
-8.28928e-05
-0.000159159
-0.000305359
-0.000585426
-0.00112157
-0.00214729
-0.00410842
-0.00785584
-0.0150126
-0.028673
-0.0547341
-0.104428
-0.199142
-0.37958
-0.723177
-1.3772
-2.62159
-4.98837
-9.48818
-18.0404
-34.2887
-65.1486
-123.741
-234.953
-445.978
-846.281
-1605.42
-3044.67
-5772.61
-10941.8
-20734.5
300
299.999
299.999
299.999
299.998
299.997
299.996
299.994
299.991
299.987
299.982
299.976
299.968
299.957
299.943
299.924
299.901
299.871
299.834
299.788
299.73
299.659
299.571
299.465
299.335
299.18
298.993
298.77
298.506
298.195
297.83
297.404
296.909
296.338
295.681
294.929
294.072
293.101
292.006
290.775
289.399
287.867
286.167
284.291
282.229
279.97
277.507
274.832
271.937
268.818
265.468
261.885
258.067
254.013
249.724
245.204
240.456
235.486
230.302
224.914
219.331
213.567
207.634
201.547
195.323
188.976
182.526
175.989
169.384
162.73
156.044
149.346
142.655
135.989
129.365
122.803
116.318
109.929
103.652
97.501
91.4922
85.639
79.9545
74.4506
69.138
64.0263
59.1237
54.4372
49.9724
45.7334
41.7229
37.9421
34.391
31.0681
27.9704
25.0939
22.4334
19.9825
17.7339
15.6794
13.8103
12.1171
10.5898
9.21833
7.99222
6.90102
5.9343
5.08181
4.33354
3.67983
3.11142
2.61953
2.1959
1.83279
1.52307
1.26017
1.03808
0.851379
0.695193
0.565166
0.457443
0.368629
0.295759
0.236257
0.187905
0.1488
0.117324
0.0921086
0.0720031
0.0560468
0.0434419
0.0335304
0.0257722
0.0197269
0.0150375
0.0114161
0.00863166
0.00650014
0.00487547
0.00364242
0.00271056
0.00200927
0.00148369
0.00109141
0.000799811
0.000583925
0.00042473
0.0003078
0.000222249
0.000159897
0.000114627
8.18825e-05
5.82866e-05
4.1346e-05
2.9228e-05
2.05911e-05
1.44573e-05
1.01167e-05
7.05571e-06
4.9047e-06
3.39831e-06
2.34696e-06
1.61568e-06
1.10871e-06
7.58419e-07
5.17178e-07
3.51578e-07
2.38267e-07
1.60983e-07
1.08437e-07
7.28232e-08
4.87601e-08
3.25517e-08
2.16673e-08
1.43804e-08
9.51648e-09
6.27963e-09
4.13193e-09
2.71107e-09
1.7738e-09
1.15733e-09
7.53015e-10
4.886e-10
3.16165e-10
2.04029e-10
1.3131e-10
8.42822e-11
5.39529e-11
3.44457e-11
2.19328e-11
1.39268e-11
8.81612e-12
5.55816e-12
3.47827e-12
2.1369e-12
1.23998e-12
5.74627e-13
-4.46549e-14
-8.34939e-13
-2.13067e-12
-4.53316e-12
-9.19215e-12
-1.83508e-11
-3.64094e-11
-7.20041e-11
-1.42068e-10
-2.79752e-10
-5.49864e-10
-1.0789e-09
-2.11339e-09
-4.13312e-09
-8.07059e-09
-1.57357e-08
-3.0637e-08
-5.95675e-08
-1.15665e-07
-2.24308e-07
-4.34473e-07
-8.40579e-07
-1.62447e-06
-3.13608e-06
-6.04815e-06
-1.1653e-05
-2.24311e-05
-4.31399e-05
-8.28975e-05
-0.000159167
-0.000305374
-0.000585452
-0.00112162
-0.00214737
-0.00410857
-0.0078561
-0.015013
-0.0286738
-0.0547354
-0.104431
-0.199146
-0.379586
-0.723188
-1.37721
-2.62162
-4.98841
-9.48825
-18.0405
-34.2888
-65.1487
-123.741
-234.953
-445.978
-846.279
-1605.41
-3044.66
-5772.58
-10941.8
-20734.4
300
299.999
299.999
299.999
299.998
299.997
299.996
299.994
299.991
299.987
299.982
299.976
299.968
299.957
299.942
299.924
299.901
299.871
299.834
299.788
299.73
299.658
299.571
299.464
299.335
299.179
298.992
298.769
298.505
298.194
297.829
297.402
296.907
296.336
295.678
294.926
294.069
293.098
292.002
290.772
289.395
287.862
286.163
284.287
282.225
279.967
277.505
274.83
271.937
268.818
265.47
261.889
258.074
254.023
249.737
245.22
240.476
235.511
230.332
224.948
219.37
213.611
207.684
201.603
195.384
189.044
182.599
176.068
169.468
162.819
156.138
149.445
142.758
136.095
129.474
122.915
116.433
110.045
103.768
97.6183
91.6094
85.7556
80.0698
74.5642
69.2493
64.1348
59.229
54.539
50.0702
45.8268
41.8118
38.0262
34.4702
31.1422
28.0394
25.1578
22.4922
20.0364
17.7829
15.7239
13.8503
12.1529
10.6217
9.24651
8.017
6.92267
5.9531
5.09804
4.34747
3.69171
3.12149
2.62801
2.203
1.8387
1.52796
1.26418
1.04136
0.854042
0.697342
0.56689
0.458818
0.369719
0.296617
0.236929
0.188428
0.149205
0.117636
0.0923472
0.0721847
0.0561841
0.0435453
0.0336077
0.0258297
0.0197695
0.0150689
0.011439
0.00864836
0.00651223
0.00488418
0.00364866
0.00271501
0.00201243
0.00148591
0.00109297
0.000800902
0.000584683
0.000425254
0.00030816
0.000222495
0.000160065
0.00011474
8.19588e-05
5.83377e-05
4.138e-05
2.92505e-05
2.06059e-05
1.4467e-05
1.0123e-05
7.05979e-06
4.90732e-06
3.39998e-06
2.34802e-06
1.61634e-06
1.10912e-06
7.58675e-07
5.17334e-07
3.51672e-07
2.38323e-07
1.61016e-07
1.08456e-07
7.28338e-08
4.87659e-08
3.25546e-08
2.16687e-08
1.43809e-08
9.51665e-09
6.2796e-09
4.13182e-09
2.71094e-09
1.77369e-09
1.15723e-09
7.52937e-10
4.88541e-10
3.16121e-10
2.03998e-10
1.31288e-10
8.42668e-11
5.39422e-11
3.44385e-11
2.19279e-11
1.39235e-11
8.81395e-12
5.55671e-12
3.47731e-12
2.13625e-12
1.23951e-12
5.74229e-13
-4.50881e-14
-8.35554e-13
-2.13171e-12
-4.53504e-12
-9.19563e-12
-1.83574e-11
-3.64217e-11
-7.20271e-11
-1.42111e-10
-2.79832e-10
-5.50014e-10
-1.07918e-09
-2.1139e-09
-4.13408e-09
-8.07237e-09
-1.5739e-08
-3.0643e-08
-5.95786e-08
-1.15685e-07
-2.24345e-07
-4.34541e-07
-8.40703e-07
-1.6247e-06
-3.1365e-06
-6.0489e-06
-1.16543e-05
-2.24335e-05
-4.31443e-05
-8.29055e-05
-0.000159182
-0.0003054
-0.000585498
-0.0011217
-0.00214752
-0.00410883
-0.00785656
-0.0150138
-0.0286752
-0.0547379
-0.104435
-0.199154
-0.379599
-0.723209
-1.37725
-2.62168
-4.98852
-9.48842
-18.0407
-34.2892
-65.1494
-123.742
-234.954
-445.979
-846.28
-1605.41
-3044.65
-5772.57
-10941.7
-20734.3
300
299.999
299.999
299.999
299.998
299.997
299.996
299.994
299.991
299.987
299.982
299.976
299.968
299.957
299.942
299.924
299.901
299.871
299.834
299.787
299.73
299.658
299.571
299.464
299.334
299.178
298.991
298.768
298.504
298.192
297.827
297.4
296.905
296.333
295.675
294.922
294.065
293.094
291.998
290.766
289.39
287.857
286.158
284.282
282.22
279.962
277.501
274.827
271.935
268.819
265.473
261.895
258.082
254.035
249.754
245.242
240.503
235.543
230.37
224.993
219.422
213.67
207.75
201.677
195.465
189.133
182.695
176.171
169.579
162.936
156.262
149.575
142.893
136.235
129.619
123.063
116.584
110.199
103.923
97.7739
91.7649
85.9103
80.2231
74.7151
69.3973
64.2792
59.3692
54.6744
50.2004
45.9514
41.9302
38.1384
34.5758
31.2411
28.1315
25.2432
22.5709
20.1084
17.8486
15.7833
13.9038
12.2008
10.6643
9.28423
8.05017
6.95167
5.9783
5.1198
4.36614
3.70763
3.13499
2.63939
2.21252
1.84663
1.53452
1.26957
1.04576
0.857617
0.700228
0.569206
0.460664
0.371182
0.29777
0.237833
0.189132
0.14975
0.118055
0.0926682
0.072429
0.056369
0.0436844
0.0337119
0.0259072
0.0198269
0.0151112
0.01147
0.00867092
0.00652858
0.00489597
0.00365712
0.00272105
0.00201671
0.00148894
0.0010951
0.000802389
0.000585718
0.00042597
0.000308654
0.000222834
0.000160296
0.000114897
8.20645e-05
5.84087e-05
4.14274e-05
2.9282e-05
2.06268e-05
1.44807e-05
1.01319e-05
7.06563e-06
4.9111e-06
3.40241e-06
2.34957e-06
1.61733e-06
1.10974e-06
7.59063e-07
5.17576e-07
3.51821e-07
2.38414e-07
1.61071e-07
1.08489e-07
7.2853e-08
4.8777e-08
3.2561e-08
2.16723e-08
1.43828e-08
9.51761e-09
6.28006e-09
4.13201e-09
2.71099e-09
1.77368e-09
1.1572e-09
7.52898e-10
4.88504e-10
3.16091e-10
2.03974e-10
1.3127e-10
8.42541e-11
5.39331e-11
3.44321e-11
2.19235e-11
1.39205e-11
8.8119e-12
5.55533e-12
3.47638e-12
2.1356e-12
1.23902e-12
5.73783e-13
-4.56204e-14
-8.3636e-13
-2.1331e-12
-4.5376e-12
-9.20043e-12
-1.83664e-11
-3.64386e-11
-7.20589e-11
-1.4217e-10
-2.79944e-10
-5.50221e-10
-1.07956e-09
-2.11462e-09
-4.13542e-09
-8.07483e-09
-1.57435e-08
-3.06514e-08
-5.9594e-08
-1.15713e-07
-2.24397e-07
-4.34636e-07
-8.40877e-07
-1.62502e-06
-3.13707e-06
-6.04995e-06
-1.16562e-05
-2.2437e-05
-4.31505e-05
-8.29168e-05
-0.000159202
-0.000305437
-0.000585564
-0.00112182
-0.00214773
-0.0041092
-0.00785721
-0.015015
-0.0286773
-0.0547415
-0.104441
-0.199165
-0.379618
-0.723242
-1.37731
-2.62178
-4.98868
-9.48869
-18.0412
-34.2899
-65.1505
-123.744
-234.957
-445.983
-846.286
-1605.42
-3044.66
-5772.56
-10941.7
-20734.2
300
299.999
299.999
299.999
299.998
299.997
299.995
299.994
299.991
299.987
299.982
299.976
299.968
299.957
299.942
299.924
299.901
299.871
299.834
299.787
299.729
299.658
299.57
299.463
299.334
299.177
298.99
298.767
298.502
298.191
297.825
297.398
296.902
296.329
295.671
294.918
294.06
293.088
291.991
290.76
289.383
287.85
286.15
284.275
282.213
279.956
277.495
274.823
271.933
268.818
265.475
261.901
258.092
254.049
249.773
245.266
240.534
235.581
230.415
225.046
219.484
213.741
207.83
201.766
195.564
189.241
182.813
176.298
169.715
163.081
156.415
149.735
143.06
136.408
129.798
123.246
116.77
110.388
104.115
97.9664
91.9575
86.102
80.413
74.9023
69.581
64.4585
59.5435
54.8428
50.3623
46.1064
42.0778
38.2781
34.7074
31.3644
28.2465
25.3497
22.6691
20.1984
17.9306
15.8576
13.9708
12.2607
10.7177
9.33146
8.09171
6.98798
6.00986
5.14705
4.38953
3.72759
3.15191
2.65364
2.22446
1.85656
1.54273
1.27633
1.05128
0.862098
0.703844
0.572107
0.462977
0.373016
0.299215
0.238964
0.190013
0.150432
0.11858
0.0930702
0.0727349
0.0566006
0.0438587
0.0338423
0.0260043
0.0198988
0.0151641
0.0115088
0.00869917
0.00654906
0.00491073
0.00366771
0.0027286
0.00202208
0.00149273
0.00109776
0.000804254
0.000587016
0.000426869
0.000309273
0.000223259
0.000160586
0.000115094
8.21976e-05
5.84981e-05
4.14873e-05
2.93219e-05
2.06531e-05
1.44981e-05
1.01433e-05
7.07306e-06
4.91591e-06
3.40551e-06
2.35156e-06
1.61859e-06
1.11055e-06
7.59567e-07
5.1789e-07
3.52016e-07
2.38534e-07
1.61144e-07
1.08533e-07
7.28793e-08
4.87925e-08
3.257e-08
2.16774e-08
1.43857e-08
9.51915e-09
6.28086e-09
4.13239e-09
2.71116e-09
1.77373e-09
1.1572e-09
7.5288e-10
4.8848e-10
3.16067e-10
2.03954e-10
1.31254e-10
8.4242e-11
5.39243e-11
3.44258e-11
2.1919e-11
1.39174e-11
8.8098e-12
5.5539e-12
3.4754e-12
2.13491e-12
1.23848e-12
5.73269e-13
-4.62632e-14
-8.37365e-13
-2.13487e-12
-4.54086e-12
-9.20653e-12
-1.83778e-11
-3.64602e-11
-7.20993e-11
-1.42246e-10
-2.80085e-10
-5.50486e-10
-1.08006e-09
-2.11554e-09
-4.13711e-09
-8.07798e-09
-1.57494e-08
-3.06621e-08
-5.96138e-08
-1.1575e-07
-2.24464e-07
-4.34759e-07
-8.41101e-07
-1.62543e-06
-3.13782e-06
-6.0513e-06
-1.16587e-05
-2.24414e-05
-4.31586e-05
-8.29313e-05
-0.000159228
-0.000305484
-0.000585648
-0.00112197
-0.002148
-0.00410968
-0.00785807
-0.0150165
-0.02868
-0.0547463
-0.10445
-0.199179
-0.379644
-0.723287
-1.37738
-2.62191
-4.9889
-9.48907
-18.0418
-34.291
-65.1522
-123.747
-234.961
-445.99
-846.295
-1605.43
-3044.67
-5772.57
-10941.7
-20734.1
300
299.999
299.999
299.999
299.998
299.997
299.995
299.994
299.991
299.987
299.982
299.976
299.968
299.957
299.942
299.924
299.901
299.871
299.834
299.787
299.729
299.657
299.57
299.463
299.333
299.176
298.989
298.765
298.501
298.188
297.822
297.394
296.898
296.325
295.666
294.912
294.054
293.081
291.984
290.751
289.374
287.84
286.141
284.265
282.204
279.947
277.488
274.817
271.928
268.816
265.477
261.905
258.101
254.063
249.793
245.293
240.568
235.623
230.467
225.107
219.555
213.822
207.922
201.869
195.678
189.366
182.95
176.446
169.873
163.249
156.593
149.922
143.255
136.611
130.007
123.461
116.99
110.612
104.341
98.1939
92.1852
86.3289
80.638
75.1243
69.799
64.6715
59.7505
55.0431
50.5552
46.291
42.2537
38.4449
34.8646
31.5118
28.3839
25.4772
22.7866
20.3062
18.0289
15.9467
14.051
12.3326
10.7817
9.38813
8.14157
7.03158
6.04774
5.17977
4.41762
3.75155
3.17222
2.67076
2.23879
1.86849
1.5526
1.28443
1.0579
0.867476
0.708183
0.575587
0.465752
0.375214
0.300947
0.240321
0.191069
0.151249
0.119209
0.0935514
0.073101
0.0568775
0.044067
0.0339982
0.0261203
0.0199846
0.0152273
0.011555
0.00873286
0.00657347
0.00492833
0.00368033
0.00273761
0.00202847
0.00149725
0.00110094
0.000806472
0.000588559
0.000427938
0.000310009
0.000223763
0.00016093
0.000115327
8.23554e-05
5.86042e-05
4.15582e-05
2.93691e-05
2.06844e-05
1.45187e-05
1.01568e-05
7.08184e-06
4.9216e-06
3.40918e-06
2.35391e-06
1.62009e-06
1.11149e-06
7.60162e-07
5.18262e-07
3.52246e-07
2.38675e-07
1.6123e-07
1.08585e-07
7.29103e-08
4.88107e-08
3.25805e-08
2.16834e-08
1.4389e-08
9.52097e-09
6.2818e-09
4.13286e-09
2.71136e-09
1.7738e-09
1.15721e-09
7.5286e-10
4.88452e-10
3.1604e-10
2.03931e-10
1.31236e-10
8.42281e-11
5.39141e-11
3.44185e-11
2.19139e-11
1.39139e-11
8.80739e-12
5.55226e-12
3.47427e-12
2.13411e-12
1.23785e-12
5.72663e-13
-4.70308e-14
-8.38575e-13
-2.13701e-12
-4.5448e-12
-9.21392e-12
-1.83917e-11
-3.64863e-11
-7.21484e-11
-1.42338e-10
-2.80257e-10
-5.50807e-10
-1.08065e-09
-2.11665e-09
-4.13918e-09
-8.0818e-09
-1.57564e-08
-3.06752e-08
-5.96378e-08
-1.15794e-07
-2.24545e-07
-4.34907e-07
-8.41372e-07
-1.62592e-06
-3.13872e-06
-6.05294e-06
-1.16617e-05
-2.24468e-05
-4.31684e-05
-8.29491e-05
-0.00015926
-0.000305541
-0.000585752
-0.00112215
-0.00214833
-0.00411027
-0.00785913
-0.0150184
-0.0286833
-0.0547522
-0.10446
-0.199197
-0.379675
-0.723342
-1.37748
-2.62207
-4.98918
-9.48955
-18.0426
-34.2923
-65.1544
-123.75
-234.967
-445.998
-846.307
-1605.45
-3044.69
-5772.58
-10941.6
-20734
300
299.999
299.999
299.999
299.998
299.997
299.995
299.994
299.991
299.987
299.982
299.976
299.968
299.957
299.942
299.924
299.9
299.871
299.833
299.787
299.729
299.657
299.569
299.462
299.332
299.175
298.987
298.763
298.498
298.185
297.818
297.39
296.893
296.319
295.66
294.905
294.046
293.072
291.974
290.741
289.363
287.829
286.129
284.253
282.191
279.935
277.477
274.807
271.921
268.812
265.475
261.908
258.109
254.077
249.813
245.321
240.604
235.668
230.522
225.173
219.632
213.911
208.023
201.983
195.805
189.506
183.102
176.611
170.051
163.439
156.794
150.134
143.477
136.841
130.245
123.706
117.241
110.866
104.599
98.4539
92.4459
86.5889
80.896
75.3793
70.0495
64.9166
59.9891
55.2741
50.7777
46.5043
42.4571
38.6378
35.0466
31.6826
28.5433
25.6251
22.9231
20.4314
18.1431
16.0503
14.1444
12.4163
10.8563
9.45414
8.19966
7.08238
6.0919
5.21792
4.45037
3.77949
3.19591
2.69072
2.2555
1.8824
1.5641
1.29388
1.06562
0.873739
0.713236
0.579638
0.46898
0.377772
0.302961
0.241897
0.192295
0.152198
0.119939
0.0941095
0.0735253
0.0571984
0.0443083
0.0341785
0.0262544
0.0200838
0.0153002
0.0116084
0.00877173
0.00660161
0.0049486
0.00369485
0.00274796
0.00203581
0.00150243
0.00110457
0.000809013
0.000590326
0.000429159
0.00031085
0.000224339
0.000161322
0.000115593
8.25348e-05
5.87246e-05
4.16386e-05
2.94225e-05
2.07197e-05
1.45419e-05
1.0172e-05
7.09171e-06
4.92798e-06
3.41329e-06
2.35653e-06
1.62175e-06
1.11254e-06
7.6082e-07
5.18671e-07
3.52498e-07
2.3883e-07
1.61323e-07
1.08641e-07
7.29433e-08
4.883e-08
3.25916e-08
2.16896e-08
1.43924e-08
9.52273e-09
6.28267e-09
4.13324e-09
2.7115e-09
1.77382e-09
1.15718e-09
7.52813e-10
4.88404e-10
3.15999e-10
2.03898e-10
1.31211e-10
8.42095e-11
5.39008e-11
3.44091e-11
2.19074e-11
1.39095e-11
8.80436e-12
5.55022e-12
3.47288e-12
2.13313e-12
1.23709e-12
5.71938e-13
-4.79403e-14
-8.4e-13
-2.13952e-12
-4.54943e-12
-9.2226e-12
-1.8408e-11
-3.6517e-11
-7.2206e-11
-1.42446e-10
-2.80459e-10
-5.51184e-10
-1.08136e-09
-2.11796e-09
-4.1416e-09
-8.08629e-09
-1.57647e-08
-3.06905e-08
-5.9666e-08
-1.15846e-07
-2.2464e-07
-4.35082e-07
-8.41692e-07
-1.62651e-06
-3.13979e-06
-6.05488e-06
-1.16652e-05
-2.24532e-05
-4.318e-05
-8.297e-05
-0.000159298
-0.000305609
-0.000585874
-0.00112237
-0.00214872
-0.00411098
-0.00786038
-0.0150206
-0.0286872
-0.0547591
-0.104472
-0.199219
-0.379713
-0.723408
-1.37759
-2.62227
-4.98952
-9.49012
-18.0436
-34.2939
-65.1571
-123.754
-234.974
-446.009
-846.323
-1605.47
-3044.71
-5772.61
-10941.6
-20733.9
300
299.999
299.999
299.999
299.998
299.997
299.995
299.994
299.991
299.987
299.982
299.976
299.968
299.956
299.942
299.924
299.9
299.871
299.833
299.786
299.728
299.656
299.568
299.461
299.331
299.174
298.985
298.761
298.495
298.182
297.814
297.386
296.888
296.313
295.652
294.896
294.036
293.061
291.962
290.728
289.349
287.814
286.113
284.237
282.175
279.92
277.462
274.794
271.909
268.803
265.47
261.907
258.113
254.087
249.831
245.346
240.639
235.713
230.577
225.24
219.712
214.005
208.131
202.105
195.941
189.657
183.268
176.791
170.245
163.646
157.014
150.366
143.72
137.095
130.508
123.977
117.519
111.15
104.886
98.7435
92.7367
86.8794
81.1848
75.6649
70.3307
65.1919
60.2573
55.5342
51.0285
46.745
42.6868
38.8559
35.2526
31.876
28.7239
25.7929
23.078
20.5737
18.2729
16.1681
14.2507
12.5116
10.9412
9.52937
8.26588
7.14032
6.14228
5.26145
4.48774
3.81137
3.22294
2.71349
2.27457
1.89825
1.57721
1.30465
1.07441
0.880874
0.71899
0.584249
0.472654
0.38068
0.305249
0.243687
0.193688
0.153275
0.120767
0.0947417
0.0740058
0.0575613
0.044581
0.0343823
0.0264058
0.0201957
0.0153824
0.0116685
0.00881542
0.00663321
0.00497133
0.00371112
0.00275955
0.00204402
0.00150821
0.00110863
0.000811842
0.000592289
0.000430515
0.000311782
0.000224976
0.000161755
0.000115886
8.27321e-05
5.88567e-05
4.17266e-05
2.94808e-05
2.07581e-05
1.45671e-05
1.01884e-05
7.10235e-06
4.93483e-06
3.41767e-06
2.35932e-06
1.62351e-06
1.11365e-06
7.61507e-07
5.19094e-07
3.52757e-07
2.38986e-07
1.61416e-07
1.08696e-07
7.29753e-08
4.88481e-08
3.26016e-08
2.1695e-08
1.43952e-08
9.52402e-09
6.2832e-09
4.13339e-09
2.71147e-09
1.77372e-09
1.15706e-09
7.52706e-10
4.88316e-10
3.1593e-10
2.03847e-10
1.31173e-10
8.41828e-11
5.38821e-11
3.43962e-11
2.18986e-11
1.39035e-11
8.80037e-12
5.54754e-12
3.47108e-12
2.13188e-12
1.23614e-12
5.71059e-13
-4.90118e-14
-8.4165e-13
-2.1424e-12
-4.55475e-12
-9.23254e-12
-1.84267e-11
-3.65522e-11
-7.2272e-11
-1.4257e-10
-2.80691e-10
-5.51616e-10
-1.08216e-09
-2.11945e-09
-4.14438e-09
-8.09143e-09
-1.57742e-08
-3.0708e-08
-5.96984e-08
-1.15905e-07
-2.24749e-07
-4.35282e-07
-8.42058e-07
-1.62718e-06
-3.14101e-06
-6.05711e-06
-1.16693e-05
-2.24606e-05
-4.31933e-05
-8.2994e-05
-0.000159342
-0.000305688
-0.000586015
-0.00112263
-0.00214918
-0.00411179
-0.00786183
-0.0150232
-0.0286918
-0.0547672
-0.104486
-0.199244
-0.379757
-0.723484
-1.37773
-2.6225
-4.98992
-9.4908
-18.0447
-34.2959
-65.1602
-123.76
-234.982
-446.021
-846.342
-1605.5
-3044.75
-5772.64
-10941.6
-20733.8
300
299.999
299.999
299.999
299.998
299.997
299.995
299.994
299.991
299.987
299.982
299.976
299.967
299.956
299.942
299.924
299.9
299.87
299.833
299.786
299.728
299.656
299.567
299.46
299.329
299.172
298.983
298.759
298.492
298.178
297.81
297.38
296.881
296.305
295.643
294.886
294.025
293.049
291.948
290.712
289.332
287.796
286.094
284.217
282.155
279.899
277.442
274.775
271.892
268.788
265.458
261.9
258.111
254.092
249.843
245.367
240.669
235.755
230.631
225.307
219.792
214.099
208.241
202.23
196.083
189.815
183.442
176.981
170.45
163.867
157.249
150.615
143.982
137.369
130.792
124.27
117.82
111.457
105.199
99.0594
93.0544
87.1973
81.5013
75.9785
70.6398
65.4951
60.5532
55.8214
51.3059
47.0115
42.9415
39.098
35.4815
32.0912
28.9251
25.9799
23.2509
20.7325
18.418
16.2999
14.3697
12.6183
11.0363
9.61367
8.34012
7.20528
6.19877
5.31026
4.52965
3.84713
3.25326
2.73903
2.29594
1.91603
1.5919
1.31672
1.08426
0.888863
0.725429
0.589407
0.476759
0.383929
0.307805
0.245685
0.19524
0.154474
0.121687
0.0954448
0.0745394
0.0579641
0.0448833
0.0346079
0.0265733
0.0203193
0.0154732
0.0117347
0.00886352
0.00666795
0.00499629
0.00372896
0.00277223
0.00205299
0.00151452
0.00111305
0.000814917
0.00059442
0.000431983
0.000312788
0.000225662
0.000162221
0.000116201
8.29429e-05
5.89975e-05
4.18201e-05
2.95425e-05
2.07986e-05
1.45935e-05
1.02055e-05
7.11339e-06
4.9419e-06
3.42216e-06
2.36216e-06
1.62529e-06
1.11475e-06
7.62183e-07
5.19505e-07
3.53004e-07
2.39132e-07
1.61502e-07
1.08744e-07
7.30024e-08
4.88627e-08
3.26091e-08
2.16985e-08
1.43966e-08
9.52438e-09
6.28307e-09
4.13308e-09
2.71112e-09
1.77341e-09
1.1568e-09
7.52503e-10
4.88164e-10
3.15819e-10
2.03767e-10
1.31117e-10
8.4144e-11
5.38555e-11
3.43782e-11
2.18864e-11
1.38954e-11
8.79499e-12
5.54399e-12
3.46872e-12
2.13026e-12
1.23494e-12
5.69987e-13
-5.02687e-14
-8.43539e-13
-2.14567e-12
-4.56073e-12
-9.24373e-12
-1.84478e-11
-3.65917e-11
-7.23463e-11
-1.42709e-10
-2.80951e-10
-5.52102e-10
-1.08307e-09
-2.12114e-09
-4.1475e-09
-8.09722e-09
-1.57849e-08
-3.07278e-08
-5.97348e-08
-1.15972e-07
-2.24872e-07
-4.35507e-07
-8.42471e-07
-1.62793e-06
-3.14238e-06
-6.05961e-06
-1.16738e-05
-2.24688e-05
-4.32083e-05
-8.30212e-05
-0.00015939
-0.000305776
-0.000586174
-0.00112291
-0.00214969
-0.0041127
-0.00786346
-0.0150261
-0.028697
-0.0547763
-0.104503
-0.199272
-0.379807
-0.723571
-1.37788
-2.62276
-4.99036
-9.49156
-18.046
-34.298
-65.1638
-123.765
-234.992
-446.036
-846.364
-1605.53
-3044.79
-5772.68
-10941.7
-20733.7
300
299.999
299.999
299.999
299.998
299.997
299.995
299.994
299.991
299.987
299.982
299.976
299.967
299.956
299.942
299.924
299.9
299.87
299.832
299.785
299.727
299.655
299.566
299.458
299.328
299.17
298.981
298.755
298.488
298.173
297.804
297.373
296.874
296.296
295.633
294.874
294.011
293.033
291.931
290.693
289.311
287.773
286.07
284.192
282.129
279.873
277.416
274.749
271.868
268.766
265.44
261.886
258.102
254.089
249.848
245.381
240.693
235.79
230.679
225.368
219.868
214.191
208.349
202.355
196.225
189.974
183.619
177.176
170.662
164.096
157.494
150.875
144.257
137.656
131.092
124.581
118.14
111.785
105.532
99.3974
93.395
87.539
81.8422
76.3168
70.9739
65.8234
60.8741
56.1335
51.6078
47.302
43.2196
39.3626
35.732
32.327
29.1459
26.1853
23.441
20.9073
18.5779
16.4452
14.5009
12.7361
11.1414
9.70684
8.42219
7.27713
6.26126
5.36427
4.57603
3.8867
3.2868
2.76728
2.31959
1.9357
1.60815
1.33006
1.09514
0.897682
0.732532
0.595094
0.481283
0.387506
0.310615
0.24788
0.196944
0.155789
0.122697
0.0962145
0.0751231
0.0584042
0.0452131
0.0348538
0.0267555
0.0204536
0.0155716
0.0118065
0.00891555
0.00670547
0.0050232
0.00374816
0.00278585
0.0020626
0.00152127
0.00111776
0.000818191
0.000596681
0.000433537
0.00031385
0.000226384
0.000162709
0.000116529
8.31623e-05
5.91433e-05
4.19164e-05
2.96057e-05
2.08399e-05
1.46203e-05
1.02228e-05
7.1244e-06
4.94888e-06
3.42655e-06
2.36489e-06
1.62698e-06
1.11578e-06
7.62804e-07
5.19874e-07
3.53219e-07
2.39255e-07
1.6157e-07
1.08781e-07
7.30205e-08
4.8871e-08
3.26121e-08
2.16989e-08
1.43958e-08
9.52328e-09
6.28195e-09
4.13209e-09
2.71032e-09
1.77279e-09
1.15634e-09
7.52164e-10
4.87921e-10
3.15648e-10
2.03648e-10
1.31036e-10
8.40885e-11
5.3818e-11
3.43531e-11
2.18698e-11
1.38844e-11
8.78777e-12
5.53925e-12
3.4656e-12
2.12816e-12
1.23341e-12
5.68678e-13
-5.17369e-14
-8.4568e-13
-2.14932e-12
-4.56739e-12
-9.25616e-12
-1.84711e-11
-3.66356e-11
-7.24287e-11
-1.42863e-10
-2.8124e-10
-5.52641e-10
-1.08407e-09
-2.123e-09
-4.15097e-09
-8.10364e-09
-1.57968e-08
-3.07497e-08
-5.97752e-08
-1.16047e-07
-2.25009e-07
-4.35758e-07
-8.42929e-07
-1.62877e-06
-3.14391e-06
-6.06239e-06
-1.16789e-05
-2.2478e-05
-4.32249e-05
-8.30513e-05
-0.000159445
-0.000305874
-0.00058635
-0.00112323
-0.00215026
-0.00411372
-0.00786527
-0.0150293
-0.0287027
-0.0547865
-0.104521
-0.199304
-0.379862
-0.723668
-1.37805
-2.62305
-4.99086
-9.49242
-18.0475
-34.3005
-65.1679
-123.772
-235.002
-446.053
-846.389
-1605.57
-3044.84
-5772.73
-10941.7
-20733.6
300
299.999
299.999
299.999
299.998
299.997
299.995
299.994
299.991
299.987
299.982
299.976
299.967
299.956
299.942
299.923
299.9
299.87
299.832
299.785
299.726
299.654
299.565
299.457
299.326
299.167
298.978
298.752
298.484
298.168
297.798
297.366
296.865
296.286
295.621
294.86
293.995
293.015
291.91
290.671
289.286
287.746
286.041
284.161
282.097
279.839
277.381
274.715
271.835
268.735
265.411
261.861
258.082
254.076
249.842
245.385
240.707
235.815
230.717
225.421
219.936
214.275
208.45
202.474
196.363
190.131
183.794
177.37
170.875
164.327
157.743
151.141
144.539
137.953
131.403
124.903
118.473
112.127
105.882
99.7528
93.7542
87.9
82.2033
76.6761
71.3295
66.1735
61.2171
56.4677
51.9317
47.6142
43.5189
39.648
36.0026
32.5821
29.385
26.4081
23.6474
21.0974
18.7519
16.6034
14.6439
12.8646
11.2561
9.8086
8.51189
7.35568
6.3296
5.42334
4.62677
3.92999
3.3235
2.79818
2.34544
1.95719
1.6259
1.34462
1.10702
0.907302
0.740276
0.601288
0.486207
0.391395
0.313669
0.250263
0.198792
0.157214
0.123788
0.0970461
0.0757528
0.0588783
0.045568
0.0351179
0.0269509
0.0205974
0.0156769
0.0118831
0.00897096
0.00674534
0.00505173
0.00376847
0.00280022
0.00207272
0.00152836
0.00112269
0.000821606
0.000599033
0.000435148
0.000314947
0.000227126
0.000163208
0.000116863
8.33844e-05
5.929e-05
4.20127e-05
2.96685e-05
2.08805e-05
1.46464e-05
1.02394e-05
7.1349e-06
4.95545e-06
3.43062e-06
2.36738e-06
1.62847e-06
1.11667e-06
7.6332e-07
5.20166e-07
3.53379e-07
2.39338e-07
1.6161e-07
1.08797e-07
7.3025e-08
4.88697e-08
3.26086e-08
2.16948e-08
1.43921e-08
9.5201e-09
6.27943e-09
4.13016e-09
2.70889e-09
1.77175e-09
1.1556e-09
7.51643e-10
4.87559e-10
3.15399e-10
2.03478e-10
1.30921e-10
8.40114e-11
5.37666e-11
3.43191e-11
2.18474e-11
1.38697e-11