/*--------------------------------*- C++ -*----------------------------------*\
| =========                 |                                                 |
| \\      /  F ield         | OpenFOAM: The Open Source CFD Toolbox           |
|  \\    /   O peration     | Version:  2306                                  |
|   \\  /    A nd           | Website:  www.openfoam.com                      |
|    \\/     M anipulation  |                                                 |
\*---------------------------------------------------------------------------*/
FoamFile
{
    version     2.0;
    format      ascii;
    arch        "LSB;label=32;scalar=64";
    class       volVectorField;
    location    "2";
    object      U;
}
// * * * * * * * * * * * * * * * * * * * * * * * * * * * * * * * * * * * * * //

dimensions      [0 1 -1 0 0 0 0];

internalField   nonuniform List<vector> 
32768
(
(1.00001 -3.90548e-05 0)
(1.00016 -0.000117295 0)
(1.00047 -0.0001956 0)
(1.00094 -0.000273959 0)
(1.00157 -0.000352455 0)
(1.00235 -0.000431166 0)
(1.00329 -0.000510136 0)
(1.00439 -0.000589397 0)
(1.00565 -0.000668985 0)
(1.00707 -0.000748938 0)
(1.00865 -0.000829283 0)
(1.01039 -0.000910044 0)
(1.01229 -0.000991233 0)
(1.01435 -0.00107286 0)
(1.01658 -0.00115492 0)
(1.01897 -0.0012374 0)
(1.02153 -0.00132029 0)
(1.02425 -0.00140355 0)
(1.02714 -0.00148715 0)
(1.0302 -0.00157104 0)
(1.03343 -0.00165514 0)
(1.03682 -0.00173938 0)
(1.04039 -0.00182367 0)
(1.04412 -0.00190791 0)
(1.04802 -0.00199197 0)
(1.05209 -0.00207571 0)
(1.05632 -0.00215899 0)
(1.06073 -0.00224163 0)
(1.06529 -0.00232345 0)
(1.07002 -0.00240425 0)
(1.07491 -0.00248381 0)
(1.07996 -0.00256191 0)
(1.08516 -0.00263829 0)
(1.09051 -0.00271271 0)
(1.09601 -0.00278488 0)
(1.10166 -0.00285454 0)
(1.10743 -0.00292139 0)
(1.11334 -0.00298514 0)
(1.11938 -0.00304548 0)
(1.12553 -0.00310212 0)
(1.13179 -0.00315475 0)
(1.13815 -0.00320308 0)
(1.14461 -0.00324682 0)
(1.15114 -0.00328569 0)
(1.15775 -0.00331943 0)
(1.16443 -0.00334779 0)
(1.17115 -0.00337057 0)
(1.17791 -0.00338757 0)
(1.18471 -0.00339868 0)
(1.19151 -0.00340383 0)
(1.19833 -0.00340307 0)
(1.20513 -0.00339653 0)
(1.21192 -0.0033845 0)
(1.21868 -0.00336738 0)
(1.2254 -0.00334573 0)
(1.23207 -0.00332018 0)
(1.23868 -0.00329146 0)
(1.24524 -0.00326027 0)
(1.25173 -0.00322726 0)
(1.25816 -0.00319295 0)
(1.26451 -0.00315761 0)
(1.27079 -0.00312129 0)
(1.277 -0.0030837 0)
(1.28313 -0.00304426 0)
(1.28918 -0.00300209 0)
(1.29514 -0.00295608 0)
(1.30101 -0.00290495 0)
(1.30677 -0.00284732 0)
(1.3124 -0.00278183 0)
(1.3179 -0.00270719 0)
(1.32323 -0.00262231 0)
(1.32839 -0.00252632 0)
(1.33334 -0.00241863 0)
(1.33806 -0.00229897 0)
(1.34254 -0.00216737 0)
(1.34673 -0.00202416 0)
(1.35063 -0.00186994 0)
(1.35421 -0.00170553 0)
(1.35745 -0.00153193 0)
(1.36034 -0.00135028 0)
(1.36285 -0.0011618 0)
(1.36499 -0.000967748 0)
(1.36672 -0.0007694 0)
(1.36806 -0.000567992 0)
(1.36899 -0.000364715 0)
(1.36952 -0.000160692 0)
(1.36963 4.30193e-05 0)
(1.36934 0.000245448 0)
(1.36865 0.000445707 0)
(1.36755 0.000642982 0)
(1.36607 0.000836529 0)
(1.3642 0.00102567 0)
(1.36196 0.00120979 0)
(1.35936 0.00138834 0)
(1.3564 0.00156079 0)
(1.35311 0.00172668 0)
(1.34949 0.0018856 0)
(1.34556 0.00203717 0)
(1.34133 0.00218104 0)
(1.33683 0.00231691 0)
(1.33206 0.00244454 0)
(1.32704 0.0025637 0)
(1.32179 0.00267421 0)
(1.31634 0.00277595 0)
(1.31068 0.00286881 0)
(1.30485 0.00295277 0)
(1.29886 0.0030278 0)
(1.29273 0.00309396 0)
(1.28648 0.00315131 0)
(1.28012 0.00319998 0)
(1.27367 0.00324013 0)
(1.26715 0.00327195 0)
(1.26057 0.00329567 0)
(1.25396 0.00331156 0)
(1.24732 0.00331988 0)
(1.24067 0.00332097 0)
(1.23403 0.00331515 0)
(1.2274 0.00330277 0)
(1.22081 0.0032842 0)
(1.21426 0.00325981 0)
(1.20777 0.00323 0)
(1.20134 0.00319514 0)
(1.19498 0.00315563 0)
(1.18871 0.00311185 0)
(1.18253 0.0030642 0)
(1.17645 0.00301305 0)
(1.17047 0.00295877 0)
(1.16461 0.00290172 0)
(1.15886 0.00284224 0)
(1.15324 0.00278069 0)
(1.14774 0.00271736 0)
(1.14237 0.00265258 0)
(1.13713 0.00258663 0)
(1.13202 0.00251978 0)
(1.12705 0.00245229 0)
(1.12221 0.00238439 0)
(1.11751 0.00231632 0)
(1.11295 0.00224828 0)
(1.10852 0.00218045 0)
(1.10423 0.00211301 0)
(1.10007 0.00204612 0)
(1.09604 0.00197991 0)
(1.09215 0.00191453 0)
(1.08838 0.00185008 0)
(1.08475 0.00178667 0)
(1.08124 0.00172438 0)
(1.07785 0.0016633 0)
(1.07459 0.00160348 0)
(1.07144 0.00154498 0)
(1.06841 0.00148786 0)
(1.06549 0.00143214 0)
(1.06268 0.00137787 0)
(1.05998 0.00132505 0)
(1.05738 0.0012737 0)
(1.05489 0.00122384 0)
(1.05249 0.00117546 0)
(1.05019 0.00112857 0)
(1.04798 0.00108316 0)
(1.04586 0.0010392 0)
(1.04382 0.000996705 0)
(1.04187 0.000955637 0)
(1.04 0.000915981 0)
(1.03821 0.000877713 0)
(1.03649 0.000840808 0)
(1.03485 0.000805238 0)
(1.03327 0.000770974 0)
(1.03176 0.000737986 0)
(1.03032 0.000706244 0)
(1.02894 0.000675713 0)
(1.02762 0.000646363 0)
(1.02636 0.00061816 0)
(1.02515 0.000591071 0)
(1.02399 0.000565062 0)
(1.02289 0.000540099 0)
(1.02183 0.00051615 0)
(1.02082 0.000493181 0)
(1.01986 0.00047116 0)
(1.01894 0.000450054 0)
(1.01806 0.000429831 0)
(1.01722 0.00041046 0)
(1.01642 0.000391911 0)
(1.01566 0.000374153 0)
(1.01492 0.000357157 0)
(1.01423 0.000340893 0)
(1.01356 0.000325335 0)
(1.01293 0.000310455 0)
(1.01232 0.000296226 0)
(1.01174 0.000282622 0)
(1.01119 0.000269619 0)
(1.01066 0.000257192 0)
(1.01016 0.000245318 0)
(1.00968 0.000233975 0)
(1.00923 0.000223139 0)
(1.00879 0.000212791 0)
(1.00838 0.00020291 0)
(1.00798 0.000193475 0)
(1.0076 0.000184469 0)
(1.00724 0.000175872 0)
(1.0069 0.000167668 0)
(1.00657 0.000159839 0)
(1.00626 0.000152368 0)
(1.00596 0.000145241 0)
(1.00568 0.000138442 0)
(1.00541 0.000131958 0)
(1.00515 0.000125773 0)
(1.00491 0.000119874 0)
(1.00467 0.00011425 0)
(1.00445 0.000108888 0)
(1.00424 0.000103775 0)
(1.00404 9.89017e-05 0)
(1.00384 9.42562e-05 0)
(1.00366 8.98286e-05 0)
(1.00348 8.5609e-05 0)
(1.00332 8.1588e-05 0)
(1.00316 7.77566e-05 0)
(1.00301 7.41062e-05 0)
(1.00286 7.06285e-05 0)
(1.00272 6.73159e-05 0)
(1.00259 6.41606e-05 0)
(1.00247 6.11556e-05 0)
(1.00235 5.82939e-05 0)
(1.00223 5.55692e-05 0)
(1.00213 5.2975e-05 0)
(1.00202 5.05055e-05 0)
(1.00192 4.8155e-05 0)
(1.00183 4.5918e-05 0)
(1.00174 4.37894e-05 0)
(1.00165 4.17643e-05 0)
(1.00157 3.98379e-05 0)
(1.0015 3.80058e-05 0)
(1.00142 3.62637e-05 0)
(1.00135 3.46076e-05 0)
(1.00128 3.30336e-05 0)
(1.00122 3.15381e-05 0)
(1.00116 3.01174e-05 0)
(1.0011 2.87683e-05 0)
(1.00104 2.74877e-05 0)
(1.00099 2.62724e-05 0)
(1.00094 2.51197e-05 0)
(1.00089 2.40269e-05 0)
(1.00084 2.29913e-05 0)
(1.0008 2.20106e-05 0)
(1.00075 2.10823e-05 0)
(1.00071 2.02044e-05 0)
(1.00067 1.93747e-05 0)
(1.00063 1.85913e-05 0)
(1.0006 1.78523e-05 0)
(1.00056 1.7156e-05 0)
(1.00053 1.65005e-05 0)
(1.0005 1.58849e-05 0)
(1.00047 1.53065e-05 0)
(1.00044 1.47652e-05 0)
(1.00041 1.42595e-05 0)
(1.00038 1.3778e-05 0)
(1.00036 1.33697e-05 0)
(1.00031 1.28293e-05 0)
(1.00001 -0.000117337 0)
(1.00016 -0.000352107 0)
(1.00047 -0.000586988 0)
(1.00094 -0.000822066 0)
(1.00156 -0.00105756 0)
(1.00235 -0.00129367 0)
(1.00329 -0.00153054 0)
(1.00439 -0.00176828 0)
(1.00565 -0.00200702 0)
(1.00706 -0.00224685 0)
(1.00864 -0.00248787 0)
(1.01038 -0.00273014 0)
(1.01228 -0.0029737 0)
(1.01434 -0.00321858 0)
(1.01657 -0.00346477 0)
(1.01896 -0.00371225 0)
(1.02152 -0.00396095 0)
(1.02424 -0.00421079 0)
(1.02713 -0.00446164 0)
(1.03019 -0.00471336 0)
(1.03342 -0.00496574 0)
(1.03681 -0.00521856 0)
(1.04037 -0.00547155 0)
(1.04411 -0.00572437 0)
(1.04801 -0.00597668 0)
(1.05208 -0.00622806 0)
(1.05631 -0.00647805 0)
(1.06072 -0.00672615 0)
(1.06528 -0.0069718 0)
(1.07002 -0.0072144 0)
(1.07491 -0.00745331 0)
(1.07996 -0.00768783 0)
(1.08516 -0.00791723 0)
(1.09052 -0.00814073 0)
(1.09603 -0.00835753 0)
(1.10168 -0.00856677 0)
(1.10746 -0.0087676 0)
(1.11338 -0.00895912 0)
(1.11942 -0.00914043 0)
(1.12558 -0.00931062 0)
(1.13185 -0.0094688 0)
(1.13822 -0.00961406 0)
(1.14469 -0.00974555 0)
(1.15123 -0.00986242 0)
(1.15786 -0.00996389 0)
(1.16454 -0.0100492 0)
(1.17128 -0.0101178 0)
(1.17805 -0.010169 0)
(1.18486 -0.0102025 0)
(1.19168 -0.0102181 0)
(1.19851 -0.0102159 0)
(1.20533 -0.0101964 0)
(1.21213 -0.0101604 0)
(1.21891 -0.0101091 0)
(1.22564 -0.0100441 0)
(1.23233 -0.00996748 0)
(1.23896 -0.00988122 0)
(1.24553 -0.00978753 0)
(1.25204 -0.00968834 0)
(1.25848 -0.00958516 0)
(1.26485 -0.00947888 0)
(1.27114 -0.00936958 0)
(1.27736 -0.00925644 0)
(1.28351 -0.0091377 0)
(1.28957 -0.00901076 0)
(1.29554 -0.00887228 0)
(1.30142 -0.0087184 0)
(1.30719 -0.00854503 0)
(1.31283 -0.00834807 0)
(1.31833 -0.00812368 0)
(1.32367 -0.00786857 0)
(1.32883 -0.00758015 0)
(1.33379 -0.00725666 0)
(1.33851 -0.00689728 0)
(1.34299 -0.0065021 0)
(1.34719 -0.0060721 0)
(1.35109 -0.00560908 0)
(1.35467 -0.00511549 0)
(1.35791 -0.00459435 0)
(1.36079 -0.00404906 0)
(1.36331 -0.00348329 0)
(1.36543 -0.00290081 0)
(1.36717 -0.00230542 0)
(1.3685 -0.00170086 0)
(1.36943 -0.00109068 0)
(1.36995 -0.000478255 0)
(1.37006 0.000133242 0)
(1.36976 0.000740898 0)
(1.36905 0.00134205 0)
(1.36795 0.00193424 0)
(1.36646 0.00251524 0)
(1.36458 0.00308303 0)
(1.36233 0.00363574 0)
(1.35971 0.00417171 0)
(1.35674 0.00468938 0)
(1.35343 0.00518736 0)
(1.3498 0.0056644 0)
(1.34585 0.00611934 0)
(1.34161 0.00655116 0)
(1.33709 0.00695898 0)
(1.3323 0.00734201 0)
(1.32727 0.0076996 0)
(1.32201 0.00803122 0)
(1.31653 0.00833647 0)
(1.31086 0.00861508 0)
(1.30501 0.00886691 0)
(1.299 0.00909194 0)
(1.29285 0.0092903 0)
(1.28658 0.00946221 0)
(1.28021 0.00960804 0)
(1.27374 0.00972828 0)
(1.2672 0.0098235 0)
(1.26061 0.00989439 0)
(1.25398 0.00994174 0)
(1.24733 0.00996641 0)
(1.24067 0.00996934 0)
(1.23401 0.00995153 0)
(1.22737 0.00991403 0)
(1.22077 0.00985795 0)
(1.21421 0.00978442 0)
(1.2077 0.0096946 0)
(1.20126 0.00958965 0)
(1.1949 0.00947074 0)
(1.18862 0.00933905 0)
(1.18243 0.00919573 0)
(1.17634 0.00904193 0)
(1.17036 0.00887874 0)
(1.16449 0.00870726 0)
(1.15874 0.00852853 0)
(1.15311 0.00834356 0)
(1.14761 0.00815331 0)
(1.14224 0.00795869 0)
(1.137 0.00776058 0)
(1.13189 0.00755979 0)
(1.12691 0.00735709 0)
(1.12208 0.00715321 0)
(1.11737 0.0069488 0)
(1.11281 0.00674449 0)
(1.10838 0.00654084 0)
(1.10409 0.00633838 0)
(1.09993 0.00613758 0)
(1.09591 0.00593886 0)
(1.09202 0.00574261 0)
(1.08826 0.00554918 0)
(1.08462 0.00535886 0)
(1.08112 0.00517193 0)
(1.07773 0.00498861 0)
(1.07447 0.0048091 0)
(1.07132 0.00463358 0)
(1.0683 0.00446218 0)
(1.06538 0.00429501 0)
(1.06257 0.00413216 0)
(1.05988 0.00397369 0)
(1.05728 0.00381965 0)
(1.05479 0.00367007 0)
(1.05239 0.00352494 0)
(1.05009 0.00338427 0)
(1.04789 0.00324804 0)
(1.04577 0.0031162 0)
(1.04374 0.00298872 0)
(1.04179 0.00286554 0)
(1.03992 0.0027466 0)
(1.03813 0.00263182 0)
(1.03642 0.00252113 0)
(1.03478 0.00241445 0)
(1.0332 0.00231169 0)
(1.0317 0.00221276 0)
(1.03026 0.00211756 0)
(1.02888 0.00202601 0)
(1.02756 0.00193799 0)
(1.0263 0.00185341 0)
(1.02509 0.00177218 0)
(1.02394 0.00169418 0)
(1.02284 0.00161933 0)
(1.02179 0.00154751 0)
(1.02078 0.00147864 0)
(1.01982 0.0014126 0)
(1.0189 0.00134932 0)
(1.01802 0.00128868 0)
(1.01718 0.0012306 0)
(1.01638 0.00117498 0)
(1.01562 0.00112173 0)
(1.01489 0.00107077 0)
(1.0142 0.00102201 0)
(1.01353 0.00097536 0)
(1.0129 0.000930744 0)
(1.01229 0.000888081 0)
(1.01172 0.000847294 0)
(1.01117 0.000808308 0)
(1.01064 0.00077105 0)
(1.01014 0.00073545 0)
(1.00966 0.00070144 0)
(1.00921 0.000668955 0)
(1.00877 0.00063793 0)
(1.00836 0.000608304 0)
(1.00796 0.000580019 0)
(1.00759 0.000553018 0)
(1.00723 0.000527244 0)
(1.00688 0.000502647 0)
(1.00656 0.000479175 0)
(1.00625 0.000456779 0)
(1.00595 0.000435412 0)
(1.00567 0.00041503 0)
(1.0054 0.000395588 0)
(1.00514 0.000377046 0)
(1.0049 0.000359364 0)
(1.00466 0.000342502 0)
(1.00444 0.000326426 0)
(1.00423 0.000311099 0)
(1.00403 0.000296489 0)
(1.00383 0.000282562 0)
(1.00365 0.000269289 0)
(1.00348 0.000256639 0)
(1.00331 0.000244584 0)
(1.00315 0.000233098 0)
(1.003 0.000222155 0)
(1.00285 0.00021173 0)
(1.00272 0.000201799 0)
(1.00259 0.00019234 0)
(1.00246 0.000183331 0)
(1.00234 0.000174753 0)
(1.00223 0.000166584 0)
(1.00212 0.000158807 0)
(1.00202 0.000151404 0)
(1.00192 0.000144358 0)
(1.00183 0.000137652 0)
(1.00174 0.000131271 0)
(1.00165 0.0001252 0)
(1.00157 0.000119425 0)
(1.00149 0.000113933 0)
(1.00142 0.00010871 0)
(1.00135 0.000103746 0)
(1.00128 9.90272e-05 0)
(1.00122 9.45437e-05 0)
(1.00115 9.02849e-05 0)
(1.0011 8.62407e-05 0)
(1.00104 8.24016e-05 0)
(1.00099 7.87586e-05 0)
(1.00093 7.53032e-05 0)
(1.00089 7.20271e-05 0)
(1.00084 6.89227e-05 0)
(1.00079 6.59827e-05 0)
(1.00075 6.32001e-05 0)
(1.00071 6.05683e-05 0)
(1.00067 5.80811e-05 0)
(1.00063 5.57327e-05 0)
(1.0006 5.35174e-05 0)
(1.00056 5.143e-05 0)
(1.00053 4.94655e-05 0)
(1.0005 4.7619e-05 0)
(1.00046 4.58873e-05 0)
(1.00043 4.42607e-05 0)
(1.00041 4.27552e-05 0)
(1.00038 4.12946e-05 0)
(1.00035 4.01186e-05 0)
(1.00031 3.84375e-05 0)
(1.00001 -0.000195655 0)
(1.00016 -0.000586831 0)
(1.00047 -0.000978112 0)
(1.00094 -0.00136978 0)
(1.00156 -0.00176215 0)
(1.00235 -0.00215553 0)
(1.00329 -0.00255016 0)
(1.00438 -0.00294626 0)
(1.00564 -0.00334404 0)
(1.00705 -0.00374366 0)
(1.00863 -0.00414529 0)
(1.01037 -0.00454902 0)
(1.01226 -0.00495494 0)
(1.01433 -0.00536308 0)
(1.01655 -0.00577344 0)
(1.01894 -0.00618597 0)
(1.0215 -0.00660058 0)
(1.02422 -0.00701713 0)
(1.02711 -0.00743542 0)
(1.03016 -0.00785519 0)
(1.03339 -0.00827612 0)
(1.03678 -0.00869782 0)
(1.04034 -0.00911985 0)
(1.04408 -0.00954167 0)
(1.04798 -0.00996267 0)
(1.05205 -0.0103822 0)
(1.05629 -0.0107994 0)
(1.0607 -0.0112136 0)
(1.06527 -0.0116237 0)
(1.07 -0.0120288 0)
(1.0749 -0.0124278 0)
(1.07996 -0.0128196 0)
(1.08517 -0.0132028 0)
(1.09054 -0.0135763 0)
(1.09606 -0.0139386 0)
(1.10172 -0.0142884 0)
(1.10751 -0.0146242 0)
(1.11344 -0.0149444 0)
(1.1195 -0.0152477 0)
(1.12568 -0.0155325 0)
(1.13197 -0.0157972 0)
(1.13836 -0.0160404 0)
(1.14484 -0.0162606 0)
(1.15141 -0.0164565 0)
(1.15806 -0.0166266 0)
(1.16477 -0.0167698 0)
(1.17153 -0.0168849 0)
(1.17833 -0.0169712 0)
(1.18517 -0.0170278 0)
(1.19202 -0.0170545 0)
(1.19888 -0.0170515 0)
(1.20573 -0.0170195 0)
(1.21256 -0.0169599 0)
(1.21936 -0.0168747 0)
(1.22613 -0.0167665 0)
(1.23285 -0.0166387 0)
(1.23951 -0.0164948 0)
(1.24612 -0.0163383 0)
(1.25265 -0.0161724 0)
(1.25912 -0.0159997 0)
(1.26552 -0.0158217 0)
(1.27184 -0.0156384 0)
(1.27809 -0.0154486 0)
(1.28426 -0.0152493 0)
(1.29035 -0.0150362 0)
(1.29634 -0.0148038 0)
(1.30224 -0.0145457 0)
(1.30802 -0.014255 0)
(1.31368 -0.0139251 0)
(1.3192 -0.0135494 0)
(1.32455 -0.0131227 0)
(1.32972 -0.0126404 0)
(1.33468 -0.0120998 0)
(1.33942 -0.0114994 0)
(1.3439 -0.0108394 0)
(1.3481 -0.0101214 0)
(1.352 -0.00934842 0)
(1.35558 -0.00852454 0)
(1.35882 -0.00765475 0)
(1.3617 -0.00674472 0)
(1.36421 -0.00580054 0)
(1.36633 -0.0048285 0)
(1.36806 -0.00383494 0)
(1.36938 -0.00282604 0)
(1.3703 -0.00180777 0)
(1.37081 -0.000785749 0)
(1.3709 0.000234766 0)
(1.37059 0.00124891 0)
(1.36987 0.00225221 0)
(1.36875 0.00324059 0)
(1.36723 0.0042103 0)
(1.36533 0.00515797 0)
(1.36306 0.00608049 0)
(1.36042 0.00697504 0)
(1.35742 0.00783905 0)
(1.35408 0.00867019 0)
(1.35042 0.00946633 0)
(1.34645 0.0102256 0)
(1.34217 0.0109462 0)
(1.33762 0.0116266 0)
(1.3328 0.0122657 0)
(1.32773 0.0128622 0)
(1.32243 0.0134153 0)
(1.31692 0.0139243 0)
(1.31121 0.0143888 0)
(1.30533 0.0148085 0)
(1.29928 0.0151834 0)
(1.2931 0.0155137 0)
(1.28679 0.0157998 0)
(1.28038 0.0160423 0)
(1.27388 0.016242 0)
(1.26731 0.0163999 0)
(1.26069 0.0165171 0)
(1.25403 0.0165951 0)
(1.24735 0.0166351 0)
(1.24065 0.0166389 0)
(1.23397 0.016608 0)
(1.22731 0.0165442 0)
(1.22068 0.0164495 0)
(1.2141 0.0163256 0)
(1.20757 0.0161746 0)
(1.20111 0.0159984 0)
(1.19473 0.0157989 0)
(1.18843 0.0155781 0)
(1.18223 0.0153379 0)
(1.17613 0.0150803 0)
(1.17014 0.0148071 0)
(1.16426 0.0145202 0)
(1.1585 0.0142212 0)
(1.15286 0.0139118 0)
(1.14735 0.0135937 0)
(1.14198 0.0132683 0)
(1.13673 0.0129372 0)
(1.13162 0.0126017 0)
(1.12664 0.0122631 0)
(1.1218 0.0119225 0)
(1.1171 0.0115811 0)
(1.11254 0.01124 0)
(1.10811 0.0109 0)
(1.10382 0.010562 0)
(1.09967 0.0102269 0)
(1.09565 0.00989524 0)
(1.09176 0.00956778 0)
(1.088 0.00924505 0)
(1.08437 0.00892755 0)
(1.08087 0.00861574 0)
(1.07749 0.00830999 0)
(1.07423 0.00801063 0)
(1.07109 0.00771794 0)
(1.06807 0.00743214 0)
(1.06516 0.00715343 0)
(1.06236 0.00688194 0)
(1.05967 0.00661778 0)
(1.05708 0.00636102 0)
(1.05459 0.00611171 0)
(1.0522 0.00586985 0)
(1.04991 0.00563542 0)
(1.04771 0.00540841 0)
(1.0456 0.00518873 0)
(1.04357 0.00497633 0)
(1.04163 0.0047711 0)
(1.03977 0.00457294 0)
(1.03798 0.00438173 0)
(1.03627 0.00419735 0)
(1.03464 0.00401965 0)
(1.03307 0.00384848 0)
(1.03157 0.0036837 0)
(1.03013 0.00352515 0)
(1.02876 0.00337267 0)
(1.02745 0.00322608 0)
(1.02619 0.00308524 0)
(1.02499 0.00294996 0)
(1.02384 0.00282008 0)
(1.02274 0.00269544 0)
(1.02169 0.00257586 0)
(1.02069 0.00246118 0)
(1.01973 0.00235123 0)
(1.01882 0.00224586 0)
(1.01794 0.00214491 0)
(1.01711 0.00204821 0)
(1.01631 0.00195561 0)
(1.01555 0.00186697 0)
(1.01483 0.00178213 0)
(1.01413 0.00170096 0)
(1.01347 0.0016233 0)
(1.01284 0.00154903 0)
(1.01224 0.00147801 0)
(1.01166 0.00141012 0)
(1.01111 0.00134523 0)
(1.01059 0.00128321 0)
(1.01009 0.00122395 0)
(1.00962 0.00116735 0)
(1.00916 0.00111327 0)
(1.00873 0.00106164 0)
(1.00832 0.00101233 0)
(1.00793 0.000965249 0)
(1.00755 0.000920308 0)
(1.00719 0.000877413 0)
(1.00685 0.000836475 0)
(1.00653 0.00079741 0)
(1.00622 0.000760136 0)
(1.00592 0.000724576 0)
(1.00564 0.000690654 0)
(1.00537 0.000658298 0)
(1.00512 0.00062744 0)
(1.00487 0.000598012 0)
(1.00464 0.000569952 0)
(1.00442 0.000543197 0)
(1.00421 0.000517691 0)
(1.00401 0.000493377 0)
(1.00382 0.0004702 0)
(1.00363 0.000448111 0)
(1.00346 0.00042706 0)
(1.00329 0.000406999 0)
(1.00314 0.000387885 0)
(1.00298 0.000369674 0)
(1.00284 0.000352325 0)
(1.0027 0.000335799 0)
(1.00257 0.000320058 0)
(1.00245 0.000305067 0)
(1.00233 0.000290792 0)
(1.00222 0.000277199 0)
(1.00211 0.000264258 0)
(1.00201 0.000251938 0)
(1.00191 0.000240213 0)
(1.00182 0.000229053 0)
(1.00173 0.000218435 0)
(1.00164 0.000208333 0)
(1.00156 0.000198723 0)
(1.00148 0.000189584 0)
(1.00141 0.000180894 0)
(1.00134 0.000172632 0)
(1.00127 0.000164781 0)
(1.00121 0.00015732 0)
(1.00115 0.000150233 0)
(1.00109 0.000143504 0)
(1.00103 0.000137115 0)
(1.00098 0.000131053 0)
(1.00093 0.000125304 0)
(1.00088 0.000119852 0)
(1.00083 0.000114687 0)
(1.00079 0.000109794 0)
(1.00075 0.000105164 0)
(1.00071 0.000100785 0)
(1.00067 9.66462e-05 0)
(1.00063 9.27384e-05 0)
(1.00059 8.90523e-05 0)
(1.00056 8.55788e-05 0)
(1.00053 8.23103e-05 0)
(1.00049 7.9237e-05 0)
(1.00046 7.63579e-05 0)
(1.00043 7.3647e-05 0)
(1.0004 7.11547e-05 0)
(1.00037 6.87049e-05 0)
(1.00035 6.68012e-05 0)
(1.00031 6.39339e-05 0)
(1.00001 -0.000273725 0)
(1.00016 -0.000820945 0)
(1.00047 -0.00136832 0)
(1.00093 -0.00191628 0)
(1.00156 -0.00246525 0)
(1.00234 -0.00301564 0)
(1.00328 -0.0035678 0)
(1.00437 -0.00412206 0)
(1.00563 -0.00467869 0)
(1.00704 -0.00523796 0)
(1.00861 -0.00580008 0)
(1.01035 -0.00636519 0)
(1.01224 -0.00693342 0)
(1.0143 -0.00750483 0)
(1.01652 -0.00807941 0)
(1.01891 -0.00865711 0)
(1.02146 -0.0092378 0)
(1.02418 -0.00982128 0)
(1.02707 -0.0104073 0)
(1.03012 -0.0109955 0)
(1.03334 -0.0115854 0)
(1.03674 -0.0121765 0)
(1.0403 -0.0127681 0)
(1.04403 -0.0133596 0)
(1.04794 -0.01395 0)
(1.05201 -0.0145385 0)
(1.05625 -0.0151239 0)
(1.06066 -0.0157051 0)
(1.06524 -0.0162808 0)
(1.06999 -0.0168496 0)
(1.07489 -0.0174099 0)
(1.07996 -0.0179602 0)
(1.08519 -0.0184987 0)
(1.09057 -0.0190235 0)
(1.0961 -0.0195329 0)
(1.10177 -0.0200248 0)
(1.10759 -0.0204971 0)
(1.11354 -0.0209478 0)
(1.11962 -0.0213748 0)
(1.12582 -0.0217758 0)
(1.13214 -0.0221488 0)
(1.13856 -0.0224916 0)
(1.14507 -0.0228022 0)
(1.15168 -0.0230787 0)
(1.15836 -0.023319 0)
(1.1651 -0.0235216 0)
(1.17191 -0.0236848 0)
(1.17875 -0.0238074 0)
(1.18562 -0.0238883 0)
(1.19252 -0.0239273 0)
(1.19942 -0.0239245 0)
(1.20632 -0.0238808 0)
(1.2132 -0.0237982 0)
(1.22005 -0.0236795 0)
(1.22686 -0.0235285 0)
(1.23363 -0.0233497 0)
(1.24034 -0.0231478 0)
(1.24699 -0.0229281 0)
(1.25357 -0.0226948 0)
(1.26009 -0.0224516 0)
(1.26653 -0.0222005 0)
(1.2729 -0.0219417 0)
(1.27919 -0.0216734 0)
(1.28539 -0.0213915 0)
(1.29151 -0.0210901 0)
(1.29754 -0.0207614 0)
(1.30347 -0.0203967 0)
(1.30928 -0.0199863 0)
(1.31496 -0.0195209 0)
(1.3205 -0.0189916 0)
(1.32587 -0.0183907 0)
(1.33105 -0.0177123 0)
(1.33603 -0.0169524 0)
(1.34077 -0.0161089 0)
(1.34526 -0.015182 0)
(1.34946 -0.0141742 0)
(1.35337 -0.0130894 0)
(1.35695 -0.0119334 0)
(1.36019 -0.0107131 0)
(1.36306 -0.00943653 0)
(1.36556 -0.00811212 0)
(1.36768 -0.00674869 0)
(1.36939 -0.00535507 0)
(1.37071 -0.00393993 0)
(1.37161 -0.0025116 0)
(1.3721 -0.00107798 0)
(1.37217 0.000353586 0)
(1.37183 0.00177627 0)
(1.37109 0.0031838 0)
(1.36994 0.00457044 0)
(1.3684 0.00593095 0)
(1.36647 0.00726054 0)
(1.36415 0.00855488 0)
(1.36148 0.00980997 0)
(1.35844 0.0110222 0)
(1.35506 0.0121883 0)
(1.35135 0.0133052 0)
(1.34733 0.0143702 0)
(1.34301 0.015381 0)
(1.33841 0.0163353 0)
(1.33354 0.0172314 0)
(1.32842 0.0180677 0)
(1.32307 0.0188429 0)
(1.3175 0.0195562 0)
(1.31174 0.0202067 0)
(1.3058 0.0207943 0)
(1.2997 0.0213189 0)
(1.29347 0.0217808 0)
(1.28711 0.0221804 0)
(1.28064 0.0225188 0)
(1.27409 0.022797 0)
(1.26748 0.0230165 0)
(1.2608 0.0231789 0)
(1.2541 0.0232859 0)
(1.24737 0.0233398 0)
(1.24064 0.0233427 0)
(1.23391 0.023297 0)
(1.22721 0.0232052 0)
(1.22055 0.0230699 0)
(1.21393 0.0228938 0)
(1.20737 0.0226797 0)
(1.20088 0.0224302 0)
(1.19447 0.0221482 0)
(1.18815 0.0218364 0)
(1.18193 0.0214975 0)
(1.17581 0.0211343 0)
(1.1698 0.0207493 0)
(1.16391 0.0203451 0)
(1.15813 0.0199241 0)
(1.15249 0.0194888 0)
(1.14697 0.0190413 0)
(1.14158 0.0185838 0)
(1.13633 0.0181183 0)
(1.13121 0.0176468 0)
(1.12623 0.017171 0)
(1.12139 0.0166927 0)
(1.11669 0.0162133 0)
(1.11213 0.0157344 0)
(1.1077 0.0152572 0)
(1.10342 0.0147829 0)
(1.09927 0.0143127 0)
(1.09525 0.0138475 0)
(1.09137 0.0133883 0)
(1.08762 0.0129358 0)
(1.08399 0.0124907 0)
(1.0805 0.0120536 0)
(1.07713 0.0116251 0)
(1.07388 0.0112056 0)
(1.07075 0.0107955 0)
(1.06773 0.0103951 0)
(1.06483 0.0100047 0)
(1.06204 0.00962447 0)
(1.05936 0.00925455 0)
(1.05678 0.00889503 0)
(1.0543 0.00854597 0)
(1.05192 0.00820738 0)
(1.04963 0.00787925 0)
(1.04744 0.0075615 0)
(1.04534 0.00725406 0)
(1.04332 0.00695682 0)
(1.04139 0.00666965 0)
(1.03953 0.00639239 0)
(1.03776 0.00612488 0)
(1.03606 0.00586694 0)
(1.03443 0.00561836 0)
(1.03287 0.00537894 0)
(1.03138 0.00514847 0)
(1.02995 0.00492673 0)
(1.02858 0.00471348 0)
(1.02727 0.00450849 0)
(1.02602 0.00431154 0)
(1.02483 0.00412239 0)
(1.02369 0.00394079 0)
(1.0226 0.00376652 0)
(1.02155 0.00359935 0)
(1.02056 0.00343902 0)
(1.0196 0.00328533 0)
(1.01869 0.00313804 0)
(1.01782 0.00299692 0)
(1.017 0.00286175 0)
(1.0162 0.00273233 0)
(1.01545 0.00260844 0)
(1.01473 0.00248986 0)
(1.01404 0.00237641 0)
(1.01338 0.00226789 0)
(1.01275 0.0021641 0)
(1.01215 0.00206485 0)
(1.01158 0.00196998 0)
(1.01104 0.00187929 0)
(1.01052 0.00179263 0)
(1.01002 0.00170983 0)
(1.00955 0.00163073 0)
(1.0091 0.00155518 0)
(1.00867 0.00148303 0)
(1.00826 0.00141414 0)
(1.00787 0.00134836 0)
(1.0075 0.00128557 0)
(1.00714 0.00122564 0)
(1.0068 0.00116845 0)
(1.00648 0.00111387 0)
(1.00617 0.0010618 0)
(1.00588 0.00101212 0)
(1.0056 0.000964726 0)
(1.00533 0.000919525 0)
(1.00508 0.000876416 0)
(1.00484 0.000835306 0)
(1.00461 0.000796106 0)
(1.00439 0.000758732 0)
(1.00418 0.000723101 0)
(1.00398 0.000689136 0)
(1.00379 0.000656761 0)
(1.00361 0.000625905 0)
(1.00343 0.000596499 0)
(1.00327 0.000568477 0)
(1.00311 0.000541777 0)
(1.00296 0.000516339 0)
(1.00282 0.000492105 0)
(1.00269 0.000469021 0)
(1.00256 0.000447034 0)
(1.00243 0.000426094 0)
(1.00231 0.000406154 0)
(1.0022 0.000387168 0)
(1.0021 0.000369092 0)
(1.00199 0.000351884 0)
(1.0019 0.000335506 0)
(1.0018 0.000319919 0)
(1.00172 0.000305088 0)
(1.00163 0.000290977 0)
(1.00155 0.000277555 0)
(1.00147 0.00026479 0)
(1.0014 0.000252652 0)
(1.00133 0.000241113 0)
(1.00126 0.000230146 0)
(1.0012 0.000219726 0)
(1.00114 0.000209828 0)
(1.00108 0.000200428 0)
(1.00103 0.000191506 0)
(1.00097 0.000183039 0)
(1.00092 0.000175008 0)
(1.00088 0.000167394 0)
(1.00083 0.000160179 0)
(1.00078 0.000153346 0)
(1.00074 0.000146879 0)
(1.0007 0.000140763 0)
(1.00066 0.000134982 0)
(1.00063 0.000129524 0)
(1.00059 0.000124376 0)
(1.00055 0.000119524 0)
(1.00052 0.00011496 0)
(1.00049 0.000110667 0)
(1.00046 0.000106647 0)
(1.00043 0.000102859 0)
(1.0004 9.93828e-05 0)
(1.00037 9.59565e-05 0)
(1.00035 9.33093e-05 0)
(1.00031 8.9285e-05 0)
(1.00001 -0.000351576 0)
(1.00016 -0.00105444 0)
(1.00047 -0.00175751 0)
(1.00093 -0.00246137 0)
(1.00155 -0.00316657 0)
(1.00233 -0.00387363 0)
(1.00327 -0.004583 0)
(1.00436 -0.00529512 0)
(1.00561 -0.00601037 0)
(1.00702 -0.00672907 0)
(1.00859 -0.0074515 0)
(1.01032 -0.00817789 0)
(1.01221 -0.00890837 0)
(1.01426 -0.00964305 0)
(1.01648 -0.0103819 0)
(1.01886 -0.0111249 0)
(1.02141 -0.0118719 0)
(1.02413 -0.0126227 0)
(1.02701 -0.0133768 0)
(1.03006 -0.0141339 0)
(1.03329 -0.0148933 0)
(1.03668 -0.0156545 0)
(1.04024 -0.0164166 0)
(1.04398 -0.0171786 0)
(1.04788 -0.0179395 0)
(1.05196 -0.0186981 0)
(1.0562 -0.019453 0)
(1.06062 -0.0202026 0)
(1.06521 -0.0209454 0)
(1.06996 -0.0216794 0)
(1.07488 -0.0224028 0)
(1.07996 -0.0231135 0)
(1.0852 -0.0238092 0)
(1.0906 -0.0244875 0)
(1.09615 -0.0251461 0)
(1.10185 -0.0257822 0)
(1.10769 -0.0263934 0)
(1.11367 -0.0269769 0)
(1.11978 -0.0275298 0)
(1.12601 -0.0280495 0)
(1.13236 -0.0285331 0)
(1.13882 -0.0289779 0)
(1.14538 -0.0293813 0)
(1.15203 -0.0297406 0)
(1.15876 -0.0300534 0)
(1.16555 -0.0303175 0)
(1.1724 -0.0305307 0)
(1.1793 -0.0306915 0)
(1.18623 -0.0307985 0)
(1.19319 -0.0308513 0)
(1.20015 -0.03085 0)
(1.2071 -0.0307958 0)
(1.21405 -0.0306912 0)
(1.22096 -0.0305397 0)
(1.22784 -0.0303462 0)
(1.23467 -0.0301163 0)
(1.24144 -0.0298563 0)
(1.24816 -0.0295726 0)
(1.2548 -0.0292709 0)
(1.26138 -0.0289557 0)
(1.26788 -0.0286297 0)
(1.2743 -0.0282932 0)
(1.28065 -0.0279439 0)
(1.2869 -0.0275765 0)
(1.29307 -0.0271837 0)
(1.29914 -0.0267554 0)
(1.30511 -0.0262805 0)
(1.31095 -0.0257469 0)
(1.31667 -0.0251426 0)
(1.32223 -0.0244561 0)
(1.32763 -0.0236779 0)
(1.33283 -0.0228001 0)
(1.33782 -0.0218177 0)
(1.34258 -0.0207281 0)
(1.34708 -0.0195316 0)
(1.35129 -0.0182311 0)
(1.3552 -0.0168318 0)
(1.35878 -0.0153411 0)
(1.36201 -0.0137678 0)
(1.36488 -0.0121222 0)
(1.36738 -0.010415 0)
(1.36948 -0.00865754 0)
(1.37118 -0.00686123 0)
(1.37248 -0.00503716 0)
(1.37336 -0.00319603 0)
(1.37382 -0.00134798 0)
(1.37387 0.000497494 0)
(1.3735 0.00233161 0)
(1.37272 0.00414628 0)
(1.37154 0.00593411 0)
(1.36995 0.00768832 0)
(1.36798 0.00940273 0)
(1.36562 0.0110717 0)
(1.36289 0.0126901 0)
(1.3598 0.0142531 0)
(1.35637 0.0157566 0)
(1.3526 0.0171966 0)
(1.34852 0.0185696 0)
(1.34413 0.0198725 0)
(1.33946 0.0211024 0)
(1.33453 0.022257 0)
(1.32934 0.0233343 0)
(1.32391 0.0243326 0)
(1.31828 0.0252506 0)
(1.31244 0.0260876 0)
(1.30643 0.0268431 0)
(1.30027 0.027517 0)
(1.29396 0.0281099 0)
(1.28753 0.0286223 0)
(1.28099 0.0290554 0)
(1.27438 0.0294107 0)
(1.26769 0.0296901 0)
(1.26095 0.0298957 0)
(1.25419 0.0300299 0)
(1.2474 0.0300954 0)
(1.24061 0.0300951 0)
(1.23383 0.030032 0)
(1.22708 0.0299096 0)
(1.22037 0.0297311 0)
(1.2137 0.0295 0)
(1.2071 0.02922 0)
(1.20058 0.0288945 0)
(1.19413 0.0285272 0)
(1.18778 0.0281217 0)
(1.18153 0.0276814 0)
(1.17538 0.02721 0)
(1.16935 0.0267106 0)
(1.16343 0.0261867 0)
(1.15764 0.0256415 0)
(1.15198 0.0250779 0)
(1.14645 0.0244988 0)
(1.14105 0.0239071 0)
(1.13579 0.0233054 0)
(1.13067 0.0226961 0)
(1.12569 0.0220815 0)
(1.12084 0.0214639 0)
(1.11614 0.0208451 0)
(1.11158 0.0202271 0)
(1.10716 0.0196114 0)
(1.10288 0.0189998 0)
(1.09873 0.0183935 0)
(1.09472 0.0177939 0)
(1.09085 0.0172021 0)
(1.0871 0.0166191 0)
(1.08349 0.0160457 0)
(1.08 0.0154829 0)
(1.07664 0.0149311 0)
(1.0734 0.0143911 0)
(1.07028 0.0138633 0)
(1.06728 0.0133481 0)
(1.06439 0.0128458 0)
(1.06161 0.0123567 0)
(1.05894 0.0118809 0)
(1.05637 0.0114186 0)
(1.0539 0.0109698 0)
(1.05154 0.0105345 0)
(1.04926 0.0101127 0)
(1.04708 0.00970428 0)
(1.04499 0.00930919 0)
(1.04299 0.00892725 0)
(1.04106 0.00855829 0)
(1.03922 0.0082021 0)
(1.03746 0.00785847 0)
(1.03577 0.00752716 0)
(1.03415 0.00720791 0)
(1.0326 0.00690046 0)
(1.03112 0.00660452 0)
(1.0297 0.0063198 0)
(1.02834 0.00604602 0)
(1.02704 0.00578287 0)
(1.0258 0.00553005 0)
(1.02462 0.00528725 0)
(1.02348 0.00505418 0)
(1.0224 0.00483052 0)
(1.02137 0.00461598 0)
(1.02038 0.00441024 0)
(1.01943 0.00421303 0)
(1.01853 0.00402403 0)
(1.01767 0.00384297 0)
(1.01684 0.00366956 0)
(1.01606 0.00350352 0)
(1.01531 0.00334458 0)
(1.01459 0.00319247 0)
(1.01391 0.00304695 0)
(1.01326 0.00290774 0)
(1.01264 0.00277461 0)
(1.01204 0.00264732 0)
(1.01148 0.00252564 0)
(1.01094 0.00240934 0)
(1.01042 0.0022982 0)
(1.00993 0.00219201 0)
(1.00946 0.00209058 0)
(1.00902 0.00199369 0)
(1.00859 0.00190117 0)
(1.00818 0.00181283 0)
(1.0078 0.00172849 0)
(1.00743 0.00164798 0)
(1.00708 0.00157113 0)
(1.00674 0.0014978 0)
(1.00642 0.00142783 0)
(1.00612 0.00136106 0)
(1.00583 0.00129737 0)
(1.00555 0.00123661 0)
(1.00528 0.00117866 0)
(1.00503 0.00112339 0)
(1.00479 0.00107069 0)
(1.00456 0.00102044 0)
(1.00435 0.000972524 0)
(1.00414 0.000926847 0)
(1.00394 0.000883306 0)
(1.00375 0.000841804 0)
(1.00357 0.000802249 0)
(1.0034 0.000764554 0)
(1.00324 0.000728634 0)
(1.00308 0.000694408 0)
(1.00294 0.0006618 0)
(1.00279 0.000630737 0)
(1.00266 0.000601147 0)
(1.00253 0.000572964 0)
(1.00241 0.000546123 0)
(1.00229 0.000520564 0)
(1.00218 0.000496227 0)
(1.00208 0.000473057 0)
(1.00197 0.000451002 0)
(1.00188 0.000430009 0)
(1.00179 0.00041003 0)
(1.0017 0.00039102 0)
(1.00162 0.000372934 0)
(1.00154 0.000355731 0)
(1.00146 0.000339369 0)
(1.00139 0.000323812 0)
(1.00132 0.000309022 0)
(1.00125 0.000294966 0)
(1.00119 0.00028161 0)