/*--------------------------------*- C++ -*----------------------------------*\
| =========                 |                                                 |
| \\      /  F ield         | OpenFOAM: The Open Source CFD Toolbox           |
|  \\    /   O peration     | Version:  2406                                  |
|   \\  /    A nd           | Website:  www.openfoam.com                      |
|    \\/     M anipulation  |                                                 |
\*---------------------------------------------------------------------------*/
FoamFile
{
    version     2.0;
    format      ascii;
    arch        "LSB;label=32;scalar=64";
    class       volScalarField;
    location    "15000";
    object      CondNu;
}
// * * * * * * * * * * * * * * * * * * * * * * * * * * * * * * * * * * * * * //

dimensions      [1 0 -3 0 0 0 0];

internalField   uniform 0;

boundaryField
{
    bottomwall
    {
        type            calculated;
        value           nonuniform List<scalar> 
60
(
15.091
11.7109
9.80484
8.63157
7.85951
7.3232
6.93305
6.63631
6.4001
6.20389
6.03453
5.88247
5.73998
5.60117
5.46245
5.32231
5.18046
5.03697
4.89171
4.74419
4.59352
4.4382
4.27597
4.10401
3.91983
3.72273
3.5149
3.30074
3.08325
2.85845
2.61093
2.31517
1.9458
1.49573
0.995938
0.527186
0.215031
0.205918
0.629407
1.55835
2.98237
4.80494
6.86524
8.97595
10.9622
12.6879
14.0634
15.0368
15.5803
15.6822
15.3493
14.6199
13.5785
12.3632
11.1611
10.1917
9.68856
9.91996
11.2345
14.25
)
;
    }
    topwall
    {
        type            calculated;
        value           nonuniform List<scalar> 
60
(
0.483044
0.315942
0.184594
0.0645904
-0.0315123
-0.104282
-0.152311
-0.171799
-0.157185
-0.107663
-0.0317188
0.0551506
0.137592
0.206172
0.257961
0.293326
0.312743
0.315819
0.302081
0.271977
0.227136
0.169968
0.10319
0.0297922
-0.0463781
-0.119731
-0.182408
-0.22487
-0.237924
-0.21567
-0.158152
-0.0723073
0.0294589
0.132585
0.224109
0.295304
0.342322
0.36507
0.365308
0.34508
0.306167
0.250612
0.1818
0.105234
0.0282471
-0.0414582
-0.0974205
-0.134735
-0.148799
-0.134339
-0.087008
-0.00707099
0.0986401
0.21948
0.34664
0.476202
0.609308
0.743926
0.892446
1.00876
)
;
    }
    coldwall
    {
        type            calculated;
        value           nonuniform List<scalar> 
48
(
-20.227
-10.5513
-6.5118
-4.4027
-3.14498
-2.35315
-1.85411
-1.55215
-1.38583
-1.31239
-1.30124
-1.33068
-1.38568
-1.45623
-1.53588
-1.62067
-1.70827
-1.79733
-1.88711
-1.9772
-2.0674
-2.1576
-2.24775
-2.33783
-2.42786
-2.51784
-2.6078
-2.69776
-2.78774
-2.87773
-2.96771
-3.05761
-3.14735
-3.23676
-3.32562
-3.41366
-3.50049
-3.58566
-3.66859
-3.74861
-3.82494
-3.8967
-3.99374
-3.92794
-3.86259
-3.81351
-3.82476
-4.04006
)
;
    }
    radinlet
    {
        type            calculated;
        value           nonuniform List<scalar> 
12
(
-3.96293
-4.02258
-4.07457
-4.11778
-4.15116
-4.1737
-4.18456
-4.18313
-4.16906
-4.14236
-4.10346
-4.05333
)
;
    }
    hotwall
    {
        type            calculated;
        value           nonuniform List<scalar> 
60
(
-20.8061
-11.4206
-7.31191
-5.04928
-3.63574
-2.71034
-2.10474
-1.7209
-1.49291
-1.37342
-1.32795
-1.33178
-1.36764
-1.42389
-1.49297
-1.57014
-1.65256
-1.73855
-1.82716
-1.91784
-2.01028
-2.10428
-2.19968
-2.29635
-2.39415
-2.49296
-2.59264
-2.69304
-2.79401
-2.89538
-2.99697
-3.0986
-3.20007
-3.30115
-3.4016
-3.50114
-3.59946
-3.69623
-3.79104
-3.88344
-3.9729
-4.05882
-4.14053
-4.21729
-4.28826
-4.35251
-4.40906
-4.45685
-4.49482
-4.52197
-4.53749
-4.54093
-4.53248
-4.51348
-4.48724
-4.46082
-4.44895
-4.4851
-4.65674
-5.23814
)
;
    }
    frontAndback
    {
        type            empty;
    }
}


// ************************************************************************* //
