/*--------------------------------*- C++ -*----------------------------------*\
| =========                 |                                                 |
| \\      /  F ield         | OpenFOAM: The Open Source CFD Toolbox           |
|  \\    /   O peration     | Version:  2406                                  |
|   \\  /    A nd           | Website:  www.openfoam.com                      |
|    \\/     M anipulation  |                                                 |
\*---------------------------------------------------------------------------*/
FoamFile
{
    version     2.0;
    format      ascii;
    arch        "LSB;label=32;scalar=64";
    class       volScalarField;
    location    "15000";
    object      ILambda_17_0;
}
// * * * * * * * * * * * * * * * * * * * * * * * * * * * * * * * * * * * * * //

dimensions      [1 0 -3 0 0 0 0];

internalField   nonuniform List<scalar> 
3600
(
144.029
146.229
147.177
147.817
148.247
148.553
148.78
148.959
149.106
149.236
149.356
149.471
149.581
149.686
149.789
149.89
149.992
150.096
150.204
150.314
150.428
150.541
150.654
150.765
150.875
150.992
151.125
151.283
151.464
151.646
151.789
151.845
151.789
151.652
151.549
151.679
152.292
153.617
155.793
158.808
162.484
166.507
170.5
174.091
176.986
178.986
179.989
179.965
178.93
176.935
174.077
170.508
166.446
162.163
157.951
154.055
150.578
147.387
144.096
140.367
145.392
147.279
147.782
148.239
148.546
148.776
148.956
149.105
149.236
149.356
149.471
149.58
149.686
149.789
149.89
149.992
150.097
150.204
150.315
150.428
150.541
150.653
150.763
150.874
150.993
151.13
151.29
151.47
151.647
151.779
151.823
151.759
151.625
151.54
151.701
152.349
153.703
155.892
158.9
162.548
166.534
170.487
174.047
176.92
178.909
179.908
179.882
178.844
176.848
173.994
170.438
166.404
162.166
158.006
154.132
150.592
147.245
143.907
140.747
138.643
146.529
147.957
148.207
148.551
148.775
148.956
149.105
149.236
149.356
149.47
149.58
149.686
149.788
149.89
149.992
150.097
150.205
150.315
150.428
150.541
150.652
150.762
150.874
150.995
151.133
151.295
151.474
151.647
151.772
151.808
151.738
151.606
151.53
151.708
152.375
153.745
155.94
158.942
162.576
166.543
170.479
174.028
176.896
178.884
179.883
179.855
178.814
176.815
173.96
170.411
166.395
162.184
158.044
154.158
150.557
147.137
143.836
140.901
138.987
138.668
147.379
148.378
148.515
148.784
148.955
149.106
149.236
149.357
149.471
149.58
149.686
149.788
149.89
149.992
150.097
150.205
150.315
150.428
150.54
150.651
150.761
150.874
150.996
151.136
151.3
151.478
151.646
151.764
151.792
151.719
151.588
151.523
151.716
152.399
153.78
155.977
158.972
162.592
166.544
170.467
174.009
176.876
178.867
179.868
179.84
178.797
176.794
173.939
170.398
166.399
162.208
158.078
154.171
150.518
147.059
143.803
141.009
139.174
138.64
139.065
147.973
148.65
148.75
148.966
149.105
149.238
149.357
149.471
149.58
149.685
149.788
149.89
149.993
150.097
150.205
150.315
150.428
150.54
150.65
150.76
150.874
150.997
151.14
151.304
151.481
151.645
151.756
151.777
151.7
151.572
151.516
151.724
152.422
153.813
156.012
158.999
162.606
166.542
170.454
173.989
176.857
178.851
179.855
179.828
178.782
176.777
173.924
170.391
166.408
162.233
158.106
154.176
150.483
147.002
143.788
141.09
139.307
138.675
138.937
139.424
148.378
148.845
148.939
149.114
149.236
149.358
149.471
149.58
149.685
149.788
149.89
149.993
150.098
150.205
150.316
150.427
150.539
150.65
150.76
150.874
150.999
151.143
151.308
151.484
151.643
151.747
151.762
151.682
151.557
151.51
151.732
152.445
153.846
156.047
159.026
162.619
166.54
170.44
173.97
176.837
178.834
179.842
179.815
178.768
176.761
173.91
170.386
166.418
162.256
158.128
154.178
150.453
146.96
143.782
141.155
139.408
138.717
138.874
139.344
139.679
148.66
149.002
149.095
149.244
149.357
149.472
149.58
149.685
149.788
149.89
149.993
150.098
150.205
150.316
150.427
150.538
150.649
150.759
150.874
151.001
151.147
151.312
151.486
151.641
151.739
151.748
151.664
151.542
151.505
151.741
152.468
153.878
156.081
159.053
162.633
166.539
170.426
173.95
176.817
178.817
179.827
179.802
178.753
176.746
173.897
170.383
166.428
162.277
158.147
154.177
150.427
146.929
143.782
141.209
139.49
138.759
138.839
139.279
139.658
139.846
148.868
149.138
149.231
149.362
149.47
149.58
149.685
149.788
149.89
149.993
150.098
150.206
150.316
150.427
150.538
150.648
150.758
150.874
151.003
151.15
151.316
151.488
151.638
151.73
151.733
151.647
151.528
151.5
151.749
152.49
153.91
156.114
159.079
162.646
166.538
170.414
173.931
176.797
178.799
179.813
179.788
178.739
176.731
173.886
170.381
166.438
162.296
158.162
154.175
150.406
146.905
143.785
141.256
139.558
138.799
138.818
139.226
139.627
139.843
139.916
149.033
149.261
149.353
149.474
149.579
149.685
149.788
149.891
149.993
150.098
150.206
150.316
150.427
150.537
150.647
150.758
150.875
151.005
151.153
151.32
151.49
151.636
151.722
151.719
151.63
151.514
151.495
151.758
152.512
153.941
156.146
159.105
162.66
166.537
170.402
173.913
176.777
178.782
179.797
179.774
178.724
176.717
173.876
170.38
166.448
162.312
158.174
154.173
150.388
146.887
143.791
141.298
139.617
138.836
138.807
139.182
139.592
139.837
139.913
139.893
149.174
149.377
149.467
149.581
149.685
149.788
149.891
149.994
150.099
150.206
150.316
150.426
150.537
150.646
150.758
150.876
151.007
151.157
151.323
151.491
151.633
151.713
151.705
151.614
151.501
151.491
151.766
152.533
153.971
156.178
159.131
162.673
166.537
170.39
173.895
176.758
178.763
179.782
179.759
178.71
176.704
173.867
170.38
166.457
162.327
158.185
154.17
150.373
146.874
143.799
141.335
139.669
138.87
138.801
139.146
139.558
139.824
139.914
139.89
139.807
149.299
149.488
149.576
149.686
149.788
149.891
149.994
150.099
150.206
150.316
150.426
150.536
150.646
150.757
150.876
151.009
151.16
151.326
151.492
151.629
151.704
151.691
151.598
151.488
151.487
151.775
152.554
154.001
156.209
159.156
162.687
166.538
170.379
173.877
176.738
178.745
179.765
179.744
178.695
176.691
173.859
170.38
166.466
162.34
158.193
154.168
150.361
146.864
143.808
141.37
139.716
138.902
138.799
139.115
139.524
139.808
139.913
139.892
139.808
139.701
149.415
149.594
149.682
149.789
149.891
149.994
150.099
150.206
150.316
150.426
150.535
150.645
150.757
150.877
151.011
151.163
151.329
151.493
151.626
151.695
151.677
151.583
151.476
151.484
151.783
152.575
154.03
156.24
159.181
162.701
166.538
170.369
173.859
176.718
178.727
179.749
179.729
178.681
176.678
173.852
170.38
166.474
162.351
158.201
154.165
150.351
146.857
143.818
141.402
139.758
138.932
138.8
139.089
139.492
139.789
139.909
139.894
139.81
139.708
139.617
149.526
149.698
149.785
149.892
149.994
150.099
150.207
150.316
150.425
150.535
150.644
150.757
150.878
151.013
151.166
151.332
151.494
151.622
151.686
151.663
151.568
151.465
151.48
151.792
152.596
154.058
156.27
159.206
162.715
166.539
170.359
173.843
176.699
178.708
179.732
179.713
178.666
176.666
173.845
170.38
166.481
162.361
158.207
154.163
150.343
146.853
143.829
141.432
139.797
138.96
138.802
139.067
139.462
139.768
139.903
139.895
139.813
139.711
139.624
139.572
149.632
149.801
149.888
149.995
150.099
150.207
150.315
150.425
150.534
150.644
150.757
150.879
151.016
151.17
151.335
151.494
151.618
151.677
151.65
151.553
151.454
151.478
151.801
152.616
154.086
156.3
159.23
162.728
166.541
170.349
173.826
176.68
178.689
179.714
179.697
178.652
176.655
173.838
170.381
166.488
162.37
158.212
154.162
150.336
146.85
143.841
141.46
139.833
138.986
138.805
139.047
139.433
139.747
139.895
139.896
139.816
139.715
139.629
139.577
139.562
149.736
149.903
149.992
150.1
150.207
150.315
150.424
150.533
150.643
150.757
150.88
151.018
151.173
151.337
151.494
151.614
151.668
151.637
151.539
151.443
151.475
151.81
152.636
154.114
156.329
159.254
162.742
166.542
170.34
173.81
176.66
178.67
179.697
179.681
178.638
176.644
173.832
170.381
166.494
162.378
158.217
154.16
150.331
146.849
143.852
141.487
139.866
139.011
138.809
139.03
139.407
139.725
139.886
139.897
139.82
139.719
139.633
139.58
139.563
139.57
149.84
150.007
150.097
150.208
150.315
150.424
150.533
150.643
150.757
150.881
151.02
151.175
151.34
151.494
151.61
151.658
151.624
151.525
151.433
151.473
151.818
152.655
154.141
156.357
159.278
162.756
166.544
170.331
173.794
176.641
178.65
179.679
179.665
178.624
176.633
173.827
170.382
166.5
162.386
158.221
154.159
150.327
146.85
143.865
141.512
139.897
139.035
138.814
139.015
139.382
139.703
139.875
139.896
139.824
139.723
139.637
139.584
139.564
139.567
139.576
149.943
150.112
150.204
150.316
150.423
150.532
150.642
150.757
150.882
151.023
151.178
151.342
151.494
151.606
151.649
151.611
151.511
151.423
151.471
151.827
152.675
154.168
156.385
159.301
162.77
166.546
170.323
173.778
176.622
178.631
179.661
179.649
178.61
176.623
173.821
170.382
166.505
162.392
158.225
154.159
150.325
146.852
143.877
141.536
139.926
139.057
138.819
139.002
139.359
139.682
139.863
139.894
139.828
139.728
139.641
139.586
139.565
139.566
139.572
139.568
150.048
150.219
150.312
150.424
150.531
150.642
150.758
150.884
151.025
151.181
151.344
151.493
151.601
151.64
151.598
151.498
151.413
151.469
151.836
152.694
154.194
156.413
159.324
162.783
166.549
170.315
173.763
176.603
178.612
179.642
179.633
178.596
176.613
173.816
170.382
166.51
162.398
158.229
154.158
150.323
146.855
143.89
141.56
139.954
139.078
138.824
138.99
139.337
139.661
139.851
139.892
139.831
139.733
139.645
139.589
139.566
139.565
139.57
139.566
139.547
150.154
150.327
150.42
150.532
150.641
150.758
150.885
151.027
151.184
151.346
151.492
151.596
151.631
151.586
151.485
151.404
151.468
151.845
152.713
154.219
156.44
159.347
162.797
166.551
170.307
173.748
176.584
178.592
179.624
179.616
178.583
176.603
173.811
170.383
166.514
162.403
158.232
154.158
150.322
146.858
143.903
141.582
139.98
139.098
138.829
138.979
139.316
139.641
139.838
139.888
139.834
139.738
139.65
139.592
139.567
139.565
139.568
139.564
139.546
139.515
150.261
150.435
150.528
150.642
150.758
150.887
151.03
151.186
151.347
151.491
151.592
151.622
151.573
151.473
151.395
151.467
151.854
152.731
154.245
156.467
159.369
162.811
166.554
170.3
173.733
176.566
178.572
179.605
179.6
178.569
176.593
173.806
170.383
166.518
162.408
158.235
154.159
150.322
146.863
143.916
141.604
140.005
139.117
138.835
138.97
139.297
139.621
139.825
139.884
139.837
139.743
139.654
139.595
139.568
139.564
139.567
139.562
139.545
139.515
139.479
150.368
150.543
150.638
150.76
150.888
151.032
151.189
151.349
151.49
151.587
151.612
151.561
151.461
151.387
151.466
151.863
152.75
154.27
156.494
159.392
162.825
166.557
170.293
173.718
176.547
178.552
179.586
179.583
178.556
176.584
173.801
170.383
166.521
162.413
158.238
154.16
150.323
146.868
143.929
141.625
140.029
139.135
138.84
138.961
139.278
139.601
139.812
139.88
139.839
139.748
139.659
139.598
139.57
139.564
139.565
139.561
139.544
139.515
139.48
139.444
150.475
150.654
150.756
150.89
151.034
151.192
151.35
151.489
151.581
151.603
151.549
151.449
151.378
151.465
151.871
152.768
154.294
156.52
159.414
162.838
166.56
170.286
173.704
176.528
178.533
179.568
179.567
178.542
176.574
173.797
170.383
166.524
162.417
158.241
154.161
150.325
146.874
143.942
141.645
140.052
139.152
138.846
138.953
139.261
139.582
139.798
139.875
139.841
139.753
139.664
139.601
139.571
139.563
139.564
139.559
139.543
139.515
139.48
139.445
139.414
150.585
150.773
150.888
151.037
151.194
151.351
151.488
151.576
151.594
151.537
151.437
151.37
151.465
151.88
152.786
154.319
156.545
159.436
162.852
166.564
170.279
173.69
176.51
178.513
179.549
179.55
178.529
176.565
173.792
170.382
166.527
162.42
158.244
154.162
150.327
146.88
143.956
141.665
140.074
139.169
138.851
138.945
139.245
139.564
139.785
139.869
139.842
139.758
139.668
139.604
139.572
139.563
139.562
139.558
139.542
139.515
139.481
139.446
139.415
139.39
150.702
150.906
151.036
151.197
151.352
151.486
151.571
151.585
151.526
151.425
151.363
151.464
151.889
152.804
154.343
156.571
159.457
162.866
166.567
170.273
173.676
176.491
178.493
179.53
179.534
178.516
176.556
173.788
170.382
166.53
162.424
158.246
154.164
150.33
146.887
143.969
141.685
140.095
139.185
138.857
138.939
139.229
139.546
139.771
139.863
139.842
139.762
139.673
139.607
139.573
139.562
139.561
139.556
139.541
139.514
139.481
139.446
139.416
139.391
139.373
150.829
151.055
151.195
151.354
151.484
151.566
151.576
151.514
151.414
151.356
151.464
151.898
152.822
154.366
156.596
159.479
162.879
166.571
170.267
173.662
176.473
178.473
179.511
179.517
178.503
176.547
173.783
170.381
166.532
162.427
158.249
154.166
150.333
146.894
143.983
141.704
140.115
139.201
138.862
138.932
139.214
139.529
139.758
139.857
139.843
139.766
139.678
139.611
139.574
139.562
139.56
139.555
139.54
139.514
139.481
139.447
139.416
139.391
139.373
139.36
150.972
151.216
151.351
151.483
151.56
151.567
151.503
151.403
151.348
151.464
151.907
152.839
154.39
156.621
159.5
162.893
166.574
170.261
173.649
176.455
178.453
179.492
179.5
178.49
176.538
173.779
170.381
166.534
162.43
158.251
154.168
150.337
146.902
143.996
141.722
140.135
139.216
138.867
138.926
139.2
139.512
139.745
139.85
139.843
139.77
139.682
139.614
139.576
139.562
139.559
139.554
139.539
139.514
139.481
139.447
139.417
139.392
139.373
139.36
139.35
151.127
151.372
151.477
151.555
151.558
151.492
151.393
151.342
151.464
151.916
152.856
154.413
156.645
159.521
162.906
166.578
170.255
173.635
176.437
178.434
179.472
179.484
178.476
176.529
173.774
170.38
166.536
162.433
158.254
154.171
150.341
146.91
144.01
141.74
140.154
139.23
138.873
138.921
139.186
139.496
139.731
139.843
139.842
139.773
139.687
139.618
139.577
139.562
139.558
139.552
139.538
139.513
139.482
139.448
139.417
139.392
139.374
139.36
139.35
139.341
151.281
151.496
151.545
151.55
151.48
151.382
151.335
151.465
151.925
152.874
154.435
156.669
159.541
162.919
166.582
170.25
173.622
176.419
178.414
179.453
179.467
178.463
176.52
173.769
170.379
166.537
162.435
158.257
154.173
150.345
146.919
144.023
141.758
140.172
139.244
138.878
138.916
139.173
139.48
139.718
139.836
139.841
139.777
139.692
139.621
139.579
139.562
139.557
139.551
139.537
139.513
139.482
139.448
139.418
139.393
139.374
139.36
139.35
139.341
139.33
151.414
151.56
151.536
151.471
151.372
151.329
151.465
151.934
152.891
154.458
156.693
159.562
162.933
166.586
170.244
173.609
176.401
178.394
179.434
179.45
178.45
176.511
173.765
170.378
166.539
162.438
158.259
154.176
150.35
146.927
144.037
141.776
140.19
139.257
138.883
138.911
139.161
139.465
139.705
139.829
139.84
139.78
139.696
139.625
139.581
139.562
139.556
139.55
139.536
139.513
139.482
139.449
139.418
139.393
139.374
139.36
139.35
139.341
139.33
139.316
151.499
151.544
151.455
151.363
151.323
151.466
151.943
152.907
154.48
156.716
159.582
162.946
166.59
170.239
173.596
176.384
178.375
179.415
179.434
178.437
176.503
173.76
170.377
166.54
162.44
158.262
154.18
150.355
146.936
144.05
141.793
140.207
139.271
138.888
138.906
139.149
139.45
139.693
139.821
139.838
139.782
139.7
139.628
139.583
139.562
139.555
139.548
139.535
139.512
139.482
139.449
139.418
139.393
139.374
139.361
139.35
139.34
139.329
139.316
139.299
151.515
151.455
151.35
151.318
151.466
151.952
152.924
154.502
156.74
159.602
162.959
166.595
170.234
173.584
176.366
178.355
179.396
179.417
178.424
176.494
173.755
170.376
166.541
162.442
158.264
154.183
150.361
146.945
144.064
141.81
140.224
139.283
138.892
138.902
139.137
139.436
139.68
139.814
139.837
139.785
139.704
139.632
139.585
139.562
139.554
139.547
139.534
139.512
139.482
139.449
139.419
139.394
139.375
139.361
139.35
139.34
139.329
139.316
139.299
139.28
151.461
151.342
151.31
151.468
151.961
152.941
154.524
156.763
159.622
162.972
166.599
170.23
173.571
176.349
178.335
179.377
179.4
178.411
176.485
173.751
170.375
166.542
162.444
158.267
154.187
150.366
146.954
144.077
141.826
140.241
139.296
138.897
138.898
139.126
139.422
139.668
139.806
139.834
139.787
139.708
139.636
139.587
139.562
139.553
139.546
139.533
139.511
139.482
139.45
139.419
139.394
139.375
139.361
139.35
139.34
139.329
139.315
139.299
139.28
139.261
151.369
151.3
151.469
151.97
152.957
154.545
156.785
159.642
162.985
166.603
170.225
173.559
176.332
178.316
179.358
179.384
178.398
176.476
173.746
170.373
166.543
162.446
158.27
154.19
150.372
146.964
144.091
141.843
140.257
139.308
138.902
138.894
139.116
139.408
139.655
139.798
139.832
139.789
139.712
139.639
139.589
139.563
139.552
139.545
139.532
139.511
139.482
139.45
139.42
139.395
139.375
139.361
139.35
139.34
139.329
139.315
139.299
139.28
139.261
139.244
151.31
151.464
151.98
152.973
154.566
156.808
159.661
162.998
166.608
170.22
173.547
176.314
178.297
179.339
179.367
178.385
176.467
173.741
170.372
166.544
162.448
158.273
154.194
150.378
146.973
144.104
141.859
140.273
139.319
138.907
138.891
139.106
139.395
139.643
139.79
139.83
139.79
139.716
139.643
139.591
139.563
139.552
139.544
139.531
139.51
139.482
139.45
139.42
139.395
139.375
139.361
139.35
139.34
139.328
139.315
139.298
139.28
139.261
139.245
139.231
151.398
151.992
152.99
154.587
156.83
159.681
163.011
166.612
170.216
173.535
176.297
178.277
179.32
179.35
178.372
176.458
173.736
170.37
166.544
162.45
158.276
154.199
150.385
146.983
144.118
141.874
140.288
139.331
138.911
138.887
139.096
139.382
139.631
139.782
139.827
139.792
139.719
139.646
139.593
139.564
139.551
139.543
139.53
139.509
139.482
139.451
139.421
139.395
139.376
139.361
139.35
139.339
139.328
139.315
139.298
139.28
139.262
139.245
139.231
139.222
151.772
153.033
154.605
156.852
159.7
163.024
166.616
170.212
173.524
176.281
178.258
179.301
179.334
178.359
176.449
173.731
170.368
166.545
162.452
158.279
154.203
150.391
146.993
144.131
141.89
140.303
139.342
138.916
138.884
139.086
139.37
139.62
139.775
139.824
139.793
139.723
139.65
139.596
139.565
139.55
139.542
139.529
139.509
139.482
139.451
139.421
139.396
139.376
139.361
139.35
139.339
139.328
139.314
139.298
139.28
139.262
139.245
139.232
139.222
139.215
152.576
154.697
156.864
159.72
163.037
166.621
170.208
173.512
176.264
178.239
179.282
179.317
178.346
176.44
173.726
170.366
166.545
162.454
158.282
154.207
150.398
147.003
144.144
141.905
140.318
139.353
138.92
138.881
139.077
139.357
139.608
139.767
139.821
139.794
139.726
139.653
139.598
139.566
139.55
139.541
139.528
139.508
139.481
139.451
139.422
139.396
139.376
139.361
139.35
139.339
139.328
139.314
139.298
139.28
139.262
139.245
139.232
139.222
139.215
139.209
153.929
157.019
159.718
163.053
166.625
170.204
173.5
176.247
178.22
179.263
179.3
178.333
176.431
173.721
170.364
166.546
162.456
158.285
154.212
150.405
147.013
144.158
141.921
140.333
139.364
138.924
138.878
139.068
139.345
139.597
139.759
139.817
139.795
139.729
139.657
139.6
139.567
139.55
139.54
139.527
139.508
139.481
139.451
139.422
139.397
139.376
139.361
139.35
139.339
139.327
139.314
139.298
139.28
139.262
139.246
139.232
139.222
139.215
139.209
139.202
155.894
159.946
163.029
166.636
170.199
173.489
176.231
178.201
179.245
179.284
178.32
176.422
173.715
170.362
166.546
162.458
158.288
154.217
150.412
147.024
144.171
141.936
140.347
139.374
138.928
138.875
139.059
139.334
139.586
139.751
139.814
139.795
139.732
139.66
139.603
139.568
139.549
139.539
139.526
139.507
139.481
139.452
139.422
139.397
139.377
139.361
139.349
139.339
139.327
139.314
139.298
139.28
139.262
139.246
139.232
139.222
139.215
139.209
139.202
139.193
158.46
163.335
166.585
170.205
173.476
176.215
178.182
179.226
179.267
178.307
176.413
173.71
170.36
166.546
162.46
158.291
154.221
150.42
147.034
144.184
141.95
140.361
139.384
138.933
138.873
139.051
139.322
139.574
139.743
139.81
139.796
139.735
139.664
139.605
139.569
139.549
139.538
139.525
139.506
139.481
139.452
139.423
139.397
139.377
139.362
139.349
139.339
139.327
139.313
139.297
139.28
139.262
139.246
139.233
139.223
139.215
139.209
139.202
139.193
139.181
161.533
166.964
170.127
173.48
176.196
178.164
179.207
179.251
178.293
176.404
173.705
170.358
166.546
162.461
158.294
154.226
150.427
147.044
144.197
141.965
140.375
139.395
138.937
138.87
139.043
139.311
139.564
139.735
139.807
139.796
139.737
139.667
139.608
139.57
139.549
139.537
139.524
139.506
139.481
139.452
139.423
139.398
139.377
139.362
139.349
139.338
139.327
139.313
139.297
139.28
139.262
139.246
139.233
139.223
139.215
139.209
139.201
139.192
139.181
139.167
164.939
170.564
173.376
176.198
178.142
179.189
179.234
178.28
176.394
173.699
170.356
166.546
162.463
158.297
154.232
150.435
147.055
144.21
141.979
140.388
139.404
138.941
138.867
139.035
139.3
139.553
139.727
139.803
139.796
139.74
139.67
139.61
139.571
139.549
139.536
139.523
139.505
139.48
139.452
139.424
139.398
139.378
139.362
139.349
139.338
139.326
139.313
139.297
139.28
139.262
139.246
139.233
139.223
139.215
139.209
139.201
139.192
139.18
139.167
139.152
168.448
173.848
176.076
178.146
179.166
179.218
178.267
176.385
173.694
170.353
166.546
162.465
158.301
154.237
150.442
147.065
144.223
141.994
140.401
139.414
138.945
138.865
139.027
139.29
139.542
139.719
139.799
139.796
139.742
139.673
139.613
139.572
139.549
139.535
139.522
139.504
139.48
139.452
139.424
139.399
139.378
139.362
139.349
139.338
139.326
139.313
139.297
139.28
139.262
139.247
139.233
139.223
139.215
139.208
139.201
139.192
139.18
139.167
139.153
139.139
171.795
176.552
178.013
179.173
179.196
178.255
176.376
173.688
170.351
166.546
162.467
158.304
154.242
150.45
147.076
144.236
142.008
140.414
139.424
138.949
138.863
139.019
139.279
139.532
139.711
139.795
139.795
139.744
139.676
139.616
139.574
139.549
139.535
139.521
139.504
139.48
139.452
139.424
139.399
139.378
139.362
139.349
139.338
139.326
139.312
139.297
139.28
139.263
139.247
139.234
139.223
139.215
139.208
139.201
139.192
139.18
139.167
139.153
139.139
139.128
174.722
178.46
179.04
179.207
178.235
176.367
173.682
170.348
166.546
162.468
158.308
154.248
150.458
147.086
144.249
142.022
140.427
139.433
138.953
138.861
139.012
139.269
139.522
139.703
139.791
139.795
139.746
139.679
139.618
139.575
139.549
139.534
139.521
139.503
139.48
139.452
139.425
139.399
139.378
139.362
139.349
139.338
139.326
139.312
139.297
139.28
139.263
139.247
139.234
139.223
139.215
139.208
139.201
139.191
139.18
139.167
139.153
139.14
139.128
139.12
176.998
179.425
179.085
178.248
176.352
173.678
170.345
166.546
162.47
158.311
154.253
150.466
147.097
144.262
142.036
140.44
139.442
138.957
138.859
139.005
139.259
139.512
139.696
139.786
139.794
139.748
139.682
139.621
139.576
139.55
139.533
139.52
139.502
139.479
139.452
139.425
139.4
139.379
139.362
139.349
139.338
139.326
139.312
139.296
139.28
139.263
139.247
139.234
139.224
139.215
139.208
139.201
139.191
139.18
139.167
139.153
139.14
139.129
139.12
139.113
178.445
179.377
178.146
176.366
173.666
170.344
166.545
162.472
158.315
154.259
150.474
147.108
144.275
142.049
140.452
139.451
138.96
138.857
138.998
139.249
139.502
139.688
139.782
139.793
139.75
139.685
139.623
139.578
139.55
139.533
139.519
139.502
139.479
139.452
139.425
139.4
139.379
139.362
139.349
139.337
139.325
139.312
139.296
139.28
139.263
139.247
139.234
139.224
139.215
139.208
139.2
139.191
139.18
139.167
139.153
139.14
139.129
139.12
139.113
139.108
178.956
178.324
176.291
173.679
170.336
166.546
162.473
158.318
154.265
150.482
147.119
144.288
142.063
140.465
139.46
138.964
138.855
138.991
139.24
139.492
139.68
139.778
139.792
139.752
139.687
139.626
139.579
139.55
139.532
139.518
139.501
139.479
139.453
139.425
139.4
139.379
139.363
139.349
139.337
139.325
139.312
139.296
139.28
139.263
139.248
139.234
139.224
139.215
139.208
139.2
139.191
139.18
139.167
139.153
139.14
139.129
139.12
139.113
139.107
139.103
178.494
176.339
173.637
170.347
166.542
162.476
158.322
154.271
150.491
147.129
144.301
142.076
140.477
139.469
138.968
138.853
138.985
139.23
139.482
139.673
139.773
139.791
139.753
139.69
139.628
139.581
139.551
139.532
139.517
139.5
139.478
139.453
139.426
139.401
139.38
139.363
139.349
139.337
139.325
139.311
139.296
139.28
139.263
139.248
139.235
139.224
139.215
139.208
139.2
139.191
139.179
139.166
139.153
139.14
139.129
139.12
139.113
139.107
139.103
139.102
177.091
173.551
170.339
166.548
162.476
158.327
154.276
150.499
147.14
144.314
142.09
140.489
139.477
138.971
138.851
138.978
139.221
139.473
139.665
139.769
139.79
139.754
139.693
139.631
139.582
139.551
139.532
139.516
139.499
139.478
139.452
139.426
139.401
139.38
139.363
139.349
139.337
139.325
139.311
139.296
139.28
139.263
139.248
139.235
139.224
139.215
139.208
139.2
139.19
139.179
139.166
139.153
139.14
139.129
139.12
139.113
139.107
139.103
139.103
139.109
174.835
170.123
166.575
162.476
158.329
154.283
150.507
147.151
144.326
142.103
140.501
139.486
138.975
138.849
138.972
139.212
139.464
139.657
139.764
139.789
139.756
139.695
139.633
139.584
139.552
139.531
139.516
139.499
139.477
139.452
139.426
139.401
139.38
139.363
139.349
139.337
139.325
139.311
139.296
139.28
139.263
139.248
139.235
139.224
139.216
139.208
139.2
139.19
139.179
139.166
139.153
139.141
139.129
139.12
139.112
139.106
139.103
139.103
139.11
139.126
171.863
166.242
162.536
158.325
154.29
150.516
147.162
144.339
142.116
140.513
139.494
138.979
138.847
138.966
139.203
139.454
139.65
139.76
139.788
139.757
139.697
139.635
139.586
139.552
139.531
139.515
139.498
139.477
139.452
139.426
139.402
139.38
139.363
139.349
139.337
139.324
139.311
139.296
139.28
139.263
139.248
139.235
139.224
139.216
139.208
139.2
139.19
139.179
139.166
139.153
139.141
139.13
139.12
139.112
139.106
139.103
139.103
139.111
139.127
139.149
168.339
162.105
158.414
154.28
150.527
147.173
144.352
142.129
140.524
139.503
138.982
138.846
138.96
139.194
139.445
139.642
139.755
139.786
139.758
139.7
139.638
139.587
139.553
139.531
139.514
139.497
139.477
139.452
139.427
139.402
139.381
139.363
139.349
139.337
139.324
139.311
139.296
139.28
139.263
139.248
139.235
139.224
139.216
139.208
139.199
139.19
139.179
139.166
139.153
139.141
139.13
139.12
139.112
139.106
139.103
139.104
139.112
139.127
139.149
139.171
164.448
157.908
154.394
150.514
147.187
144.363
142.142
140.536
139.511
138.986
138.844
138.954
139.186
139.436
139.635
139.751
139.785
139.759
139.702
139.64
139.589
139.554
139.531
139.514
139.497
139.476
139.452
139.427
139.402
139.381
139.364
139.349
139.337
139.324
139.31
139.295
139.279
139.263
139.248
139.235
139.225
139.216
139.208
139.199
139.19
139.179
139.166
139.153
139.141
139.13
139.12
139.112
139.106
139.103
139.104
139.113
139.128
139.149
139.169
139.181
160.381
153.84
150.646
147.172
144.381
142.154
140.547
139.519
138.989
138.843
138.948
139.178
139.427
139.627
139.746
139.783
139.759
139.704
139.642
139.591
139.554
139.531
139.513
139.496
139.476
139.452
139.427
139.403
139.381
139.364
139.349
139.336
139.324
139.31
139.295
139.279
139.264
139.249
139.236
139.225
139.216
139.208
139.199
139.19
139.179
139.166
139.153
139.141
139.13
139.12
139.112
139.106
139.103
139.105
139.113
139.129
139.149
139.168
139.179
139.178
156.327
150.072
147.317
144.364
142.173
140.557
139.527
138.993
138.841
138.942
139.169
139.418
139.62
139.741
139.781
139.76
139.706
139.645
139.592
139.555
139.53
139.513
139.495
139.475
139.452
139.427
139.403
139.382
139.364
139.349
139.336
139.324
139.31
139.295
139.279
139.264
139.249
139.236
139.225
139.216
139.207
139.199
139.189
139.179
139.166
139.154
139.141
139.13
139.12
139.111
139.105
139.103
139.105
139.114
139.129
139.149
139.167
139.178
139.177
139.165
152.469
146.749
144.513
142.153
140.574
139.532
138.996
138.84
138.937
139.161
139.41
139.613
139.737
139.78
139.761
139.708
139.647
139.594
139.556
139.531
139.512
139.495
139.475
139.452
139.427
139.403
139.382
139.364
139.349
139.336
139.324
139.31
139.295
139.279
139.264
139.249
139.236
139.225
139.216
139.207
139.199
139.189
139.178
139.166
139.154
139.141
139.13
139.12
139.111
139.105
139.103
139.106
139.115
139.13
139.149
139.167
139.177
139.177
139.165
139.144
148.922
143.969
142.299
140.557
139.554
139.003
138.843
138.933
139.154
139.401
139.604
139.73
139.776
139.76
139.709
139.649
139.595
139.556
139.53
139.511
139.494
139.474
139.451
139.427
139.403
139.382
139.364
139.349
139.336
139.323
139.309
139.295
139.279
139.263
139.249
139.236
139.225
139.215
139.207
139.198
139.189
139.178
139.166
139.153
139.141
139.13
139.12
139.112
139.106
139.103
139.106
139.115
139.13
139.148
139.165
139.175
139.175
139.164
139.142
139.111
146.062
141.876
140.719
139.522
138.99
138.812
138.905
139.131
139.386
139.598
139.731
139.782
139.767
139.717
139.655
139.6
139.56
139.533
139.514
139.496
139.477
139.454
139.429
139.405
139.384
139.366
139.351
139.338
139.325
139.311
139.297
139.281
139.265
139.25
139.237
139.226
139.217
139.209
139.2
139.191
139.18
139.168
139.155
139.142
139.13
139.12
139.111
139.104
139.102
139.105
139.114
139.13
139.149
139.167
139.179
139.181
139.171
139.15
139.116
139.067
142.553
139.851
139.409
138.923
138.888
139.018
139.244
139.47
139.642
139.739
139.765
139.739
139.687
139.63
139.581
139.545
139.52
139.501
139.483
139.462
139.44
139.416
139.394
139.374
139.357
139.343
139.329
139.316
139.302
139.287
139.272
139.257
139.243
139.231
139.221
139.211
139.203
139.194
139.183
139.172
139.16
139.148
139.136
139.125
139.116
139.109
139.105
139.106
139.112
139.124
139.139
139.155
139.168
139.174
139.169
139.152
139.123
139.082
139.03
138.969
)
;

boundaryField
{
    bottomwall
    {
        type            opaque;
        refValue        nonuniform List<scalar> 
60
(
143.314
145.512
146.765
147.544
148.059
148.417
148.677
148.876
149.037
149.173
149.297
149.414
149.527
149.634
149.738
149.84
149.941
150.044
150.149
150.259
150.371
150.484
150.598
150.71
150.821
150.933
151.055
151.198
151.367
151.552
151.724
151.836
151.845
151.746
151.606
151.582
151.904
152.828
154.551
157.149
160.529
164.437
168.513
172.368
175.658
178.133
179.647
180.14
179.609
178.088
175.649
172.413
168.563
164.342
160.034
155.913
152.182
148.911
145.93
142.629
)
;
        refGradient     uniform 0;
        valueFraction   uniform 1;
        source          uniform 0;