/*--------------------------------*- C++ -*----------------------------------*\
| =========                 |                                                 |
| \\      /  F ield         | OpenFOAM: The Open Source CFD Toolbox           |
|  \\    /   O peration     | Version:  2406                                  |
|   \\  /    A nd           | Website:  www.openfoam.com                      |
|    \\/     M anipulation  |                                                 |
\*---------------------------------------------------------------------------*/
FoamFile
{
    version     2.0;
    format      ascii;
    arch        "LSB;label=32;scalar=64";
    class       volScalarField;
    location    "15000";
    object      ILambda_4_0;
}
// * * * * * * * * * * * * * * * * * * * * * * * * * * * * * * * * * * * * * //

dimensions      [1 0 -3 0 0 0 0];

internalField   nonuniform List<scalar> 
3600
(
139.427
140.573
141.839
143.088
144.243
145.269
146.155
146.905
147.53
148.045
148.466
148.807
149.085
149.311
149.495
149.647
149.775
149.886
149.984
150.076
150.165
150.253
150.342
150.432
150.525
150.62
150.719
150.824
150.941
151.072
151.216
151.36
151.488
151.577
151.618
151.628
151.664
151.828
152.25
153.067
154.386
156.257
158.647
161.448
164.488
167.563
170.461
172.988
174.98
176.308
176.881
176.65
175.613
173.818
171.368
168.407
165.13
161.607
158.496
153.214
138.958
138.778
138.772
138.977
139.382
139.955
140.654
141.436
142.264
143.104
143.929
144.719
145.459
146.141
146.76
147.313
147.802
148.229
148.599
148.916
149.188
149.419
149.617
149.786
149.933
150.063
150.178
150.283
150.379
150.471
150.563
150.66
150.767
150.885
151.008
151.125
151.217
151.269
151.278
151.259
151.259
151.346
151.608
152.132
152.991
154.227
155.841
157.796
160.02
162.413
164.856
167.222
169.381
171.21
172.599
173.454
173.75
173.339
172.78
170.1
139.124
139.033
138.896
138.75
138.636
138.59
138.636
138.788
139.052
139.423
139.891
140.442
141.057
141.719
142.411
143.116
143.818
144.504
145.164
145.789
146.373
146.913
147.404
147.848
148.246
148.599
148.91
149.183
149.421
149.628
149.807
149.964
150.105
150.235
150.36
150.483
150.604
150.712
150.797
150.84
150.831
150.767
150.66
150.541
150.456
150.466
150.634
151.022
151.677
152.63
153.891
155.447
157.261
159.274
161.411
163.576
165.675
167.599
169.204
170.956
139.175
139.168
139.142
139.089
139.007
138.901
138.785
138.675
138.59
138.545
138.557
138.636
138.79
139.022
139.332
139.716
140.167
140.676
141.233
141.826
142.443
143.074
143.708
144.334
144.944
145.53
146.088
146.611
147.098
147.547
147.956
148.327
148.659
148.955
149.219
149.456
149.668
149.861
150.035
150.19
150.319
150.415
150.468
150.47
150.42
150.324
150.199
150.071
149.978
149.961
150.067
150.339
150.815
151.524
152.481
153.69
155.117
156.815
158.344
161.373
139.223
139.216
139.212
139.206
139.194
139.168
139.125
139.062
138.98
138.885
138.783
138.684
138.599
138.539
138.514
138.535
138.608
138.74
138.933
139.19
139.509
139.886
140.317
140.795
141.312
141.86
142.429
143.013
143.601
144.186
144.761
145.319
145.855
146.364
146.844
147.291
147.704
148.085
148.434
148.753
149.044
149.308
149.544
149.747
149.912
150.033
150.104
150.123
150.09
150.013
149.906
149.79
149.693
149.647
149.685
149.848
150.149
150.692
151.194
152.831
139.309
139.294
139.281
139.27
139.262
139.256
139.248
139.236
139.215
139.183
139.137
139.077
139.002
138.916
138.823
138.729
138.641
138.566
138.514
138.492
138.506
138.564
138.67
138.828
139.04
139.305
139.623
139.991
140.403
140.857
141.344
141.859
142.394
142.943
143.498
144.052
144.6
145.135
145.652
146.149
146.622
147.07
147.492
147.887
148.254
148.59
148.893
149.158
149.379
149.552
149.672
149.737
149.75
149.716
149.645
149.557
149.463
149.417
149.356
149.586
139.416
139.399
139.383
139.366
139.351
139.337
139.325
139.315
139.306
139.297
139.286
139.271
139.248
139.215
139.172
139.117
139.049
138.971
138.886
138.796
138.707
138.624
138.553
138.501
138.474
138.478
138.519
138.6
138.725
138.897
139.117
139.385
139.698
140.055
140.453
140.886
141.35
141.839
142.348
142.869
143.397
143.927
144.453
144.971
145.478
145.97
146.444
146.897
147.326
147.727
148.094
148.424
148.709
148.946
149.13
149.26
149.336
149.361
149.351
149.271
139.478
139.472
139.464
139.454
139.443
139.43
139.417
139.403
139.39
139.379
139.368
139.358
139.349
139.339
139.327
139.311
139.288
139.258
139.219
139.17
139.11
139.041
138.963
138.878
138.791
138.705
138.624
138.553
138.498
138.464
138.456
138.479
138.537
138.633
138.77
138.95
139.173
139.439
139.747
140.095
140.478
140.894
141.339
141.806
142.292
142.792
143.301
143.815
144.328
144.838
145.34
145.829
146.301
146.751
147.173
147.561
147.909
148.214
148.454
148.734
139.442
139.454
139.462
139.468
139.472
139.472
139.47
139.466
139.459
139.451
139.442
139.433
139.423
139.414
139.406
139.398
139.389
139.38
139.368
139.353
139.333
139.306
139.272
139.23
139.178
139.116
139.047
138.969
138.887
138.801
138.716
138.635
138.563
138.504
138.462
138.442
138.448
138.484
138.554
138.661
138.805
138.989
139.213
139.477
139.778
140.115
140.486
140.888
141.316
141.767
142.237
142.723
143.22
143.723
144.228
144.731
145.223
145.715
146.123
146.794
139.321
139.344
139.365
139.385
139.404
139.42
139.433
139.444
139.453
139.459
139.463
139.464
139.463
139.46
139.457
139.452
139.447
139.441
139.435
139.43
139.423
139.416
139.406
139.393
139.377
139.355
139.326
139.29
139.246
139.193
139.132
139.063
138.987
138.906
138.822
138.738
138.656
138.582
138.518
138.468
138.437
138.428
138.445
138.492
138.57
138.683
138.832
139.017
139.24
139.499
139.794
140.123
140.483
140.874
141.29
141.731
142.188
142.68
143.096
143.894
139.183
139.204
139.226
139.249
139.272
139.295
139.317
139.339
139.36
139.379
139.396
139.411
139.424
139.435
139.444
139.451
139.455
139.458
139.459
139.459
139.458
139.457
139.455
139.452
139.449
139.444
139.438
139.429
139.416
139.399
139.376
139.347
139.311
139.267
139.215
139.155
139.087
139.013
138.934
138.851
138.768
138.686
138.609
138.54
138.483
138.442
138.419
138.419
138.445
138.498
138.583
138.699
138.85
139.036
139.256
139.512
139.798
140.136
140.426
141.067
139.092
139.103
139.116
139.131
139.147
139.165
139.185
139.205
139.226
139.248
139.27
139.292
139.314
139.334
139.354
139.372
139.388
139.403
139.416
139.427
139.436
139.444
139.45
139.455
139.459
139.462
139.464
139.465
139.465
139.464
139.461
139.456
139.448
139.436
139.42
139.398
139.369
139.334
139.291
139.241
139.183
139.117
139.045
138.968
138.887
138.804
138.722
138.643
138.57
138.507
138.457
138.422
138.406
138.413
138.444
138.503
138.589
138.718
138.832
139.162
139.07
139.07
139.071
139.075
139.08
139.087
139.095
139.106
139.119
139.133
139.149
139.167
139.186
139.205
139.226
139.247
139.268
139.289
139.309
139.329
139.347
139.365
139.381
139.395
139.409
139.42
139.431
139.44
139.448
139.455
139.461
139.466
139.471
139.473
139.475
139.474
139.471
139.464
139.454
139.439
139.418
139.392
139.358
139.317
139.269
139.213
139.15
139.081
139.006
138.927
138.845
138.763
138.683
138.607
138.538
138.48
138.434
138.408
138.388
138.429
139.09
139.085
139.08
139.076
139.073
139.071
139.07
139.071
139.073
139.076
139.082
139.089
139.098
139.109
139.121
139.135
139.151
139.168
139.186
139.205
139.225
139.245
139.265
139.285
139.304
139.323
139.341
139.358
139.374
139.389
139.403
139.416
139.428
139.439
139.449
139.458
139.466
139.472
139.478
139.482
139.483
139.482
139.478
139.469
139.456
139.438
139.413
139.382
139.344
139.298
139.246
139.186
139.119
139.047
138.97
138.89
138.809
138.727
138.656
138.546
139.119
139.115
139.11
139.104
139.099
139.093
139.088
139.083
139.079
139.076
139.073
139.071
139.071
139.072
139.074
139.078
139.084
139.091
139.1
139.111
139.123
139.137
139.152
139.169
139.186
139.205
139.223
139.243
139.262
139.281
139.3
139.318
139.336
139.353
139.369
139.385
139.399
139.413
139.427
139.439
139.451
139.461
139.471
139.479
139.485
139.489
139.49
139.488
139.482
139.471
139.455
139.433
139.405
139.37
139.328
139.278
139.223
139.157
139.1
138.977
139.139
139.136
139.133
139.13
139.126
139.122
139.118
139.113
139.108
139.102
139.097
139.092
139.087
139.082
139.078
139.075
139.073
139.072
139.071
139.073
139.075
139.08
139.086
139.093
139.102
139.113
139.125
139.138
139.153
139.169
139.186
139.203
139.221
139.24
139.258
139.277
139.295
139.313
139.331
139.348
139.365
139.382
139.397
139.413
139.427
139.441
139.454
139.466
139.476
139.484
139.491
139.494
139.495
139.491
139.483
139.47
139.452
139.425
139.401
139.333
139.148
139.147
139.146
139.144
139.142
139.14
139.138
139.135
139.132
139.129
139.125
139.12
139.116
139.111
139.106
139.101
139.095
139.09
139.086
139.081
139.078
139.075
139.073
139.072
139.072
139.074
139.077
139.081
139.087
139.095
139.104
139.114
139.126
139.139
139.153
139.168
139.185
139.201
139.219
139.237
139.255
139.273
139.291
139.309
139.327
139.345
139.363
139.38
139.397
139.413
139.429
139.444
139.458
139.47
139.481
139.489
139.496
139.498
139.5
139.487
139.158
139.156
139.154
139.153
139.151
139.15
139.149
139.147
139.146
139.144
139.142
139.14
139.137
139.135
139.131
139.127
139.123
139.119
139.114
139.109
139.104
139.099
139.094
139.089
139.085
139.081
139.077
139.075
139.073
139.073
139.073
139.075
139.078
139.083
139.089
139.096
139.105
139.115
139.126
139.139
139.153
139.168
139.183
139.199
139.216
139.234
139.251
139.27
139.288
139.306
139.325
139.343
139.361
139.379
139.397
139.415
139.431
139.447
139.46
139.479
139.18
139.175
139.171
139.168
139.165
139.162
139.16
139.157
139.156
139.154
139.153
139.151
139.15
139.148
139.146
139.144
139.142
139.14
139.137
139.134
139.13
139.126
139.122
139.118
139.113
139.108
139.103
139.098
139.093
139.088
139.084
139.08
139.077
139.075
139.074
139.073
139.074
139.076
139.079
139.084
139.09
139.097
139.105
139.115
139.126
139.139
139.152
139.166
139.181
139.197
139.214
139.231
139.249
139.267
139.285
139.304
139.323
139.342
139.359
139.389
139.221
139.213
139.206
139.199
139.193
139.187
139.182
139.178
139.174
139.17
139.167
139.164
139.161
139.159
139.157
139.155
139.154
139.152
139.15
139.148
139.146
139.144
139.142
139.139
139.136
139.133
139.129
139.125
139.121
139.116
139.111
139.107
139.102
139.097
139.092
139.088
139.083
139.08
139.077
139.075
139.074
139.074
139.075
139.077
139.08
139.085
139.09
139.097
139.106
139.115
139.126
139.138
139.151
139.165
139.179
139.195
139.211
139.229
139.244
139.274
139.283
139.272
139.262
139.252
139.242
139.233
139.225
139.217
139.209
139.202
139.196
139.19
139.185
139.18
139.176
139.172
139.169
139.166
139.163
139.161
139.159
139.157
139.155
139.153
139.151
139.149
139.147
139.144
139.142
139.139
139.136
139.132
139.128
139.124
139.12
139.115
139.11
139.105
139.101
139.096
139.091
139.087
139.083
139.08
139.077
139.075
139.074
139.074
139.075
139.077
139.081
139.085
139.091
139.098
139.106
139.115
139.125
139.137
139.148
139.171
139.358
139.345
139.333
139.321
139.31
139.298
139.287
139.276
139.265
139.255
139.246
139.237
139.228
139.22
139.212
139.205
139.199
139.193
139.188
139.183
139.179
139.175
139.171
139.168
139.165
139.163
139.16
139.158
139.156
139.154
139.152
139.149
139.147
139.144
139.141
139.138
139.135
139.131
139.127
139.123
139.119
139.114
139.109
139.104
139.1
139.095
139.091
139.086
139.083
139.08
139.077
139.076
139.075
139.075
139.076
139.078
139.081
139.086
139.09
139.102
139.43
139.419
139.408
139.397
139.385
139.373
139.361
139.349
139.337
139.325
139.313
139.301
139.29
139.279
139.269
139.259
139.249
139.24
139.231
139.223
139.216
139.209
139.202
139.196
139.191
139.186
139.181
139.177
139.173
139.17
139.167
139.164
139.162
139.159
139.157
139.155
139.152
139.15
139.147
139.144
139.141
139.138
139.134
139.131
139.127
139.122
139.118
139.113
139.108
139.104
139.099
139.094
139.09
139.086
139.083
139.08
139.077
139.076
139.075
139.076
139.484
139.477
139.47
139.461
139.452
139.442
139.432
139.422
139.41
139.399
139.387
139.376
139.364
139.352
139.34
139.328
139.316
139.305
139.294
139.283
139.272
139.262
139.252
139.243
139.235
139.226
139.219
139.212
139.205
139.199
139.193
139.188
139.184
139.18
139.176
139.172
139.169
139.166
139.163
139.161
139.158
139.156
139.153
139.15
139.147
139.144
139.141
139.138
139.134
139.13
139.126
139.121
139.117
139.112
139.108
139.103
139.098
139.094
139.09
139.084
139.504
139.503
139.502
139.499
139.495
139.49
139.484
139.478
139.47
139.462
139.453
139.444
139.434
139.424
139.413
139.402
139.39
139.378
139.367
139.355
139.343
139.331
139.32
139.308
139.297
139.286
139.276
139.266
139.256
139.247
139.238
139.23
139.222
139.215
139.208
139.202
139.196
139.191
139.186
139.182
139.178
139.174
139.171
139.168
139.165
139.162
139.159
139.156
139.154
139.151
139.148
139.144
139.141
139.137
139.134
139.129
139.125
139.121
139.117
139.109
139.485
139.49
139.495
139.498
139.501
139.502
139.503
139.502
139.501
139.498
139.495
139.49
139.485
139.478
139.471
139.463
139.455
139.446
139.436
139.426
139.415
139.404
139.393
139.381
139.369
139.358
139.346
139.334
139.323
139.312
139.3
139.29
139.279
139.269
139.259
139.25
139.241
139.233
139.225
139.218
139.211
139.205
139.199
139.194
139.189
139.185
139.18
139.177
139.173
139.17
139.166
139.163
139.16
139.157
139.154
139.151
139.148
139.144
139.141
139.135
139.428
139.439
139.449
139.459
139.467
139.475
139.482
139.488
139.493
139.496
139.499
139.501
139.502
139.501
139.5
139.498
139.494
139.49
139.485
139.479
139.472
139.464
139.456
139.447
139.437
139.427
139.417
139.406
139.395
139.384
139.372
139.361
139.349
139.338
139.326
139.315
139.304
139.293
139.283
139.272
139.263
139.254
139.245
139.236
139.229
139.221
139.214
139.208
139.202
139.197
139.192
139.187
139.183
139.179
139.175
139.171
139.168
139.165
139.162
139.157
139.346
139.36
139.374
139.387
139.4
139.413
139.425
139.436
139.446
139.456
139.465
139.472
139.479
139.485
139.49
139.494
139.497
139.499
139.5
139.5
139.499
139.497
139.494
139.49
139.485
139.479
139.472
139.465
139.457
139.448
139.439
139.429
139.419
139.408
139.397
139.386
139.375
139.364
139.352
139.341
139.329
139.318
139.307
139.296
139.286
139.276
139.266
139.257
139.248
139.24
139.232
139.224
139.218
139.211
139.205
139.199
139.194
139.189
139.185
139.179
139.254
139.269
139.284
139.299
139.313
139.328
139.342
139.357
139.371
139.384
139.397
139.41
139.421
139.433
139.443
139.453
139.462
139.47
139.477
139.483
139.488
139.492
139.496
139.498
139.499
139.499
139.498
139.496
139.493
139.49
139.485
139.479
139.473
139.466
139.458
139.45
139.441
139.431
139.421
139.411
139.4
139.389
139.378
139.366
139.355
139.344
139.332
139.321
139.31
139.3
139.289
139.279
139.27
139.26
139.252
139.243
139.235
139.228
139.221
139.211
139.169
139.182
139.195
139.209
139.223
139.237
139.251
139.266
139.281
139.295
139.31
139.325
139.339
139.353
139.367
139.381
139.394
139.406
139.418
139.429
139.44
139.45
139.459
139.467
139.474
139.481
139.486
139.49
139.494
139.496
139.497
139.498
139.497
139.496
139.493
139.489
139.485
139.48
139.474
139.467
139.459
139.451
139.442
139.433
139.423
139.413
139.402
139.391
139.38
139.369
139.358
139.347
139.336
139.325
139.314
139.303
139.293
139.282
139.274
139.259
139.102
139.111
139.121
139.132
139.143
139.155
139.167
139.179
139.193
139.206
139.22
139.234
139.248
139.263
139.277
139.292
139.307
139.321
139.336
139.35
139.364
139.377
139.39
139.403
139.415
139.426
139.437
139.447
139.456
139.464
139.472
139.478
139.484
139.488
139.492
139.494
139.496
139.497
139.496
139.495
139.492
139.489
139.485
139.48
139.474
139.467
139.46
139.452
139.444
139.434
139.425
139.415
139.404
139.394
139.383
139.372
139.361
139.349
139.34
139.322
139.058
139.063
139.07
139.076
139.084
139.092
139.1
139.109
139.119
139.13
139.141
139.152
139.164
139.177
139.19
139.203
139.217
139.231
139.245
139.26
139.274
139.289
139.304
139.318
139.332
139.347
139.36
139.374
139.387
139.4
139.412
139.423
139.434
139.444
139.453
139.462
139.469
139.476
139.481
139.486
139.49
139.493
139.495
139.495
139.495
139.494
139.492
139.489
139.485
139.48
139.474
139.468
139.461
139.453
139.445
139.436
139.427
139.416
139.408
139.391
139.037
139.039
139.041
139.044
139.048
139.052
139.057
139.062
139.068
139.075
139.082
139.09
139.098
139.107
139.117
139.128
139.138
139.15
139.162
139.174
139.187
139.2
139.214
139.228
139.242
139.257
139.271
139.286
139.3
139.315
139.329
139.343
139.357
139.371
139.384
139.396
139.409
139.42
139.431
139.441
139.45
139.459
139.467
139.473
139.479
139.484
139.488
139.491
139.493
139.494
139.494
139.493
139.491
139.488
139.485
139.48
139.475
139.468
139.463
139.45
139.035
139.034
139.034
139.034
139.034
139.035
139.036
139.038
139.041
139.043
139.047
139.051
139.056
139.061
139.067
139.073
139.08
139.088
139.097
139.106
139.115
139.125
139.136
139.148
139.159
139.172
139.185
139.198
139.211
139.225
139.239
139.254
139.268
139.282
139.297
139.311
139.326
139.34
139.354
139.367
139.38
139.393
139.405
139.417
139.428
139.438
139.447
139.456
139.464
139.471
139.477
139.482
139.486
139.489
139.491
139.493
139.493
139.492
139.491
139.486
139.045
139.043
139.041
139.039
139.037
139.036
139.034
139.034
139.033
139.033
139.034
139.034
139.036
139.037
139.04
139.043
139.046
139.05
139.054
139.06
139.065
139.072
139.079
139.086
139.095
139.104
139.113
139.123
139.134
139.145
139.157
139.169
139.182
139.195
139.208
139.222
139.236
139.25
139.265
139.279
139.294
139.308
139.322
139.337
139.35
139.364
139.377
139.39
139.402
139.414
139.425
139.435
139.445
139.453
139.461
139.468
139.475
139.48
139.484
139.489
139.063
139.06
139.057
139.054
139.051
139.048
139.045
139.043
139.041
139.039
139.037
139.035
139.034
139.033
139.033
139.033
139.033
139.034
139.035
139.037
139.039
139.042
139.045
139.049
139.053
139.058
139.064
139.07
139.077
139.085
139.093
139.102
139.111
139.121
139.132
139.143
139.155
139.167
139.179
139.192
139.206
139.219
139.233
139.247
139.262
139.276
139.291
139.305
139.319
139.333
139.347
139.361
139.374
139.387
139.399
139.411
139.422
139.432
139.441
139.454
139.086
139.082
139.078
139.075
139.071
139.068
139.064
139.061
139.057
139.054
139.051
139.048
139.046
139.043
139.041
139.039
139.037
139.035
139.034
139.033
139.033
139.033
139.033
139.033
139.035
139.036
139.038
139.041
139.044
139.048
139.052
139.057
139.063
139.069
139.076
139.083
139.091
139.1
139.109
139.119
139.13
139.141
139.152
139.164
139.177
139.19
139.203
139.216
139.23
139.244
139.259
139.273
139.287
139.302
139.316
139.33
139.344
139.358
139.369
139.389
139.111
139.107
139.103
139.099
139.095
139.091
139.087
139.083
139.079
139.076
139.072
139.068
139.065
139.061
139.058
139.055
139.052
139.049
139.046
139.043
139.041
139.039
139.037
139.035
139.034
139.033
139.032
139.032
139.032
139.033
139.034
139.035
139.037
139.04
139.043
139.047
139.051
139.056
139.061
139.068
139.074
139.082
139.09
139.098
139.107
139.117
139.127
139.138
139.15
139.162
139.174
139.187
139.2
139.214
139.227
139.241
139.255
139.27
139.282
139.305
139.139
139.134
139.13
139.125
139.121
139.117
139.112
139.108
139.104
139.1
139.096
139.092
139.088
139.084
139.08
139.076
139.073
139.069
139.065
139.062
139.058
139.055
139.052
139.049
139.046
139.044
139.041
139.039
139.037
139.035
139.034
139.033
139.032
139.032
139.032
139.032
139.033
139.035
139.037
139.039
139.042
139.046
139.05
139.055
139.06
139.066
139.073
139.08
139.088
139.096
139.105
139.115
139.125
139.136
139.147
139.159
139.171
139.185
139.196
139.218
139.169
139.164
139.159
139.154
139.15
139.145
139.14
139.136
139.131
139.127
139.122
139.118
139.114
139.109
139.105
139.101
139.097
139.093
139.089
139.085
139.081
139.077
139.073
139.07
139.066
139.062
139.059
139.056
139.053
139.049
139.047
139.044
139.041
139.039
139.037
139.035
139.034
139.033
139.032
139.032
139.032
139.032
139.033
139.034
139.036
139.038
139.041
139.045
139.049
139.054
139.059
139.065
139.071
139.078
139.086
139.094
139.103
139.113
139.122
139.14
139.202
139.196
139.191
139.186
139.181
139.176
139.171
139.166
139.161
139.156
139.151
139.146
139.142
139.137
139.133
139.128
139.124
139.119
139.115
139.111
139.106
139.102
139.098
139.094
139.09
139.086
139.082
139.078
139.074
139.07
139.067
139.063
139.06
139.056
139.053
139.05
139.047
139.044
139.042
139.039
139.037
139.035
139.034
139.033
139.032
139.031
139.031
139.032
139.032
139.034
139.035
139.038
139.041
139.044
139.048
139.052
139.058
139.064
139.069
139.081
139.236
139.23
139.225
139.219
139.214
139.209
139.203
139.198
139.193
139.187
139.182
139.177
139.172
139.167
139.162
139.157
139.153
139.148
139.143
139.139
139.134
139.13
139.125
139.121
139.116
139.112
139.108
139.103
139.099
139.095
139.091
139.087
139.083
139.079
139.075
139.071
139.067
139.064
139.06
139.057
139.053
139.05
139.047
139.044
139.042
139.039
139.037
139.035
139.034
139.033
139.032
139.031
139.031
139.031
139.032
139.033
139.035
139.037
139.039
139.045
139.27
139.265
139.259
139.254
139.248
139.243
139.237
139.232
139.226
139.221
139.216
139.21
139.205
139.2
139.194
139.189
139.184
139.179
139.174
139.169
139.164
139.159
139.154
139.149
139.145
139.14
139.135
139.131
139.126
139.122
139.118
139.113
139.109
139.105
139.1
139.096
139.092
139.088
139.084
139.08
139.076
139.072
139.068
139.064
139.061
139.057
139.054
139.051
139.048
139.045
139.042
139.04
139.037
139.036
139.034
139.033
139.032
139.031
139.031
139.031
139.302
139.297
139.292
139.287
139.282
139.277
139.272
139.266
139.261
139.255
139.25
139.245
139.239
139.234
139.228
139.223
139.217
139.212
139.207
139.201
139.196
139.191
139.186
139.181
139.175
139.17
139.165
139.161
139.156
139.151
139.146
139.142
139.137
139.132
139.128
139.123
139.119
139.114
139.11
139.106
139.101
139.097
139.093
139.089
139.085
139.081
139.077
139.073
139.069
139.065
139.061
139.058
139.055
139.051
139.048
139.045
139.042
139.04
139.038
139.035
139.33
139.326
139.322
139.317
139.313
139.308
139.304
139.299
139.294
139.289
139.284
139.278
139.273
139.268
139.262
139.257
139.252
139.246
139.241
139.235
139.23
139.224
139.219
139.214
139.208
139.203
139.198
139.192
139.187
139.182
139.177
139.172
139.167
139.162
139.157
139.152
139.148
139.143
139.138
139.134
139.129
139.125
139.12
139.116
139.111
139.107
139.103
139.098
139.094
139.09
139.086
139.082
139.078
139.074
139.07
139.066
139.062
139.058
139.055
139.05
139.349
139.347
139.344
139.341
139.338
139.334
139.331
139.327
139.323
139.318
139.314
139.31
139.305
139.3
139.295
139.29
139.285
139.28
139.275
139.269
139.264
139.259
139.253
139.248
139.242
139.237
139.231
139.226
139.221
139.215
139.21
139.205
139.199
139.194
139.189
139.184
139.179
139.174
139.169
139.164
139.159
139.154
139.149
139.144
139.14
139.135
139.131
139.126
139.121
139.117
139.112
139.108
139.104
139.099
139.095
139.091
139.087
139.082
139.079
139.072
139.359
139.358
139.357
139.355
139.354
139.352
139.35
139.347
139.344
139.341
139.338
139.335
139.331
139.328
139.324
139.32
139.315
139.311
139.306
139.301
139.297
139.292
139.287
139.281
139.276
139.271
139.266
139.26
139.255
139.249
139.244
139.239
139.233
139.228
139.222
139.217
139.212
139.206
139.201
139.196
139.191
139.185
139.18
139.175
139.17
139.165
139.16
139.156
139.151
139.146
139.141
139.137
139.132
139.127
139.123
139.118
139.114
139.109
139.105
139.098
139.361
139.361
139.361
139.361
139.361
139.36
139.359
139.358
139.357
139.356
139.354
139.352
139.35
139.348
139.345
139.342
139.339
139.336
139.332
139.329
139.325
139.321
139.316
139.312
139.307
139.303
139.298
139.293
139.288
139.283
139.278
139.272
139.267
139.262
139.256
139.251
139.246
139.24
139.235
139.229
139.224
139.219
139.213
139.208
139.203
139.197
139.192
139.187
139.182
139.177
139.172
139.167
139.162
139.157
139.152
139.147
139.143
139.138
139.134
139.126
139.359
139.359
139.36
139.36
139.36
139.361
139.361
139.361
139.361
139.361
139.361
139.36
139.359
139.358
139.357
139.356
139.354
139.352
139.35
139.348
139.345
139.343
139.34
139.336
139.333
139.329
139.326
139.322
139.317
139.313
139.309
139.304
139.299
139.294
139.289
139.284
139.279
139.274
139.269
139.263
139.258
139.253
139.247
139.242
139.236
139.231
139.226
139.22
139.215
139.21
139.204
139.199
139.194
139.189
139.184
139.178
139.173
139.168
139.164
139.156
139.356
139.357
139.357
139.357
139.358
139.358
139.359
139.359
139.36
139.36
139.361
139.361
139.361
139.361
139.361
139.361
139.361
139.36
139.36
139.359
139.357
139.356
139.355
139.353
139.351
139.349
139.346
139.343
139.34
139.337
139.334
139.33
139.327
139.323
139.318
139.314
139.31
139.305
139.301
139.296
139.291
139.286
139.281
139.275
139.27
139.265
139.26
139.254
139.249
139.244
139.238
139.233
139.227
139.222
139.217
139.211
139.206
139.201
139.196
139.188
139.354
139.354
139.355
139.355
139.356
139.356
139.356
139.357
139.357
139.358
139.358
139.359
139.359
139.36
139.36
139.361
139.361
139.361
139.361
139.361
139.361
139.361
139.361
139.36
139.36
139.359
139.358
139.356
139.355
139.353
139.351
139.349
139.347
139.344
139.341
139.338
139.335
139.331
139.327
139.324
139.32
139.315
139.311
139.306
139.302
139.297
139.292
139.287
139.282
139.277
139.272
139.267
139.261
139.256
139.251
139.245
139.24
139.234
139.23
139.221
139.346
139.348
139.349
139.351
139.352
139.353
139.353
139.354
139.355
139.355
139.356
139.356
139.357
139.357
139.358
139.358
139.359
139.359
139.36
139.36
139.36
139.361
139.361
139.361
139.362
139.362
139.362
139.361
139.361
139.361
139.36
139.359
139.358
139.357
139.355
139.353
139.352
139.349
139.347
139.344
139.342
139.339
139.335
139.332
139.328
139.325
139.321
139.316
139.312
139.308
139.303
139.298
139.294
139.289
139.284
139.278
139.273
139.268
139.263
139.255
139.323
139.328
139.332
139.336
139.339
139.342
139.344
139.346
139.348
139.35
139.351
139.352
139.353
139.354
139.355
139.355
139.356
139.356
139.357
139.357
139.358
139.358
139.359
139.359
139.36
139.36
139.361
139.361
139.361
139.362
139.362
139.362
139.362
139.362
139.361
139.361
139.36
139.359
139.358
139.357
139.356
139.354
139.352
139.35
139.348
139.345
139.342
139.339
139.336
139.333
139.329
139.325
139.322
139.317
139.313
139.309
139.304
139.299
139.295
139.287
139.282
139.29
139.297
139.304
139.31
139.316
139.321
139.326
139.33
139.334
139.337
139.34
139.343
139.345
139.347
139.349
139.35
139.352
139.353
139.354
139.354
139.355
139.356
139.357
139.357
139.358
139.358
139.359
139.359
139.36
139.36
139.361
139.361
139.361
139.362
139.362
139.362
139.362
139.362
139.362
139.361
139.361
139.36
139.359
139.358
139.357
139.356
139.354
139.352
139.35
139.348
139.346
139.343
139.34
139.337
139.334
139.33
139.326
139.323
139.316
139.225
139.235
139.245
139.254
139.263
139.271
139.279
139.287
139.294
139.301
139.307
139.313
139.318
139.323
139.328
139.332
139.335
139.338
139.341
139.344
139.346
139.348
139.349
139.351
139.352
139.353
139.354
139.355
139.356
139.357
139.357
139.358
139.358
139.359
139.36
139.36
139.36
139.361
139.361
139.362
139.362
139.362
139.362
139.362
139.362
139.362
139.362
139.361
139.361
139.36
139.359
139.358
139.356
139.355
139.353
139.351
139.349
139.346
139.344
139.339
139.162
139.172
139.183
139.193
139.203
139.213
139.223
139.233
139.242
139.251
139.26
139.268
139.276
139.284
139.291
139.298
139.305
139.31
139.316
139.321
139.325
139.33
139.333
139.337
139.34
139.342
139.345
139.347
139.348
139.35
139.351
139.353
139.354
139.355
139.356
139.356
139.357
139.358
139.358
139.359
139.36
139.36
139.361
139.361
139.361
139.362
139.362
139.362
139.362
139.362
139.362
139.362
139.362
139.361
139.361
139.36
139.359
139.358
139.357
139.354
139.099
139.109
139.119
139.129
139.14
139.15
139.16
139.17
139.181
139.191
139.201
139.211
139.221
139.23
139.24
139.249
139.258
139.266
139.274
139.282
139.289
139.296
139.302
139.308
139.314
139.319
139.324
139.328
139.332
139.336
139.339
139.341
139.344
139.346
139.348
139.35
139.351
139.353
139.354
139.355
139.356
139.357
139.358
139.358
139.359
139.36
139.36
139.361
139.361
139.362
139.362
139.362
139.363
139.363
139.363
139.363
139.363
139.363
139.363
139.362
139.033
139.044
139.054
139.065
139.075
139.086
139.096
139.106
139.116
139.126
139.136
139.146
139.156
139.167
139.177
139.187
139.197
139.206
139.216
139.225
139.235
139.244
139.252
139.261
139.269
139.277
139.284
139.291
139.297
139.304
139.309
139.314
139.319
139.324
139.328
139.331
139.335
139.338
139.34
139.343
139.345
139.347
139.349
139.35
139.351
139.353
139.354
139.355
139.356
139.357
139.357
139.358
139.359
139.359
139.36
139.36
139.361
139.361
139.362
139.362
138.956
138.97
138.983
138.997
139.01
139.022
139.034
139.046
139.058
139.069
139.08
139.091
139.102
139.113
139.123
139.134
139.144
139.155
139.165
139.175
139.185
139.195
139.205
139.215
139.224
139.234
139.243
139.252
139.26
139.269
139.276
139.284
139.291
139.298
139.305
139.311
139.316
139.321
139.326
139.33
139.334
139.338
139.341
139.344
139.347
139.349
139.351
139.353
139.355
139.356
139.357
139.358
139.359
139.36
139.361
139.361
139.362
139.362
139.363
139.363
138.84
138.851
138.862
138.874
138.886
138.898
138.91
138.923
138.935
138.947
138.959
138.972
138.984
138.995
139.007
139.019
139.03
139.042
139.053
139.064
139.075
139.086
139.097
139.108
139.119
139.13
139.14
139.151
139.161
139.171
139.181
139.191
139.201
139.211
139.22
139.229
139.238
139.246
139.254
139.262
139.269
139.277
139.283
139.29
139.296
139.302
139.307
139.312
139.317
139.321
139.325
139.329
139.332
139.335
139.338
139.34
139.343
139.345
139.347
139.35
)
;

boundaryField
{
    bottomwall
    {
        type            opaque;
        refValue        nonuniform List<scalar> 
60
(
143.314
145.512
146.765
147.544
148.059
148.417
148.677
148.876
149.037
149.173
149.297
149.414
149.527
149.634
149.738
149.84
149.941
150.044
150.149
150.259
150.371
150.484
150.598
150.71
150.821
150.933
151.055
151.198
151.367
151.552
151.724
151.836
151.845
151.746
151.606
151.582
151.904
152.828
154.551
157.149
160.529
164.437
168.513
172.368
175.658
178.133
179.647
180.14
179.609
178.088
175.649
172.413
168.563
164.342
160.034
155.913
152.182
148.911
145.93
142.629
)
;
        refGradient     uniform 0;