/*--------------------------------*- C++ -*----------------------------------*\
| =========                 |                                                 |
| \\      /  F ield         | OpenFOAM: The Open Source CFD Toolbox           |
|  \\    /   O peration     | Version:  2406                                  |
|   \\  /    A nd           | Website:  www.openfoam.com                      |
|    \\/     M anipulation  |                                                 |
\*---------------------------------------------------------------------------*/
FoamFile
{
    version     2.0;
    format      ascii;
    arch        "LSB;label=32;scalar=64";
    class       volScalarField;
    location    "15000";
    object      ILambda_11_0;
}
// * * * * * * * * * * * * * * * * * * * * * * * * * * * * * * * * * * * * * //

dimensions      [1 0 -3 0 0 0 0];

internalField   nonuniform List<scalar> 
3600
(
145.63
145.832
145.968
146.111
146.233
146.328
146.391
146.419
146.412
146.373
146.304
146.21
146.097
145.974
145.846
145.723
145.611
145.512
145.426
145.341
145.235
145.074
144.815
144.417
143.853
143.131
142.295
141.427
140.621
139.962
139.496
139.222
139.1
139.072
139.085
139.106
139.121
139.132
139.144
139.16
139.18
139.202
139.224
139.248
139.273
139.299
139.326
139.358
139.397
139.441
139.482
139.518
139.557
139.62
139.715
139.807
139.799
139.587
139.151
138.622
145.538
145.71
145.848
145.997
146.137
146.256
146.347
146.404
146.426
146.413
146.367
146.292
146.194
146.077
145.951
145.823
145.7
145.589
145.494
145.411
145.328
145.223
145.056
144.783
144.36
143.763
143.005
142.14
141.258
140.461
139.831
139.405
139.172
139.082
139.072
139.091
139.11
139.123
139.133
139.146
139.163
139.183
139.205
139.228
139.253
139.278
139.303
139.33
139.363
139.405
139.45
139.491
139.522
139.556
139.623
139.738
139.847
139.831
139.568
139.01
145.504
145.651
145.784
145.931
146.076
146.204
146.308
146.38
146.417
146.419
146.388
146.326
146.238
146.129
146.007
145.88
145.754
145.637
145.534
145.443
145.359
145.263
145.124
144.9
144.548
144.033
143.349
142.531
141.653
140.812
140.101
139.58
139.262
139.113
139.072
139.082
139.103
139.118
139.129
139.14
139.155
139.175
139.196
139.218
139.242
139.267
139.292
139.319
139.348
139.385
139.429
139.476
139.514
139.544
139.586
139.669
139.781
139.835
139.706
139.347
145.467
145.584
145.709
145.853
146.001
146.14
146.258
146.348
146.403
146.424
146.41
146.363
146.288
146.189
146.073
145.947
145.819
145.697
145.586
145.489
145.404
145.318
145.208
145.037
144.76
144.334
143.737
142.979
142.117
141.238
140.445
139.819
139.398
139.169
139.082
139.074
139.093
139.111
139.123
139.134
139.147
139.164
139.184
139.206
139.229
139.254
139.279
139.305
139.332
139.364
139.405
139.452
139.496
139.528
139.558
139.616
139.722
139.833
139.816
139.552
145.444
145.529
145.643
145.778
145.926
146.071
146.201
146.306
146.379
146.418
146.421
146.391
146.33
146.242
146.134
146.012
145.884
145.758
145.64
145.535
145.444
145.36
145.265
145.13
144.913
144.57
144.063
143.384
142.566
141.682
140.831
140.11
139.583
139.261
139.112
139.072
139.083
139.104
139.118
139.128
139.139
139.155
139.174
139.195
139.217
139.241
139.266
139.292
139.318
139.347
139.382
139.427
139.476
139.516
139.543
139.576
139.652
139.775
139.858
139.744
145.432
145.483
145.582
145.705
145.85
145.998
146.138
146.256
146.346
146.403
146.424
146.411
146.365
146.29
146.191
146.075
145.949
145.821
145.698
145.586
145.488
145.402
145.315
145.205
145.037
144.765
144.346
143.755
143.002
142.139
141.255
140.455
139.822
139.397
139.168
139.082
139.075
139.094
139.112
139.123
139.133
139.146
139.164
139.184
139.206
139.229
139.253
139.279
139.305
139.331
139.362
139.402
139.451
139.499
139.533
139.557
139.601
139.7
139.83
139.86
145.43
145.447
145.529
145.638
145.775
145.923
146.069
146.199
146.304
146.378
146.418
146.422
146.392
146.332
146.244
146.136
146.015
145.887
145.76
145.641
145.536
145.444
145.358
145.264
145.131
144.919
144.581
144.081
143.408
142.591
141.704
140.846
140.117
139.584
139.26
139.11
139.072
139.084
139.105
139.119
139.128
139.139
139.154
139.174
139.195
139.217
139.241
139.266
139.292
139.318
139.346
139.38
139.425
139.476
139.52
139.547
139.571
139.633
139.76
139.891
145.44
145.423
145.486
145.576
145.702
145.846
145.995
146.135
146.254
146.345
146.402
146.424
146.412
146.366
146.292
146.194
146.078
145.952
145.824
145.7
145.588
145.488
145.4
145.313
145.204
145.039
144.772
144.36
143.776
143.026
142.162
141.274
140.466
139.826
139.397
139.166
139.081
139.076
139.095
139.113
139.123
139.132
139.146
139.164
139.184
139.206
139.228
139.253
139.279
139.305
139.331
139.361
139.4
139.449
139.5
139.538
139.558
139.589
139.68
139.841
145.459
145.41
145.453
145.524
145.635
145.771
145.919
146.066
146.197
146.303
146.377
146.418
146.422
146.393
146.333
146.247
146.139
146.017
145.889
145.762
145.643
145.537
145.443
145.357
145.262
145.131
144.923
144.592
144.099
143.432
142.616
141.725
140.861
140.124
139.585
139.258
139.109
139.073
139.085
139.106
139.119
139.127
139.138
139.154
139.174
139.195
139.216
139.24
139.265
139.292
139.318
139.345
139.378
139.422
139.475
139.523
139.552
139.569
139.617
139.751
145.487
145.409
145.431
145.48
145.574
145.699
145.843
145.992
146.132
146.252
146.344
146.402
146.424
146.412
146.368
146.294
146.197
146.081
145.955
145.826
145.702
145.589
145.488
145.399
145.311
145.203
145.04
144.779
144.375
143.797
143.051
142.187
141.293
140.477
139.829
139.396
139.165
139.081
139.077
139.097
139.114
139.123
139.132
139.145
139.163
139.184
139.205
139.227
139.252
139.279
139.305
139.331
139.36
139.397
139.447
139.501
139.543
139.563
139.582
139.661
145.523
145.42
145.421
145.448
145.521
145.631
145.767
145.916
146.063
146.194
146.301
146.377
146.417
146.423
146.395
146.335
146.249
146.142
146.02
145.892
145.765
145.645
145.537
145.443
145.355
145.26
145.131
144.927
144.602
144.117
143.455
142.642
141.748
140.876
140.131
139.586
139.257
139.108
139.073
139.087
139.107
139.119
139.127
139.137
139.153
139.173
139.194
139.216
139.239
139.265
139.292
139.318
139.344
139.376
139.419
139.474
139.527
139.559
139.571
139.599
145.566
145.441
145.422
145.427
145.479
145.57
145.695
145.839
145.989
146.13
146.25
146.342
146.401
146.425
146.413
146.37
146.296
146.199
146.084
145.958
145.829
145.704
145.59
145.489
145.398
145.309
145.202
145.042
144.786
144.389
143.818
143.077
142.211
141.312
140.488
139.833
139.395
139.163
139.081
139.078
139.098
139.114
139.123
139.131
139.144
139.163
139.184
139.205
139.227
139.251
139.278
139.305
139.331
139.359
139.394
139.444
139.501
139.549
139.569
139.572
145.614
145.471
145.434
145.417
145.447
145.518
145.628
145.764
145.913
146.06
146.192
146.3
146.376
146.417
146.424
146.396
146.337
146.252
146.145
146.023
145.895
145.767
145.647
145.538
145.442
145.354
145.259
145.13
144.931
144.612
144.135
143.479
142.668
141.77
140.891
140.138
139.586
139.255
139.107
139.074
139.089
139.108
139.119
139.126
139.136
139.153
139.173
139.194
139.215
139.238
139.264
139.292
139.319
139.344
139.374
139.416
139.471
139.528
139.565
139.57
145.665
145.509
145.456
145.419
145.426
145.476
145.567
145.691
145.836
145.986
146.127
146.248
146.341
146.401
146.425
146.414
146.371
146.299
146.202
146.087
145.961
145.832
145.707
145.591
145.489
145.397
145.308
145.2
145.043
144.792
144.402
143.839
143.102
142.236
141.331
140.499
139.836
139.393
139.161
139.08
139.079
139.1
139.115
139.123
139.13
139.144
139.163
139.184
139.204
139.226
139.251
139.278
139.306
139.331
139.358
139.392
139.44
139.499
139.552
139.574
145.719
145.554
145.487
145.431
145.417
145.445
145.515
145.624
145.76
145.909
146.057
146.19
146.298
146.375
146.417
146.424
146.397
146.339
146.254
146.147
146.026
145.897
145.769
145.648
145.539
145.442
145.352
145.257
145.13
144.934
144.622
144.152
143.502
142.694
141.794
140.907
140.145
139.587
139.252
139.105
139.074
139.09
139.11
139.12
139.125
139.136
139.153
139.173
139.194
139.215
139.237
139.264
139.292
139.319
139.344
139.373
139.412
139.467
139.528
139.572
145.773
145.604
145.526
145.454
145.419
145.424
145.474
145.564
145.688
145.832
145.982
146.125
146.247
146.34
146.4
146.425
146.415
146.373
146.301
146.204
146.09
145.964
145.834
145.709
145.593
145.489
145.396
145.306
145.199
145.044
144.798
144.415
143.86
143.128
142.262
141.351
140.51
139.839
139.392
139.158
139.08
139.081
139.102
139.116
139.122
139.129
139.143
139.163
139.184
139.204
139.225
139.25
139.277
139.306
139.332
139.357
139.39
139.436
139.497
139.556
145.828
145.658
145.571
145.486
145.433
145.416
145.443
145.513
145.621
145.756
145.906
146.054
146.187
146.296
146.374
146.417
146.425
146.398
146.341
146.256
146.15
146.029
145.9
145.772
145.65
145.54
145.442
145.351
145.255
145.129
144.937
144.631
144.169
143.526
142.72
141.817
140.923
140.152
139.587
139.25
139.104
139.075
139.092
139.111
139.12
139.125
139.135
139.152
139.173
139.194
139.214
139.236
139.263
139.292
139.319
139.345
139.371
139.409
139.464
139.529
145.881
145.714
145.621
145.525
145.456
145.419
145.423
145.471
145.561
145.684
145.828
145.979
146.122
146.245
146.339
146.399
146.425
146.416
146.374
146.303
146.207
146.092
145.966
145.837
145.711
145.594
145.49
145.396
145.304
145.197
145.044
144.804
144.428
143.88
143.154
142.288
141.372
140.522
139.842
139.39
139.156
139.08
139.082
139.104
139.117
139.122
139.128
139.142
139.162
139.184
139.204
139.224
139.249
139.277
139.306
139.333
139.357
139.388
139.433
139.496
145.931
145.77
145.673
145.571
145.488
145.433
145.415
145.441
145.51
145.617
145.753
145.902
146.051
146.185
146.295
146.373
146.417
146.425
146.4
146.343
146.259
146.153
146.032
145.903
145.774
145.652
145.541
145.442
145.35
145.253
145.129
144.939
144.64
144.185
143.55
142.747
141.841
140.94
140.159
139.587
139.247
139.102
139.076
139.094
139.113
139.12
139.124
139.134
139.152
139.173
139.194
139.214
139.235
139.262
139.291
139.32
139.345
139.371
139.407
139.461
145.979
145.827
145.728
145.621
145.528
145.457
145.419
145.422
145.469
145.557
145.68
145.825
145.976
146.119
146.243
146.337
146.399
146.425
146.417
146.376
146.305
146.21
146.095
145.969
145.839
145.713
145.596
145.49
145.395
145.303
145.196
145.045
144.809
144.441
143.901
143.18
142.314
141.393
140.534
139.845
139.388
139.154
139.079
139.084
139.106
139.118
139.121
139.127
139.142
139.162
139.184
139.204
139.224
139.248
139.276
139.306
139.333
139.357
139.386
139.43
146.022
145.882
145.783
145.674
145.573
145.49
145.434
145.415
145.439
145.507
145.614
145.749
145.899
146.048
146.183
146.293
146.372
146.416
146.426
146.401
146.345
146.261
146.156
146.035
145.906
145.777
145.654
145.542
145.442
145.349
145.252
145.128
144.942
144.648
144.202
143.574
142.774
141.866
140.956
140.166
139.586
139.244
139.101
139.077
139.097
139.114
139.12
139.123
139.133
139.151
139.173
139.194
139.213
139.234
139.261
139.291
139.321
139.346
139.37
139.403
146.061
145.934
145.838
145.729
145.624
145.53
145.458
145.419
145.421
145.466
145.554
145.677
145.821
145.973
146.116
146.241
146.336
146.398
146.425
146.418
146.377
146.307
146.212
146.098
145.972
145.842
145.715
145.597
145.491
145.395
145.301
145.194
145.045
144.814
144.453
143.921
143.206
142.341
141.415
140.546
139.848
139.385
139.151
139.079
139.086
139.108
139.119
139.121
139.126
139.141
139.162
139.184
139.204
139.223
139.246
139.275
139.306
139.334
139.357
139.383
146.094
145.984
145.891
145.785
145.677
145.576
145.492
145.435
145.414
145.437
145.504
145.61
145.745
145.895
146.045
146.18
146.291
146.371
146.416
146.426
146.402
146.347
146.264
146.158
146.037
145.908
145.779
145.656
145.543
145.442
145.348
145.25
145.127
144.943
144.656
144.218
143.597
142.802
141.891
140.974
140.173
139.586
139.241
139.099
139.078
139.099
139.116
139.12
139.122
139.132
139.151
139.173
139.194
139.213
139.233
139.26
139.291
139.321
139.346
139.368
146.121
146.029
145.942
145.84
145.732
145.626
145.532
145.46
145.419
145.419
145.464
145.551
145.673
145.817
145.969
146.114
146.238
146.335
146.398
146.425
146.419
146.379
146.309
146.215
146.101
145.975
145.845
145.717
145.599
145.491
145.394
145.3
145.193
145.045
144.818
144.464
143.941
143.232
142.369
141.437
140.558
139.851
139.382
139.148
139.079
139.089
139.111
139.119
139.12
139.125
139.14
139.162
139.184
139.204
139.222
139.245
139.274
139.307
139.335
139.356
146.141
146.07
145.989
145.894
145.788
145.68
145.578
145.493
145.435
145.414
145.435
145.501
145.606
145.741
145.892
146.042
146.178
146.29
146.37
146.416
146.426
146.403
146.348
146.266
146.161
146.04
145.911
145.781
145.658
145.544
145.442
145.347
145.249
145.125
144.945
144.663
144.233
143.621
142.83
141.917
140.992
140.18
139.585
139.237
139.097
139.08
139.102
139.118
139.12
139.12
139.131
139.151
139.174
139.194
139.212
139.232
139.258
139.29
139.322
139.346
146.153
146.106
146.032
145.945
145.843
145.735
145.629
145.534
145.461
145.419
145.418
145.461
145.548
145.669
145.814
145.966
146.111
146.236
146.333
146.397
146.426
146.419
146.38
146.311
146.217
146.104
145.978
145.847
145.719
145.6
145.492
145.394
145.299
145.191
145.045
144.822
144.475
143.96
143.259
142.397
141.46
140.57
139.853
139.379
139.145
139.079
139.091
139.113
139.12
139.119
139.123
139.139
139.162
139.185
139.204
139.221
139.243
139.273
139.307
139.336
146.157
146.135
146.07
145.993
145.896
145.791
145.683
145.581
145.495
145.436
145.413
145.433
145.498
145.603
145.738
145.888
146.039
146.176
146.288
146.369
146.415
146.427
146.404
146.35
146.268
146.164
146.043
145.914
145.784
145.659
145.545
145.442
145.347
145.247
145.124
144.946
144.67
144.248
143.644
142.858
141.944
141.01
140.188
139.583
139.233
139.095
139.081
139.105
139.12
139.12
139.119
139.13
139.15
139.174
139.195
139.212
139.231
139.257
139.289
139.323
146.153
146.158
146.102
146.036
145.947
145.846
145.738
145.632
145.536
145.462
145.42
145.417
145.459
145.544
145.665
145.81
145.963
146.108
146.234
146.332
146.396
146.426
146.42
146.382
146.314
146.22
146.106
145.981
145.85
145.722
145.602
145.493
145.394
145.298
145.19
145.044
144.825
144.485
143.98
143.285
142.426
141.483
140.583
139.855
139.375
139.141
139.079
139.094
139.116
139.121
139.118
139.122
139.139
139.162
139.185
139.204
139.221
139.242
139.272
139.307
146.139
146.173
146.129
146.075
145.994
145.899
145.793
145.686
145.583
145.497
145.437
145.413
145.432
145.495
145.599
145.734
145.885
146.036
146.173
146.286
146.368
146.415
146.427
146.405
146.352
146.271
146.167
146.046
145.917
145.786
145.661
145.546
145.443
145.346
145.246
145.123
144.947
144.676
144.263
143.668
142.887
141.971
141.029
140.195
139.581
139.229
139.094
139.083
139.108
139.121
139.119
139.118
139.128
139.15
139.174
139.195
139.212
139.23
139.255
139.289
146.115
146.181
146.148
146.108
146.037
145.949
145.848
145.741
145.635
145.539
145.464
145.42
145.416
145.457
145.541
145.662
145.806
145.959
146.106
146.232
146.331
146.396
146.426
146.421
146.383
146.316
146.222
146.109
145.983
145.852
145.724
145.603
145.494
145.394
145.297
145.188
145.044
144.828
144.495
143.998
143.312
142.455
141.507
140.597
139.857
139.371
139.137
139.079
139.097
139.119
139.122
139.117
139.121
139.138
139.162
139.185
139.204
139.22
139.24
139.27
146.08
146.179
146.16
146.134
146.075
145.996
145.901
145.796
145.688
145.586
145.499
145.438
145.412
145.43
145.492
145.596
145.73
145.881
146.033
146.171
146.285
146.367
146.415
146.428
146.407
146.354
146.273
146.169
146.049
145.919
145.789
145.663
145.548
145.443
145.346
145.245
145.122
144.948
144.682
144.276
143.691
142.916
142
141.048
140.202
139.579
139.223
139.092
139.085
139.112
139.123
139.119
139.116
139.127
139.149
139.174
139.196
139.212
139.229
139.253
146.034
146.169
146.164
146.154
146.108
146.039
145.951
145.851
145.744
145.637
145.541
145.465
145.42
145.415
145.454
145.538
145.658
145.803
145.956
146.103
146.23
146.329
146.395
146.426
146.422
146.385
146.318
146.225
146.112
145.986
145.855
145.726
145.605
145.495
145.394
145.296
145.187
145.043
144.831
144.504
144.017
143.339
142.485
141.532
140.61
139.858
139.366
139.133
139.08
139.101
139.122
139.122
139.116
139.119
139.137
139.162
139.186
139.205
139.22
139.238
145.976
146.148
146.158
146.167
146.134
146.077
145.998
145.904
145.799
145.691
145.589
145.501
145.439
145.412
145.428
145.489
145.592
145.726
145.877
146.03
146.169
146.283
146.366
146.414
146.428
146.408
146.356
146.275
146.172
146.052
145.922
145.791
145.665
145.549
145.444
145.345
145.244
145.121
144.949
144.687
144.29
143.713
142.946
142.029
141.069
140.209
139.576
139.218
139.09
139.088
139.116
139.125
139.118
139.115
139.126
139.149
139.174
139.196
139.213
139.227
145.906
146.116
146.144
146.171
146.153
146.109
146.041
145.954
145.853
145.746
145.64
145.543
145.467
145.42
145.414
145.452
145.534
145.654
145.799
145.953
146.1
146.228
146.328
146.394
146.426
146.422
146.386
146.32
146.228
146.115
145.989
145.858
145.728
145.606
145.496
145.394
145.296
145.186
145.043
144.833
144.513
144.035
143.366
142.516
141.559
140.624
139.86
139.36
139.129
139.08
139.105
139.125
139.123
139.114
139.118
139.136
139.161
139.186
139.205
139.219
145.823
146.073
146.119
146.166
146.165
146.136
146.079
146
145.906
145.802
145.694
145.591
145.503
145.44
145.412
145.426
145.487
145.589
145.722
145.874
146.027
146.166
146.281
146.365
146.414
146.428
146.409
146.357
146.278
146.175
146.055
145.925
145.794
145.667
145.55
145.444
145.345
145.243
145.12
144.949
144.692
144.302
143.736
142.976
142.059
141.09
140.216
139.572
139.212
139.088
139.091
139.12
139.127
139.117
139.113
139.125
139.148
139.174
139.197
139.213
145.727
146.017
146.083
146.152
146.169
146.155
146.111
146.043
145.956
145.856
145.749
145.643
145.546
145.468
145.421
145.413
145.45
145.531
145.65
145.795
145.949
146.097
146.226
146.327
146.394
146.426
146.423
146.387
146.322
146.23
146.118
145.992
145.86
145.73
145.608
145.496
145.394
145.295
145.185
145.042
144.835
144.521
144.052
143.393
142.548
141.586
140.639
139.86
139.354
139.124
139.082
139.109
139.128
139.123
139.113
139.117
139.135
139.161
139.186
139.206
145.618
145.949
146.036
146.127
146.164
146.166
146.137
146.08
146.003
145.909
145.804
145.697
145.594
145.505
145.441
145.411
145.425
145.484
145.585
145.719
145.87
146.023
146.164
146.279
146.364
146.414
146.429
146.41
146.359
146.28
146.177
146.058
145.928
145.796
145.669
145.552
145.445
145.345
145.242
145.119
144.949
144.696
144.314
143.758
143.006
142.09
141.112
140.224
139.568
139.204
139.086
139.095
139.125
139.128
139.116
139.112
139.124
139.147
139.174
139.198
145.496
145.867
145.976
146.092
146.149
146.17
146.156
146.112
146.045
145.958
145.859
145.752
145.645
145.548
145.47
145.421
145.412
145.447
145.528
145.647
145.791
145.946
146.095
146.224
146.325
146.393
146.425
146.424
146.389
146.324
146.233
146.121
145.995
145.863
145.733
145.61
145.497
145.395
145.295
145.184
145.042
144.836
144.528
144.068
143.419
142.58
141.614
140.654
139.861
139.346
139.118
139.083
139.115
139.132
139.122
139.111
139.116
139.135
139.16
139.187
145.362
145.773
145.904
146.045
146.124
146.164
146.167
146.138
146.082
146.005
145.911
145.807
145.7
145.596
145.507
145.442
145.411
145.423
145.481
145.581
145.715
145.867
146.02
146.161
146.278
146.363
146.413
146.429
146.411
146.361
146.282
146.18
146.06
145.931
145.798
145.671
145.553
145.445
145.345
145.242
145.118
144.949
144.7
144.325
143.779
143.037
142.122
141.135
140.231
139.562
139.196
139.084
139.1
139.13
139.13
139.115
139.111
139.124
139.147
139.174
145.215
145.664
145.819
145.986
146.088
146.149
146.17
146.156
146.114
146.047
145.961
145.861
145.755
145.648
145.55
145.471
145.422
145.411
145.445
145.525
145.643
145.787
145.942
146.092
146.222
146.324
146.392
146.425
146.424
146.39
146.326
146.235
146.123
145.998
145.866
145.735
145.611
145.498
145.395
145.294
145.183
145.041
144.838
144.534
144.084
143.446
142.613
141.644
140.67
139.86
139.338
139.113
139.085
139.121
139.135
139.122
139.11
139.115
139.134
139.16
145.058
145.544
145.721
145.914
146.04
146.124
146.164
146.167
146.139
146.084
146.007
145.913
145.81
145.702
145.599
145.509
145.443
145.411
145.421
145.478
145.578
145.711
145.863
146.017
146.159
146.276
146.362
146.413
146.429
146.412
146.362
146.285
146.183
146.063
145.933
145.801
145.673
145.554
145.446
145.345
145.241
145.118
144.949
144.703
144.335
143.8
143.068
142.156
141.159
140.239
139.556
139.187
139.082
139.105
139.135
139.13
139.113
139.11
139.124
139.146
144.89
145.41
145.609
145.829
145.981
146.088
146.148
146.17
146.157
146.115
146.049
145.963
145.864
145.757
145.651
145.553
145.473
145.422
145.41
145.443
145.521
145.639
145.784
145.939
146.089
146.22
146.322
146.391
146.425
146.425
146.392
146.328
146.238
146.126
146.001
145.868
145.737
145.613
145.499
145.395
145.294
145.183
145.041
144.839
144.54
144.098
143.472
142.647
141.675
140.687
139.859
139.327
139.106
139.088
139.127
139.138
139.12
139.108
139.115
139.134
144.711
145.265
145.484
145.731
145.908
146.04
146.123
146.164
146.168
146.14
146.085
146.009
145.916
145.812
145.705
145.602
145.511
145.444
145.411
145.42
145.475
145.574
145.707
145.859
146.014
146.156
146.274
146.361
146.412
146.429
146.413
146.364
146.287
146.186
146.066
145.936
145.804
145.675
145.555
145.447
145.345
145.241
145.117
144.949
144.705
144.344
143.82
143.099
142.191
141.186
140.246
139.548
139.177
139.081
139.112
139.141
139.131
139.11
139.109
139.124
144.522
145.109
145.347
145.62
145.823
145.98
146.086
146.148
146.17
146.158
146.117
146.05
145.965
145.866
145.76
145.654
145.555
145.475
145.423
145.409
145.441
145.518
145.635
145.78
145.936
146.086
146.218
146.321
146.39
146.425
146.425
146.393
146.33
146.24
146.129
146.003
145.871
145.74
145.615
145.5
145.395
145.294
145.183
145.041
144.84
144.545
144.112
143.497
142.682
141.708
140.705
139.858
139.315
139.099
139.092
139.135
139.141
139.118
139.106
139.115
144.322
144.944
145.197
145.495
145.723
145.907
146.038
146.122
146.164
146.169
146.141
146.087
146.011
145.918
145.815
145.708
145.604
145.513
145.445
145.411
145.418
145.472
145.57
145.703
145.856
146.011
146.154
146.272
146.359
146.412
146.43
146.414
146.366
146.289
146.188
146.069
145.939
145.806
145.677
145.557
145.447
145.345
145.241
145.117
144.95
144.708
144.352
143.839
143.13
142.227
141.213
140.254
139.538
139.165
139.08
139.12
139.147
139.13
139.107
139.109
144.11
144.768
145.037
145.358
145.611
145.821
145.977
146.085
146.147
146.171
146.159
146.118
146.052
145.967
145.869
145.763
145.657
145.558
145.476
145.423
145.408
145.438
145.515
145.631
145.776
145.932
146.084
146.216
146.319
146.39
146.425
146.426
146.394
146.332
146.243
146.132
146.006
145.874
145.742
145.616
145.501
145.396
145.294
145.182
145.041
144.841
144.549
144.124
143.522
142.718
141.744
140.725
139.855
139.301
139.092
139.098
139.145
139.143
139.114
139.104
143.886
144.584
144.866
145.209
145.485
145.721
145.904
146.036
146.121
146.164
146.169
146.142
146.089
146.013
145.921
145.818
145.711
145.607
145.515
145.446
145.41
145.417
145.47
145.567
145.699
145.852
146.008
146.152
146.271
146.358
146.411
146.43
146.415
146.368
146.292
146.191
146.072
145.942
145.809
145.679
145.558
145.448
145.345
145.24
145.117
144.95
144.71
144.359
143.856
143.16
142.266
141.244
140.263
139.526
139.152
139.08
139.13
139.154
139.127
139.103
143.648
144.39
144.686
145.05
145.347
145.608
145.817
145.975
146.084
146.147
146.171
146.16
146.119
146.054
145.969
145.871
145.766
145.659
145.56
145.478
145.424
145.408
145.436
145.512
145.627
145.772
145.929
146.081
146.214
146.318
146.389
146.425
146.427
146.395
146.334
146.245
146.135
146.009
145.877
145.744
145.618
145.502
145.396
145.294
145.182
145.041
144.842
144.553
144.135
143.546
142.754
141.781
140.746
139.851
139.284
139.084
139.106
139.156
139.145
139.108
143.394
144.185
144.496
144.88
145.198
145.482
145.717
145.902
146.035
146.12
146.163
146.17
146.144
146.09
146.015
145.923
145.82
145.713
145.61
145.518
145.448
145.41
145.415
145.467
145.563
145.695
145.848
146.005
146.149
146.269
146.357
146.411
146.43
146.415
146.369
146.294
146.194
146.075
145.945
145.811
145.681
145.56
145.448
145.345
145.24
145.117
144.951
144.712
144.366
143.872
143.191
142.306
141.277
140.272
139.512
139.135
139.081
139.143
139.161
139.121
143.122
143.968
144.296
144.7
145.037
145.343
145.604
145.815
145.973
146.082
146.146
146.171
146.161
146.121
146.056
145.972
145.874
145.768
145.662
145.563
145.48
145.425
145.407
145.434
145.508
145.624
145.768
145.925
146.078
146.212
146.317
146.388
146.425
146.427
146.397
146.336
146.248
146.138
146.012
145.879
145.747
145.62
145.503
145.396
145.293
145.182
145.042
144.844
144.556
144.144
143.568
142.791
141.822
140.77
139.846
139.264
139.075
139.116
139.168
139.143
142.831
143.737
144.086
144.511
144.867
145.193
145.477
145.714
145.899
146.033
146.119
146.163
146.17
146.145
146.092
146.017
145.925
145.823
145.716
145.612
145.52
145.449
145.41
145.414
145.464
145.56
145.691
145.844
146.002
146.147
146.267
146.356
146.41
146.43
146.416
146.371
146.296
146.196
146.078
145.947
145.814
145.683
145.561
145.449
145.345
145.24
145.118
144.952
144.714
144.371
143.886
143.22
142.348
141.314
140.281
139.493
139.116
139.084
139.158
139.165
142.519
143.488
143.863
144.312
144.687
145.032
145.337
145.6
145.812
145.971
146.081
146.146
146.171
146.162
146.122
146.058
145.974
145.876
145.771
145.665
145.565
145.482
145.425
145.406
145.432
145.505
145.62
145.764
145.922
146.075
146.21
146.315
146.387
146.424
146.428
146.398
146.338
146.25
146.14
146.015
145.882
145.749
145.622
145.504
145.396
145.293
145.182
145.043
144.846
144.56
144.152
143.587
142.827
141.867
140.797
139.838
139.238
139.066
139.131
139.179
142.186
143.221
143.627
144.102
144.498
144.86
145.186
145.472
145.71
145.897
146.031
146.118
146.163
146.171
146.146
146.094
146.019
145.927
145.825
145.719
145.615
145.522
145.45
145.411
145.412
145.461
145.556
145.687
145.841
145.998
146.144
146.265
146.355
146.41
146.43
146.417
146.372
146.298
146.199
146.081
145.95
145.816
145.686
145.563
145.45
145.345
145.24
145.118
144.954
144.717
144.376
143.898
143.247
142.392
141.356
140.293
139.469
139.093
139.092
139.178
141.833
142.931
143.375
143.879
144.299
144.68
145.024
145.332
145.596
145.809
145.969
146.08
146.145
146.171
146.162
146.124
146.06
145.976
145.879
145.774
145.668
145.568
145.484
145.426
145.406
145.43
145.502
145.616
145.76
145.918
146.072
146.207
146.314
146.386
146.424
146.428
146.399
146.34
146.253
146.143
146.018
145.885
145.751
145.624
145.506
145.397
145.293
145.182
145.044
144.848
144.563
144.159
143.604
142.863
141.916
140.83
139.828
139.203
139.06
139.157
141.463
142.616
143.106
143.642
144.09
144.491
144.853
145.18
145.467
145.707
145.894
146.03
146.117
146.163
146.171
146.147
146.095
146.021
145.93
145.828
145.722
145.618
145.524
145.452
145.411
145.411
145.459
145.552
145.683
145.837
145.995
146.142
146.264
146.354
146.409
146.43
146.418
146.374
146.301
146.202
146.083
145.953
145.819
145.688
145.564
145.45
145.344
145.239
145.118
144.956
144.72
144.38
143.907
143.271
142.437
141.406
140.307
139.435
139.065
139.118
141.082
142.273
142.818
143.387
143.868
144.292
144.672
145.017
145.326
145.591
145.806
145.967
146.078
146.145
146.171
146.163
146.125
146.061
145.978
145.881
145.776
145.67
145.571
145.486
145.427
145.405
145.428
145.498
145.612
145.756
145.915
146.069
146.205
146.312
146.386
146.424
146.428
146.4
146.342
146.255
146.146
146.021
145.887
145.754
145.626
145.507
145.397
145.292
145.182
145.045
144.851
144.568
144.165
143.618
142.896
141.971
140.873
139.813
139.155
139.071
140.699
141.902
142.509
143.114
143.631
144.082
144.483
144.845
145.173
145.462
145.704
145.892
146.028
146.116
146.162
146.172
146.148
146.097
146.023
145.932
145.831
145.724
145.621
145.527
145.453
145.411
145.41
145.456
145.548
145.679
145.833
145.992
146.139
146.262
146.353
146.409
146.43
146.419
146.376
146.303
146.205
146.086
145.956
145.822
145.69
145.566
145.451
145.344
145.238
145.118
144.958
144.725
144.386
143.915
143.29
142.482
141.468
140.33
139.383
139.037
140.325
141.504
142.178
142.821
143.377
143.86
144.284
144.664
145.01
145.321
145.587
145.803
145.965
146.077
146.144
146.172
146.164
146.126
146.063
145.98
145.883
145.779
145.673
145.573
145.488
145.428
145.404
145.426
145.495
145.608
145.752
145.911
146.067
146.203
146.311
146.385
146.424
146.429
146.402
146.344
146.258
146.149
146.023
145.89
145.756
145.628
145.508
145.397
145.292
145.181
145.046
144.854
144.573
144.171
143.627
142.923
142.031
140.937
139.793
139.065
139.978
141.082
141.824
142.507
143.105
143.623
144.075
144.475
144.838
145.167
145.458
145.7
145.89
146.026
146.115
146.162
146.172
146.15
146.099
146.025
145.934
145.833
145.727
145.623
145.529
145.455
145.411
145.408
145.453
145.544
145.675
145.829
145.989
146.137
146.26
146.352
146.408
146.431
146.42
146.377
146.305
146.207
146.089
145.959
145.824
145.692
145.568
145.452
145.344
145.238
145.118
144.96
144.73
144.393
143.922
143.302
142.52
141.548
140.38
139.251
139.673
140.645
141.448
142.172
142.813
143.371
143.854
144.277
144.657
145.004
145.316
145.584
145.801
145.964
146.077
146.144
146.173
146.166
146.129
146.066
145.983
145.886
145.782
145.676
145.576
145.49
145.428
145.403
145.423
145.491
145.603
145.747
145.907
146.064
146.202
146.31
146.385
146.424
146.43
146.403
146.346
146.261
146.152
146.027
145.893
145.759
145.63
145.51
145.398
145.291
145.181
145.047
144.859
144.582
144.183
143.639
142.94
142.083
141.046
139.733
)
;

boundaryField
{
    bottomwall
    {
        type            opaque;
        refValue        uniform 0;
        refGradient     uniform 0;
        valueFraction   uniform 0;
        source          uniform 0;
        value           nonuniform List<scalar> 
60
(
145.63
145.832
145.968
146.111
146.233
146.328
146.391
146.419
146.412
146.373
146.304
146.21
146.097
145.974
145.846
145.723
145.611
145.512
145.426
145.341
145.235
145.074
144.815
144.417
143.853
143.131
142.295
141.427
140.621
139.962
139.496
139.222
139.1
139.072
139.085
139.106
139.121
139.132
139.144
139.16
139.18
139.202
139.224
139.248
139.273
139.299
139.326
139.358
139.397
139.441