/*--------------------------------*- C++ -*----------------------------------*\
| =========                 |                                                 |
| \\      /  F ield         | OpenFOAM: The Open Source CFD Toolbox           |
|  \\    /   O peration     | Version:  2406                                  |
|   \\  /    A nd           | Website:  www.openfoam.com                      |
|    \\/     M anipulation  |                                                 |
\*---------------------------------------------------------------------------*/
FoamFile
{
    version     2.0;
    format      ascii;
    arch        "LSB;label=32;scalar=64";
    class       volScalarField;
    location    "15000";
    object      ILambda_9_0;
}
// * * * * * * * * * * * * * * * * * * * * * * * * * * * * * * * * * * * * * //

dimensions      [1 0 -3 0 0 0 0];

internalField   nonuniform List<scalar> 
3600
(
139.167
139.266
139.242
139.248
139.25
139.215
139.185
139.196
139.287
139.531
139.997
140.677
141.472
142.255
142.941
143.509
143.982
144.391
144.756
145.087
145.381
145.634
145.84
145.995
146.1
146.159
146.178
146.163
146.119
146.051
145.965
145.866
145.761
145.656
145.559
145.48
145.428
145.413
145.441
145.515
145.63
145.774
145.931
146.084
146.219
146.324
146.395
146.429
146.428
146.394
146.33
146.239
146.127
146.001
145.867
145.733
145.606
145.478
145.392
145.194
139.237
139.263
139.231
139.253
139.247
139.204
139.181
139.208
139.328
139.621
140.148
140.874
141.682
142.446
143.1
143.64
144.092
144.488
144.844
145.166
145.451
145.693
145.885
146.027
146.12
146.168
146.178
146.155
146.104
146.031
145.941
145.839
145.733
145.63
145.536
145.463
145.419
145.415
145.455
145.541
145.664
145.814
145.972
146.122
146.25
146.346
146.407
146.432
146.422
146.38
146.309
146.213
146.096
145.967
145.833
145.699
145.574
145.448
145.365
145.161
139.263
139.251
139.229
139.257
139.242
139.198
139.181
139.219
139.356
139.68
140.239
140.984
141.791
142.542
143.178
143.704
144.147
144.537
144.889
145.207
145.486
145.721
145.907
146.042
146.128
146.171
146.176
146.149
146.095
146.019
145.927
145.825
145.719
145.616
145.525
145.455
145.417
145.418
145.465
145.556
145.684
145.835
145.993
146.141
146.264
146.356
146.412
146.433
146.418
146.372
146.297
146.198
146.079
145.949
145.814
145.681
145.558
145.433
145.352
145.143
139.29
139.236
139.228
139.262
139.236
139.191
139.182
139.232
139.392
139.752
140.349
141.117
141.923
142.656
143.272
143.781
144.214
144.597
144.944
145.255
145.528
145.755
145.933
146.059
146.138
146.174
146.174
146.142
146.084
146.005
145.911
145.808
145.702
145.6
145.512
145.446
145.414
145.422
145.476
145.575
145.708
145.861
146.019
146.163
146.282
146.368
146.418
146.433
146.413
146.362
146.282
146.179
146.058
145.927
145.792
145.66
145.538
145.414
145.335
145.12
139.31
139.217
139.233
139.266
139.228
139.185
139.186
139.248
139.432
139.829
140.462
141.246
142.047
142.762
143.359
143.853
144.277
144.654
144.995
145.301
145.567
145.787
145.956
146.075
146.147
146.177
146.171
146.134
146.073
145.991
145.895
145.791
145.685
145.585
145.5
145.439
145.412
145.428
145.489
145.593
145.731
145.886
146.043
146.184
146.298
146.379
146.423
146.432
146.407
146.351
146.268
146.161
146.038
145.905
145.771
145.639
145.52
145.396
145.319
145.098
139.316
139.199
139.243
139.267
139.219
139.18
139.191
139.267
139.478
139.913
140.58
141.378
142.17
142.866
143.443
143.924
144.339
144.71
145.046
145.346
145.605
145.817
145.978
146.089
146.154
146.178
146.167
146.126
146.061
145.977
145.879
145.774
145.669
145.57
145.488
145.432
145.411
145.434
145.503
145.613
145.755
145.912
146.067
146.204
146.313
146.388
146.427
146.43
146.4
146.34
146.252
146.143
146.017
145.884
145.75
145.619
145.501
145.378
145.303
145.074
139.299
139.187
139.257
139.266
139.208
139.177
139.198
139.288
139.528
140.003
140.702
141.509
142.29
142.966
143.525
143.992
144.399
144.765
145.096
145.39
145.642
145.846
145.999
146.102
146.16
146.178
146.162
146.117
146.049
145.962
145.863
145.757
145.652
145.556
145.477
145.426
145.412
145.442
145.518
145.634
145.779
145.937
146.09
146.224
146.328
146.397
146.429
146.427
146.392
146.327
146.236
146.124
145.996
145.862
145.729
145.599
145.483
145.36
145.287
145.049
139.255
139.189
139.273
139.26
139.198
139.177
139.207
139.312
139.584
140.1
140.827
141.64
142.407
143.063
143.604
144.06
144.459
144.819
145.145
145.433
145.678
145.874
146.019
146.114
146.165
146.178
146.157
146.108
146.036
145.947
145.846
145.74
145.636
145.542
145.467
145.421
145.413
145.451
145.534
145.656
145.804
145.962
146.113
146.243
146.341
146.404
146.431
146.424
146.384
146.314
146.219
146.104
145.975
145.841
145.708
145.58
145.465
145.343
145.27
145.023
139.198
139.206
139.286
139.251
139.188
139.178
139.218
139.341
139.647
140.203
140.955
141.769
142.521
143.156
143.68
144.126
144.518
144.873
145.193
145.475
145.712
145.9
146.037
146.125
146.17
146.176
146.151
146.098
146.023
145.931
145.829
145.723
145.62
145.528
145.457
145.417
145.416
145.461
145.551
145.678
145.829
145.987
146.136
146.261
146.354
146.411
146.432
146.42
146.375
146.301
146.202
146.084
145.954
145.819
145.687
145.56
145.447
145.325
145.254
144.996
139.151
139.232
139.294
139.238
139.18
139.182
139.23
139.373
139.716
140.311
141.086
141.897
142.631
143.246
143.755
144.19
144.577
144.926
145.24
145.516
145.746
145.925
146.054
146.135
146.173
146.174
146.144
146.087
146.009
145.916
145.813
145.707
145.605
145.515
145.448
145.413
145.42
145.472
145.569
145.701
145.855
146.012
146.158
146.278
146.365
146.417
146.433
146.414
146.365
146.287
146.185
146.064
145.933
145.798
145.667
145.541
145.429
145.307
145.237
144.968
139.13
139.259
139.295
139.224
139.174
139.187
139.245
139.409
139.791
140.425
141.217
142.023
142.738
143.333
143.828
144.254
144.634
144.978
145.287
145.555
145.778
145.949
146.07
146.144
146.176
146.171
146.136
146.076
145.995
145.9
145.796
145.69
145.589
145.503
145.44
145.411
145.425
145.485
145.588
145.724
145.88
146.037
146.179
146.294
146.376
146.422
146.432
146.409
146.354
146.272
146.167
146.044
145.911
145.777
145.646
145.522
145.412
145.29
145.22
144.938
139.136
139.281
139.291
139.209
139.171
139.194
139.261
139.451
139.874
140.544
141.35
142.146
142.841
143.417
143.899
144.316
144.691
145.029
145.332
145.594
145.808
145.972
146.085
146.151
146.177
146.168
146.128
146.064
145.981
145.884
145.779
145.673
145.574
145.491
145.433
145.41
145.431
145.498
145.607
145.748
145.905
146.061
146.199
146.31
146.386
146.426
146.43
146.402
146.343
146.257
146.148
146.023
145.89
145.755
145.626
145.503
145.395
145.272
145.202
144.906
139.158
139.299
139.281
139.195
139.171
139.202
139.279
139.498
139.964
140.667
141.482
142.266
142.94
143.498
143.968
144.378
144.746
145.08
145.377
145.631
145.838
145.993
146.098
146.158
146.178
146.163
146.12
146.052
145.966
145.867
145.762
145.657
145.56
145.48
145.427
145.411
145.439
145.513
145.628
145.773
145.931
146.084
146.219
146.324
146.394
146.429
146.428
146.395
146.331
146.241
146.129
146.002
145.868
145.734
145.606
145.485
145.377
145.254
145.184
144.873
139.186
139.311
139.267
139.182
139.173
139.212
139.301
139.551
140.06
140.794
141.614
142.383
143.037
143.578
144.036
144.438
144.801
145.129
145.42
145.667
145.866
146.013
146.111
146.163
146.177
146.158
146.11
146.04
145.951
145.851
145.745
145.641
145.546
145.469
145.421
145.412
145.447
145.529
145.65
145.798
145.956
146.108
146.238
146.338
146.402
146.431
146.425
146.386
146.318
146.224
146.11
145.981
145.847
145.713
145.586
145.467
145.36
145.235
145.165
144.838
139.212
139.32
139.251
139.171
139.177
139.222
139.325
139.61
140.163
140.924
141.744
142.496
143.13
143.654
144.102
144.498
144.855
145.178
145.462
145.702
145.893
146.032
146.122
146.168
146.176
146.152
146.1
146.026
145.936
145.834
145.728
145.625
145.532
145.459
145.417
145.414
145.457
145.545
145.672
145.823
145.981
146.13
146.256
146.351
146.409
146.432
146.421
146.378
146.305
146.207
146.09
145.96
145.826
145.693
145.567
145.449
145.343
145.217
145.145
144.8
139.239
139.324
139.231
139.163
139.184
139.234
139.352
139.677
140.272
141.056
141.873
142.606
143.219
143.729
144.167
144.557
144.909
145.226
145.503
145.736
145.918
146.049
146.132
146.172
146.175
146.146
146.09
146.013
145.92
145.817
145.711
145.609
145.519
145.45
145.413
145.418
145.468
145.563
145.695
145.848
146.006
146.152
146.274
146.362
146.415
146.433
146.416
146.368
146.291
146.19
146.07
145.939
145.804
145.672
145.548
145.431
145.326
145.198
145.125
144.761
139.267
139.323
139.21
139.159
139.193
139.246
139.384
139.751
140.388
141.189
141.999
142.713
143.306
143.802
144.231
144.614
144.961
145.272
145.544
145.768
145.942
146.065
146.141
146.174
146.172
146.138
146.079
145.999
145.904
145.801
145.695
145.593
145.506
145.442
145.411
145.422
145.48
145.582
145.718
145.873
146.031
146.174
146.29
146.373
146.42
146.432
146.41
146.358
146.277
146.172
146.05
145.918
145.783
145.652
145.529
145.413
145.309
145.179
145.104
144.72
139.299
139.314
139.188
139.159
139.203
139.259
139.422
139.833
140.508
141.323
142.122
142.815
143.39
143.873
144.294
144.671
145.013
145.318
145.583
145.799
145.965
146.08
146.149
146.176
146.168
146.131
146.068
145.985
145.888
145.784
145.678
145.578
145.494
145.434
145.41
145.428
145.493
145.601
145.742
145.899
146.055
146.194
146.306
146.383
146.425
146.431
146.404
146.346
146.261
146.154
146.029
145.896
145.762
145.631
145.51
145.396
145.292
145.159
145.081
144.676
139.332
139.296
139.167
139.163
139.213
139.273
139.465
139.922
140.633
141.457
142.242
142.914
143.472
143.943
144.356
144.728
145.064
145.363
145.62
145.829
145.987
146.094
146.155
146.177
146.164
146.122
146.056
145.97
145.872
145.767
145.661
145.564
145.482
145.427
145.409
145.435
145.508
145.622
145.766
145.924
146.079
146.214
146.321
146.392
146.428
146.429
146.397
146.335
146.246
146.135
146.008
145.875
145.74
145.612
145.492
145.378
145.275
145.138
145.058
144.629
139.364
139.269
139.151
139.171
139.224
139.289
139.514
140.019
140.762
141.59
142.359
143.01
143.551
144.011
144.417
144.783
145.113
145.407
145.657
145.858
146.007
146.107
146.161
146.177
146.159
146.113
146.043
145.955
145.856
145.75
145.645
145.549
145.471
145.422
145.41
145.444
145.523
145.643
145.791
145.95
146.102
146.233
146.334
146.4
146.43
146.426
146.389
146.322
146.229
146.115
145.987
145.853
145.719
145.592
145.473
145.361
145.258
145.117
145.033
144.58
139.388
139.236
139.14
139.183
139.233
139.308
139.571
140.123
140.894
141.721
142.472
143.103
143.628
144.078
144.477
144.837
145.162
145.449
145.692
145.885
146.026
146.118
146.166
146.176
146.154
146.103
146.03
145.94
145.839
145.733
145.629
145.535
145.461
145.417
145.412
145.453
145.54
145.665
145.816
145.975
146.125
146.252
146.347
146.407
146.432
146.422
146.38
146.309
146.213
146.096
145.966
145.832
145.699
145.572
145.455
145.344
145.24
145.095
145.006
144.529
139.397
139.2
139.136
139.196
139.242
139.33
139.635
140.233
141.028
141.85
142.581
143.192
143.703
144.144
144.536
144.891
145.211
145.491
145.726
145.911
146.044
146.128
146.17
146.175
146.147
146.093
146.017
145.925
145.822
145.716
145.613
145.522
145.452
145.413
145.416
145.464
145.557
145.688
145.841
146
146.147
146.269
146.359
146.414
146.432
146.417
146.371
146.295
146.195
146.076
145.945
145.81
145.678
145.553
145.437
145.327
145.222
145.072
144.978
144.474
139.387
139.165
139.139
139.21
139.25
139.357
139.708
140.35
141.163
141.976
142.687
143.279
143.776
144.209
144.595
144.944
145.258
145.532
145.759
145.935
146.06
146.138
146.173
146.172
146.14
146.082
146.003
145.909
145.805
145.699
145.598
145.509
145.443
145.411
145.42
145.476
145.576
145.711
145.867
146.025
146.168
146.286
146.37
146.419
146.432
146.412
146.361
146.281
146.177
146.056
145.924
145.789
145.658
145.534
145.42
145.31
145.204
145.048
144.948
144.416
139.358
139.137
139.15
139.223
139.258
139.389
139.789
140.473
141.298
142.099
142.789
143.363
143.848
144.272
144.652
144.996
145.304
145.571
145.791
145.958
146.075
146.146
146.175
146.169
146.133
146.071
145.989
145.893
145.789
145.683
145.582
145.497
145.435
145.409
145.426
145.489
145.596
145.735
145.892
146.049
146.189
146.302
146.381
146.423
146.431
146.406
146.35
146.266
146.159
146.035
145.902
145.767
145.637
145.515
145.402
145.292
145.185
145.023
144.916
144.355
139.312
139.118
139.166
139.234
139.267
139.428
139.878
140.6
141.433
142.219
142.888
143.444
143.918
144.335
144.709
145.047
145.349
145.609
145.821
145.98
146.09
146.153
146.176
146.165
146.124
146.059
145.974
145.877
145.772
145.666
145.568
145.485
145.429
145.408
145.432
145.503
145.616
145.76
145.918
146.073
146.209
146.317
146.39
146.427
146.429
146.399
146.338
146.25
146.14
146.014
145.881
145.746
145.617
145.497
145.385
145.275
145.166
144.997
144.883
144.291
139.255
139.11
139.185
139.243
139.276
139.474
139.976
140.732
141.567
142.335
142.983
143.524
143.987
144.396
144.765
145.097
145.393
145.646
145.85
146.001
146.102
146.159
146.177
146.161
146.115
146.047
145.96
145.86
145.755
145.65
145.553
145.474
145.423
145.409
145.44
145.518
145.637
145.784
145.943
146.096
146.229
146.331
146.398
146.43
146.427
146.391
146.326
146.234
146.121
145.993
145.859
145.725
145.598
145.478
145.368
145.258
145.146
144.969
144.847
144.224
139.197
139.112
139.205
139.25
139.289
139.528
140.081
140.866
141.698
142.447
143.075
143.601
144.055
144.457
144.819
145.147
145.437
145.682
145.877
146.02
146.114
146.164
146.176
146.155
146.106
146.034
145.944
145.844
145.738
145.634
145.539
145.464
145.417
145.411
145.45
145.535
145.659
145.809
145.969
146.119
146.247
146.344
146.406
146.431
146.423
146.383
146.313
146.218
146.102
145.972
145.838
145.704
145.578
145.46
145.351
145.24
145.125
144.94
144.808
144.153
139.145
139.124
139.224
139.254
139.305
139.59
140.194
141.002
141.828
142.556
143.164
143.677
144.121
144.516
144.874
145.195
145.479
145.716
145.903
146.038
146.125
146.168
146.175
146.149
146.096
146.021
145.929
145.827
145.721
145.618
145.525
145.454
145.413
145.414
145.46
145.552
145.682
145.835
145.994
146.142
146.265
146.356
146.412
146.432
146.419
146.374
146.3
146.2
146.082
145.951
145.816
145.684
145.559
145.442
145.334
145.222
145.103
144.909
144.767
144.079
139.105
139.143
139.24
139.256
139.326
139.662
140.314
141.138
141.954
142.661
143.251
143.75
144.186
144.575
144.927
145.243
145.52
145.75
145.928
146.055
146.134
146.172
146.173
146.142
146.085
146.007
145.913
145.81
145.704
145.602
145.512
145.445
145.41
145.418
145.471
145.57
145.705
145.86
146.018
146.163
146.282
146.368
146.418
146.432
146.414
146.364
146.285
146.183
146.061
145.93
145.795
145.663
145.54
145.425
145.317
145.204
145.081
144.877
144.724
144.001
139.08
139.165
139.252
139.257
139.353
139.743
140.439
141.275
142.076
142.762
143.335
143.823
144.25
144.633
144.979
145.29
145.559
145.782
145.952
146.071
146.143
146.174
146.17
146.135
146.074
145.993
145.897
145.793
145.687
145.587
145.5
145.437
145.408
145.423
145.484
145.59
145.729
145.886
146.043
146.184
146.298
146.378
146.422
146.432
146.408
146.353
146.271
146.164
146.041
145.908
145.773
145.643
145.521
145.407
145.299
145.186
145.057
144.843
144.678
143.919
139.071
139.189
139.261
139.259
139.387
139.833
140.569
141.411
142.195
142.86
143.417
143.894
144.313
144.69
145.031
145.335
145.598
145.812
145.974
146.085
146.15
146.176
146.166
146.127
146.062
145.979
145.881
145.776
145.671
145.572
145.488
145.43
145.407
145.429
145.498
145.61
145.753
145.911
146.067
146.205
146.313
146.387
146.426
146.43
146.401
146.342
146.255
146.146
146.02
145.887
145.752
145.623
145.502
145.39
145.282
145.166
145.032
144.806
144.628
143.834
139.075
139.212
139.266
139.261
139.429
139.932
140.703
141.546
142.311
142.955
143.496
143.963
144.375
144.746
145.081
145.38
145.635
145.841
145.995
146.098
146.157
146.176
146.162
146.118
146.05
145.964
145.865
145.76
145.654
145.557
145.477
145.423
145.408
145.437
145.513
145.631
145.778
145.937
146.091
146.224
146.327
146.396
146.429
146.427
146.394
146.33
146.239
146.127
145.999
145.865
145.731
145.603
145.484
145.373
145.265
145.147
145.005
144.768
144.576
143.744
139.09
139.233
139.267
139.267
139.48
140.04
140.84
141.677
142.422
143.047
143.574
144.031
144.436
144.801
145.131
145.424
145.672
145.869
146.014
146.11
146.162
146.176
146.156
146.109
146.038
145.949
145.848
145.743
145.638
145.543
145.466
145.418
145.409
145.446
145.529
145.653
145.803
145.962
146.114
146.243
146.341
146.404
146.431
146.424
146.385
146.317
146.223
146.107
145.978
145.844
145.71
145.584
145.466
145.356
145.248
145.126
144.977
144.727
144.521
143.651
139.111
139.251
139.266
139.276
139.541
140.155
140.978
141.806
142.53
143.136
143.65
144.098
144.496
144.856
145.18
145.466
145.707
145.896
146.033
146.121
146.167
146.175
146.151
146.099
146.024
145.933
145.832
145.726
145.622
145.529
145.456
145.414
145.412
145.456
145.546
145.675
145.828
145.987
146.136
146.261
146.353
146.41
146.432
146.42
146.377
146.304
146.206
146.087
145.957
145.822
145.69
145.564
145.448
145.339
145.23
145.105
144.948
144.684
144.462
143.554
139.136
139.267
139.262
139.291
139.612
140.278
141.117
141.932
142.634
143.222
143.725
144.164
144.555
144.909
145.228
145.508
145.74
145.921
146.05
146.131
146.17
146.173
146.144
146.088
146.011
145.918
145.815
145.709
145.606
145.516
145.447
145.41
145.415
145.467
145.565
145.698
145.854
146.012
146.158
146.278
146.365
146.416
146.432
146.415
146.367
146.29
146.188
146.067
145.936
145.801
145.669
145.545
145.43
145.322
145.212
145.083
144.917
144.638
144.399
143.453
139.163
139.278
139.256
139.312
139.694
140.407
141.255
142.054
142.734
143.306
143.798
144.228
144.614
144.962
145.275
145.548
145.772
145.945
146.066
146.14
146.173
146.17
146.137
146.077
145.997
145.902
145.798
145.692
145.591
145.503
145.438
145.408
145.42
145.48
145.584
145.722
145.879
146.037
146.179
146.294
146.375
146.421
146.432
146.41
146.356
146.275
146.17
146.047
145.914
145.779
145.649
145.526
145.413
145.305
145.193
145.059
144.883
144.59
144.333
143.348
139.191
139.286
139.251
139.341
139.785
140.54
141.392
142.172
142.832
143.389
143.869
144.292
144.671
145.014
145.321
145.587
145.803
145.967
146.08
146.148
146.175
146.167
146.129
146.066
145.983
145.886
145.781
145.676
145.576
145.491
145.431
145.407
145.426
145.493
145.604
145.746
145.905
146.061
146.2
146.309
146.385
146.425
146.43
146.403
146.345
146.26
146.151
146.026
145.893
145.758
145.629
145.508
145.395
145.288
145.175
145.035
144.848
144.539
144.263
143.239
139.219
139.289
139.246
139.379
139.887
140.677
141.526
142.286
142.926
143.469
143.939
144.354
144.727
145.065
145.366
145.625
145.833
145.989
146.094
146.154
146.176
146.163
146.12
146.054
145.968
145.87
145.764
145.659
145.561
145.479
145.424
145.406
145.434
145.508
145.625
145.771
145.93
146.085
146.219
146.324
146.394
146.428
146.428
146.396
146.334
146.244
146.132
146.005
145.871
145.737
145.609
145.489
145.378
145.27
145.155
145.009
144.811
144.485
144.189
143.127
139.247
139.287
139.243
139.427
139.998
140.817
141.658
142.396
143.017
143.547
144.008
144.416
144.783
145.115
145.41
145.661
145.861
146.008
146.106
146.16
146.176
146.158
146.111
146.041
145.953
145.853
145.747
145.643
145.547
145.468
145.419
145.407
145.442
145.524
145.646
145.796
145.956
146.108
146.238
146.337
146.401
146.43
146.425
146.388
146.321
146.228
146.113
145.984
145.85
145.716
145.589
145.471
145.361
145.253
145.135
144.982
144.771
144.427
144.111
143.01
139.272
139.282
139.244
139.486
140.117
140.958
141.786
142.502
143.106
143.624
144.076
144.476
144.838
145.165
145.453
145.697
145.888
146.027
146.118
146.165
146.175
146.152
146.102
146.028
145.938
145.837
145.731
145.627
145.533
145.458
145.414
145.41
145.452
145.541
145.669
145.821
145.981
146.131
146.256
146.35
146.408
146.432
146.421
146.379
146.308
146.211
146.093
145.963
145.828
145.696
145.57
145.453
145.344
145.236
145.114
144.953
144.729
144.367
144.029
142.89
139.294
139.272
139.25
139.557
140.244
141.098
141.91
142.605
143.193
143.699
144.142
144.536
144.892
145.213
145.495
145.731
145.914
146.045
146.128
146.169
146.173
146.146
146.091
146.015
145.922
145.82
145.714
145.611
145.519
145.449
145.41
145.413
145.463
145.559
145.692
145.847
146.006
146.153
146.274
146.362
146.414
146.432
146.417
146.37
146.294
146.193
146.073
145.942
145.807
145.675
145.551
145.435
145.327
145.218
145.092
144.923
144.684
144.304
143.943
142.766
139.312
139.259
139.264
139.64
140.377
141.238
142.03
142.705
143.278
143.773
144.207
144.594
144.945
145.261
145.536
145.763
145.938
146.061
146.137
146.172
146.171
146.139
146.08
146.001
145.906
145.803
145.697
145.595
145.506
145.44
145.407
145.418
145.475
145.578
145.715
145.873
146.031
146.174
146.29
146.373
146.42
146.432
146.411
146.36
146.28
146.175
146.053
145.92
145.785
145.655
145.532
145.418
145.31
145.2
145.069
144.891
144.636
144.237
143.852
142.639
139.325
139.245
139.286
139.734
140.515
141.375
142.147
142.801
143.36
143.845
144.271
144.652
144.997
145.307
145.576
145.795
145.961
146.076
146.145
146.174
146.168
146.131
146.069
145.987
145.89
145.786
145.68
145.58
145.494
145.432
145.406
145.423
145.489
145.598
145.74
145.898
146.055
146.195
146.306
146.382
146.424
146.431
146.405
146.349
146.265
146.157
146.032
145.899
145.764
145.635
145.513
145.4
145.293
145.181
145.045
144.857
144.586
144.167
143.756
142.509
139.331
139.23
139.319
139.84
140.657
141.509
142.259
142.895
143.441
143.916
144.334
144.708
145.048
145.353
145.614
145.825
145.982
146.089
146.152
146.175
146.164
146.123
146.057
145.972
145.874
145.769
145.664
145.565
145.482
145.425
145.405
145.43
145.503
145.618
145.764
145.924
146.079
146.215
146.32
146.391
146.427
146.429
146.398
146.337
146.249
146.138
146.011
145.877
145.743
145.615
145.495
145.383
145.276
145.162
145.02
144.82
144.532
144.094
143.656
142.376
139.329
139.217
139.364
139.956
140.8
141.639
142.367
142.987
143.521
143.985
144.395
144.764
145.099
145.397
145.651
145.853
146.002
146.102
146.158
146.175
146.159
146.114
146.045
145.957
145.858
145.752
145.647
145.55
145.471
145.419
145.406
145.439
145.519
145.64
145.789
145.95
146.102
146.234
146.334
146.399
146.43
146.426
146.39
146.325
146.233
146.119
145.99
145.856
145.722
145.595
145.477
145.366
145.259
145.142
144.994
144.782
144.475
144.017
143.55
142.24
139.321
139.207
139.422
140.081
140.943
141.765
142.472
143.076
143.598
144.053
144.456
144.819
145.149
145.441
145.687
145.88
146.021
146.114
146.163
146.175
146.154
146.104
146.032
145.942
145.841
145.735
145.631
145.536
145.46
145.414
145.408
145.448
145.535
145.662
145.815
145.975
146.125
146.252
146.347
146.407
146.431
146.422
146.382
146.312
146.216
146.099
145.969
145.834
145.701
145.576
145.459
145.349
145.242
145.122
144.966
144.74
144.415
143.936
143.44
142.101
139.307
139.204
139.494
140.215
141.085
141.887
142.574
143.164
143.674
144.12
144.516
144.874
145.198
145.483
145.721
145.906
146.039
146.124
146.167
146.173
146.148
146.094
146.019
145.927
145.825
145.719
145.615
145.523
145.451
145.41
145.411
145.459
145.553
145.685
145.84
146
146.147
146.269
146.359
146.413
146.432
146.418
146.373
146.298
146.198
146.079
145.948
145.813
145.681
145.556
145.441
145.332
145.224
145.1
144.936
144.697
144.352
143.851
143.325
141.961
139.288
139.207
139.579
140.355
141.224
142.005
142.673
143.249
143.749
144.185
144.574
144.927
145.246
145.524
145.754
145.931
146.056
146.133
146.17
146.171
146.141
146.083
146.005
145.911
145.808
145.702
145.6
145.51
145.442
145.407
145.415
145.471
145.572
145.709
145.866
146.025
146.169
146.286
146.37
146.418
146.432
146.413
146.363
146.284
146.181
146.059
145.926
145.791
145.661
145.537
145.423
145.315
145.206
145.078
144.904
144.65
144.285
143.763
143.205
141.819
139.266
139.22
139.679
140.499
141.36
142.119
142.77
143.333
143.821
144.249
144.632
144.98
145.293
145.564
145.786
145.954
146.071
146.142
146.173
146.168
146.133
146.072
145.991
145.895
145.791
145.685
145.584
145.497
145.434
145.405
145.421
145.484
145.592
145.733
145.892
146.049
146.19
146.302
146.38
146.423
146.431
146.407
146.352
146.269
146.162
146.038
145.905
145.77
145.64
145.519
145.406
145.298
145.188
145.055
144.871
144.601
144.215
143.67
143.081
141.676
139.241
139.245
139.793
140.645
141.492
142.229
142.864
143.415
143.893
144.313
144.689
145.032
145.339
145.603
145.816
145.976
146.085
146.149
146.174
146.165
146.125
146.06
145.976
145.879
145.774
145.668
145.569
145.485
145.426
145.404
145.427
145.498
145.612
145.758
145.917
146.073
146.21
146.317
146.389
146.426
146.429
146.4
146.341
146.254
146.143
146.017
145.883
145.749
145.62
145.5
145.388
145.281
145.169
145.03
144.835
144.549
144.141
143.574
142.951
141.532
139.212
139.284
139.919
140.792
141.62
142.336
142.956
143.495
143.963
144.374
144.745
145.083
145.384
145.64
145.845
145.996
146.098
146.156
146.175
146.16
146.116
146.048
145.962
145.862
145.757
145.652
145.554
145.473
145.42
145.405
145.435
145.513
145.634
145.783
145.943
146.097
146.229
146.33
146.397
146.429
146.427
146.393
146.329
146.238
146.124
145.996
145.862
145.728
145.601
145.482
145.371
145.264
145.149
145.004
144.797
144.494
144.064
143.473
142.816
141.389
139.181
139.341
140.056
140.936
141.742
142.44
143.046
143.573
144.031
144.435
144.801
145.133
145.428
145.676
145.872
146.015
146.11
146.161
146.175
146.155
146.107
146.035
145.946
145.846
145.74
145.636
145.54
145.463
145.415
145.406
145.444
145.53
145.656
145.808
145.969
146.12
146.247
146.343
146.405
146.431
146.424
146.385
146.316
146.221
146.105
145.975
145.84
145.707
145.581
145.464
145.354
145.247
145.129
144.977
144.757
144.435
143.982
143.369
142.676
141.246
139.15
139.418
140.201
141.077
141.861
142.541
143.135
143.65
144.098
144.495
144.855
145.182
145.471
145.711
145.899
146.033
146.12
146.165
146.174
146.149
146.097
146.022
145.931
145.829
145.723
145.62
145.526
145.453
145.41
145.409
145.455
145.547
145.679
145.834
145.994
146.142
146.265
146.356
146.411
146.432
146.419
146.376
146.303
146.204
146.085
145.954
145.819
145.687
145.562
145.446
145.337
145.23
145.108
144.948
144.714
144.373
143.897
143.26
142.532
141.104
139.124
139.515
140.35
141.214
141.975
142.64
143.221
143.725
144.164
144.554
144.909
145.231
145.512
145.745
145.923
146.05
146.13
146.169
146.172
146.143
146.086
146.009
145.915
145.813
145.707
145.604
145.513
145.444
145.407
145.413
145.466
145.566
145.702
145.859
146.019
146.164
146.282
146.367
146.417
146.432
146.415
146.366
146.288
146.186
146.064
145.932
145.797
145.666
145.543
145.428
145.321
145.212
145.087
144.917
144.669
144.308
143.808
143.147
142.383
140.965
139.111
139.631
140.501
141.345
142.086
142.738
143.306
143.798
144.228
144.612
144.962
145.278
145.553
145.777
145.947
146.066
146.139
146.172
146.169
146.135
146.075
145.995
145.9
145.796
145.69
145.588
145.5
145.435
145.405
145.418
145.479
145.586
145.726
145.885
146.043
146.185
146.298
146.377
146.421
146.431
146.409
146.356
146.274
146.168
146.044
145.911
145.776
145.646
145.524
145.411
145.304
145.194
145.064
144.884
144.62
144.239
143.715
143.03
142.23
140.828
139.116
139.764
140.65
141.471
142.195
142.833
143.389
143.87
144.291
144.67
145.015
145.325
145.592
145.807
145.969
146.08
146.146
146.173
146.166
146.127
146.064
145.98
145.883
145.779
145.673
145.573
145.488
145.428
145.403
145.424
145.493
145.606
145.751
145.911
146.067
146.205
146.313
146.386
146.425
146.43
146.402
146.344
146.258
146.149
146.023
145.889
145.755
145.626
145.506
145.394
145.287
145.175
145.04
144.849
144.569
144.166
143.618
142.908
142.073
140.696
139.145
139.911
140.794
141.593
142.301
142.926
143.47
143.94
144.353
144.726
145.066
145.37
145.63
145.837
145.99
146.093
146.153
146.174
146.161
146.119
146.052
145.966
145.867
145.762
145.657
145.558
145.476
145.421
145.403
145.432
145.508
145.627
145.776
145.937
146.091
146.224
146.327
146.395
146.428
146.428
146.395
146.333
146.242
146.13
146.002
145.868
145.734
145.607
145.487
145.377
145.27
145.156
145.014
144.812
144.515
144.09
143.517
142.782
141.913
140.568
139.205
140.065
140.932
141.711
142.406
143.018
143.549
144.009
144.415
144.782
145.117
145.415
145.666
145.865
146.009
146.106
146.159
146.174
146.157
146.11
146.039
145.951
145.851
145.745
145.64
145.544
145.465
145.415
145.405
145.441
145.524
145.649
145.801
145.962
146.114
146.243
146.34
146.403
146.43
146.425
146.387
146.32
146.226
146.11
145.981
145.846
145.713
145.587
145.469
145.36
145.253
145.137
144.988
144.773
144.457
144.01
143.412
142.652
141.75
140.445
139.302
140.219
141.064
141.826
142.508
143.107
143.626
144.076
144.475
144.837
145.167
145.458
145.701
145.891
146.028
146.117
146.164
146.174
146.151
146.1
146.026
145.935
145.834
145.728
145.624
145.53
145.455
145.41
145.407
145.451
145.542
145.672
145.827
145.988
146.137
146.261
146.352
146.409
146.431
146.421
146.378
146.307
146.209
146.091
145.96
145.825
145.693
145.568
145.452
145.343
145.236
145.116
144.959
144.731
144.396
143.926
143.303
142.517
141.585
140.329
139.447
140.362
141.189
141.939
142.609
143.195
143.701
144.142
144.534
144.891
145.216
145.5
145.735
145.916
146.045
146.127
146.168
146.172
146.145
146.089
146.013
145.92
145.817
145.711
145.608
145.516
145.445
145.407
145.41
145.462
145.56
145.696
145.853
146.013
146.158
146.278
146.364
146.415
146.432
146.416
146.369
146.293
146.191
146.07
145.938
145.803
145.672
145.549
145.434
145.326
145.218
145.095
144.929
144.687
144.332
143.839
143.19
142.378
141.418
140.22
)
;

boundaryField
{
    bottomwall
    {
        type            opaque;
        refValue        uniform 0;
        refGradient     uniform 0;
        valueFraction   uniform 0;
        source          uniform 0;
        value           nonuniform List<scalar> 
60
(
139.167
139.266
139.242
139.248
139.25
139.215
139.185
139.196
139.287
139.531
139.997
140.677
141.472
142.255
142.941
143.509
143.982
144.391
144.756
145.087
145.381
145.634
145.84
145.995
146.1
146.159
146.178
146.163
146.119
146.051
145.965
145.866
145.761
145.656
145.559
145.48
145.428
145.413
145.441
145.515
145.63
145.774
145.931
146.084
146.219
146.324
146.395
146.429
146.428
146.394
146.33
146.239
146.127