/*--------------------------------*- C++ -*----------------------------------*\
| =========                 |                                                 |
| \\      /  F ield         | OpenFOAM: The Open Source CFD Toolbox           |
|  \\    /   O peration     | Version:  2406                                  |
|   \\  /    A nd           | Website:  www.openfoam.com                      |
|    \\/     M anipulation  |                                                 |
\*---------------------------------------------------------------------------*/
FoamFile
{
    version     2.0;
    format      ascii;
    arch        "LSB;label=32;scalar=64";
    class       volScalarField;
    location    "15000";
    object      ILambda_7_0;
}
// * * * * * * * * * * * * * * * * * * * * * * * * * * * * * * * * * * * * * //

dimensions      [1 0 -3 0 0 0 0];

internalField   nonuniform List<scalar> 
3600
(
139.021
139.077
139.129
139.191
139.264
139.338
139.39
139.399
139.364
139.296
139.219
139.155
139.113
139.097
139.1
139.115
139.137
139.165
139.204
139.262
139.343
139.426
139.453
139.348
139.093
138.849
139.007
140.056
142.158
144.574
145.268
141.201
129.614
110.156
87.0983
70.4734
75.1642
117.678
211.404
361.993
564.629
804.336
1059.2
1305.26
1521.21
1691.36
1806.25
1861.48
1855.89
1790.4
1668.14
1495.57
1283.69
1048.26
808.499
584.352
392.741
245.548
145.625
83.0309
139.115
139.163
139.224
139.303
139.38
139.425
139.415
139.352
139.261
139.173
139.111
139.083
139.082
139.099
139.124
139.152
139.184
139.226
139.29
139.378
139.465
139.481
139.341
139.036
138.774
139.034
140.36
142.841
145.417
145.511
139.557
124.744
101.642
76.6391
62.7636
77.8383
139.975
261.745
445.204
679.857
944.496
1212.24
1456.76
1657.37
1801.31
1883.04
1901.77
1858.89
1756.93
1600.23
1396.85
1160.03
908.213
662.902
444.937
270.488
147.771
77.4743
46.9316
63.7139
139.156
139.21
139.29
139.372
139.421
139.411
139.349
139.259
139.174
139.116
139.091
139.091
139.107
139.128
139.153
139.182
139.222
139.281
139.365
139.453
139.483
139.369
139.084
138.805
138.976
140.153
142.49
145.058
145.418
140.071
126.13
103.923
79.4687
65.3883
79.1587
138.684
256.507
434.857
663.621
922.186
1184.44
1424.89
1623.62
1768.37
1853.73
1878.58
1843.67
1750.69
1603.14
1408.37
1179.07
933.286
692.204
476.436
301.992
177.344
102.35
70.3382
65.9425
93.6231
139.203
139.286
139.375
139.429
139.42
139.354
139.259
139.171
139.113
139.088
139.09
139.106
139.128
139.153
139.182
139.221
139.278
139.359
139.449
139.494
139.403
139.135
138.829
138.909
139.947
142.189
144.835
145.538
140.762
127.399
105.433
80.5816
65.4008
77.6541
135.828
253.122
432.203
662.971
924.371
1189.58
1432.42
1632.54
1777.66
1862.61
1886.62
1850.69
1756.51
1607.47
1410.72
1178.94
930.342
686.485
468.443
292.613
167.643
93.4533
62.4106
62.7337
78.3841
113.053
139.276
139.376
139.436
139.427
139.356
139.257
139.166
139.108
139.086
139.09
139.108
139.129
139.154
139.183
139.221
139.275
139.353
139.443
139.499
139.433
139.183
138.86
138.855
139.756
141.889
144.584
145.601
141.38
128.615
106.962
81.8426
65.7353
76.647
133.563
250.214
429.563
661.402
924.2
1190.52
1433.72
1633.39
1777.52
1861.46
1884.93
1849.1
1755.52
1607.22
1410.97
1179.22
930.235
685.848
467.46
291.707
167.286
93.9609
63.8846
64.5747
82.6268
105.052
133.246
139.376
139.444
139.435
139.359
139.254
139.161
139.104
139.085
139.091
139.109
139.131
139.154
139.183
139.22
139.273
139.347
139.437
139.502
139.459
139.232
138.897
138.815
139.577
141.586
144.31
145.625
141.968
129.835
108.543
83.1846
66.1337
75.6309
131.182
247.098
426.69
659.685
924.093
1191.84
1435.81
1635.43
1778.97
1862.26
1885.42
1849.77
1756.73
1608.91
1412.73
1180.48
930.502
684.956
465.624
289.425
165.14
92.4051
63.1225
64.5504
82.9501
106.609
127.218
145.089
139.456
139.444
139.361
139.25
139.156
139.1
139.084
139.092
139.111
139.132
139.155
139.183
139.22
139.271
139.342
139.43
139.503
139.481
139.28
138.941
138.788
139.411
141.284
144.014
145.61
142.519
131.049
110.162
84.5992
66.6017
74.6408
128.765
243.9
423.739
657.944
924.032
1193.25
1437.96
1637.44
1780.24
1862.71
1885.42
1849.91
1757.38
1610.1
1414.07
1181.37
930.483
683.865
463.697
287.185
163.181
91.1805
62.8091
65.0429
83.935
107.727
128.488
142.708
150.497
139.46
139.364
139.246
139.15
139.096
139.083
139.094
139.113
139.133
139.155
139.182
139.22
139.27
139.338
139.423
139.501
139.499
139.325
138.991
138.775
139.26
140.985
143.697
145.553
143.03
132.254
111.821
86.0918
67.1479
73.683
126.309
240.606
420.681
656.138
923.982
1194.74
1440.21
1639.52
1781.53
1863.13
1885.4
1850.05
1758.13
1611.45
1415.59
1182.46
930.602
682.848
461.787
284.924
161.187
89.9172
62.4545
65.48
84.8535
108.746
129.378
143.142
150.186
150.97
139.372
139.242
139.143
139.092
139.082
139.096
139.116
139.135
139.155
139.181
139.219
139.269
139.334
139.416
139.497
139.513
139.368
139.044
138.776
139.126
140.691
143.36
145.454
143.496
133.445
113.519
87.6659
67.7785
72.7623
123.813
237.209
417.509
654.268
923.95
1196.32
1442.57
1641.68
1782.82
1863.48
1885.28
1850.12
1758.85
1612.82
1417.17
1183.57
930.717
681.782
459.8
282.587
159.141
88.6403
62.1217
65.961
85.8185
109.818
130.248
143.723
150.159
151.684
149.126
139.238
139.136
139.088
139.082
139.098
139.118
139.136
139.155
139.181
139.218
139.269
139.332
139.41
139.492
139.523
139.407
139.1
138.791
139.011
140.405
143.006
145.31
143.914
134.618
115.253
89.325
68.5006
71.8846
121.28
233.706
414.215
652.326
923.935
1198
1445.05
1643.92
1784.11
1863.77
1885.06
1850.12
1759.55
1614.24
1418.83
1184.77
930.865
680.701
457.765
280.196
157.061
87.3608
61.8137
66.4795
86.8168
110.906
131.125
144.239
150.356
151.414
149.954
146.912
139.127
139.084
139.083
139.101
139.121
139.138
139.154
139.179
139.217
139.269
139.33
139.405
139.485
139.528
139.442
139.158
138.817
138.915
140.13
142.638
145.123
144.279
135.767
117.022
91.0726
69.3216
71.0567
118.708
230.09
410.791
650.307
923.938
1199.77
1447.66
1646.24
1785.41
1863.98
1884.74
1850.04
1760.24
1615.71
1420.57
1186.03
931.04
679.595
455.67
277.74
154.939
86.074
61.5285
67.0355
87.8497
112.013
132.003
144.747
150.509
151.329
149.655
147.432
145.411
139.077
139.083
139.103
139.124
139.139
139.154
139.178
139.216
139.268
139.33
139.4
139.478
139.53
139.471
139.216
138.856
138.839
139.869
142.257
144.89
144.586
136.885
118.822
92.9123
70.2499
70.2861
116.101
226.354
407.225
648.202
923.957
1201.66
1450.4
1648.65
1786.7
1864.11
1884.31
1849.87
1760.92
1617.23
1422.39
1187.37
931.243
678.463
453.513
275.219
152.776
84.7826
61.2701
67.6324
88.9189
113.14
132.882
145.243
150.642
151.222
149.44
147.221
145.553
144.862
139.08
139.106
139.126
139.14
139.154
139.177
139.215
139.268
139.33
139.397
139.471
139.528
139.494
139.272
138.904
138.786
139.627
141.867
144.612
144.83
137.967
120.651
94.8474
71.2944
69.5814
113.46
222.493
403.508
646.003
923.992
1203.65
1453.3
1651.17
1788.01
1864.16
1883.76
1849.62
1761.59
1618.82
1424.32
1188.79
931.476
677.301
451.289
272.628
150.57
83.4874
61.0403
68.2719
90.0252
114.287
133.76
145.724
150.759
151.099
149.225
147.01
145.462
144.752
145.008
139.107
139.128
139.141
139.153
139.175
139.213
139.267
139.33
139.396
139.464
139.523
139.512
139.325
138.962
138.754
139.405
141.474
144.29
145.007
139.004
122.503
96.881
72.4648
68.9523
110.788
218.5
399.627
643.702
924.043
1205.77
1456.35
1653.79
1789.31
1864.11
1883.07
1849.27
1762.24
1620.47
1426.35
1190.29
931.738
676.106
448.994
269.964
148.32
82.19
60.8419
68.9566
91.1699
115.452
134.637
146.19
150.856
150.961
149
146.812
145.33
144.756
144.809
145.447
139.131
139.142
139.153
139.173
139.211
139.267
139.331
139.395
139.458
139.517
139.522
139.372
139.026
138.745
139.209
141.08
143.925
145.112
139.987
124.373
99.016
73.7717
68.4101
108.088
214.366
395.569
641.288
924.11
1208.03
1459.57
1656.53
1790.62
1863.96
1882.25
1848.82
1762.87
1622.19
1428.48
1191.89
932.029
674.875
446.622
267.224
146.025
80.8918
60.6775
69.6886
92.3538
116.637
135.511
146.639
150.933
150.808
148.77
146.613
145.213
144.712
144.859
145.273
145.869
139.144
139.153
139.172
139.209
139.265
139.332
139.396
139.455
139.509
139.527
139.414
139.093
138.757
139.041
140.693
143.52
145.14
140.908
126.254
101.255
75.2265
67.9673
105.364
210.086
391.319
638.748
924.191
1210.42
1462.98
1659.39
1791.92
1863.71
1881.28
1848.27
1763.49
1623.99
1430.74
1193.58
932.351
673.605
444.17
264.403
143.685
79.5947
60.5502
70.4707
93.5781
117.839
136.38
147.071
150.989
150.64
148.534
146.417
145.101
144.68
144.875
145.327
145.764
146.131
139.152
139.171
139.208
139.264
139.332
139.397
139.452
139.501
139.527
139.447
139.162
138.79
138.904
140.319
143.078
145.086
141.755
128.137
103.599
76.8415
67.6384
102.622
205.65
386.862
636.071
924.284
1212.97
1466.59
1662.38
1793.23
1863.33
1880.14
1847.6
1764.11
1625.87
1433.12
1195.37
932.704
672.29
441.631
261.498
141.299
78.3008
60.4632
71.3054
94.8437
119.059
137.244
147.482
151.024
150.458
148.293
146.223
144.995
144.654
144.896
145.364
145.798
146.093
146.228
139.169
139.206
139.262
139.332
139.399
139.452
139.494
139.522
139.47
139.229
138.842
138.802
139.964
142.604
144.948
142.517
130.012
106.049
78.6299
67.4399
99.8694
201.05
382.178
633.24
924.388
1215.68
1470.41
1665.52
1794.54
1862.82
1878.83
1846.8
1764.7
1627.84
1435.64
1197.27
933.087
670.927
438.998
258.505
138.866
77.0123
60.4201
72.1954
96.1515
120.295
138.1
147.873
151.037
150.261
148.047
146.032
144.895
144.634
144.922
145.401
145.83
146.102
146.233
146.215
139.203
139.26
139.331
139.401
139.454
139.489
139.513
139.485
139.29
138.908
138.737
139.636
142.106
144.723
143.182
131.866
108.604
80.6061
67.3909
97.1143
196.277
377.248
630.24
924.5
1218.57
1474.48
1668.82
1795.85
1862.17
1877.32
1845.88
1765.29
1629.92
1438.3
1199.28
933.499
669.51
436.266
255.418
136.385
75.7318
60.4245
73.1437
97.5025
121.547
138.947
148.24
151.027
150.049
147.797
145.845
144.803
144.62
144.95
145.439
145.857
146.118
146.224
146.244
146.153
139.257
139.33
139.402
139.456
139.486
139.504
139.49
139.342
138.985
138.709
139.344
141.59
144.408
143.735
133.684
111.262
82.7853
67.5131
94.3676
191.322
372.049
627.049
924.619
1221.65
1478.79
1672.29
1797.16
1861.37
1875.61
1844.81
1765.87
1632.1
1441.12
1201.41
933.942
668.033
433.428
252.234
133.856
74.4623
60.4806
74.1532
98.8975
122.814
139.783
148.584
150.993
149.823
147.544
145.662
144.718
144.612
144.982
145.477
145.884
146.129
146.228
146.228
146.194
146.074
139.328
139.403
139.459
139.486
139.495
139.487
139.382
139.067
138.717
139.096
141.07
144.005
144.163
135.447
114.019
85.1836
67.8318
91.6431
186.175
366.556
623.647
924.739
1224.94
1483.39
1675.95
1798.46
1860.4
1873.68
1843.6
1766.44
1634.41
1444.1
1203.66
934.413
666.489
430.475
248.948
131.278
73.2071
60.5927
75.227
100.337
124.094
140.605
148.901
150.935
149.583
147.289
145.485
144.641
144.611
145.016
145.516
145.91
146.139
146.226
146.226
146.176
146.124
145.99
139.402
139.462
139.489
139.488
139.478
139.408
139.149
138.76
138.9
140.557
143.518
144.45
137.134
116.866
87.8178
68.376
88.9576
180.827
360.739
620.008
924.858
1228.46
1488.3
1679.81
1799.76
1859.24
1871.51
1842.22
1767.01
1636.84
1447.27
1206.05
934.911
664.873
427.4
245.555
128.653
71.9698
60.7655
76.3683
101.822
125.385
141.411
149.191
150.852
149.329
147.032
145.315
144.573
144.615
145.054
145.554
145.934
146.147
146.225
146.22
146.175
146.107
146.046
145.899
139.465
139.493
139.485
139.466
139.42
139.222
138.832
138.763
140.068
142.952
144.581
138.717
119.792
90.7054
69.1796
86.3324
175.268
354.565
616.101
924.971
1232.22
1493.54
1683.89
1801.05
1857.87
1869.07
1840.68
1767.58
1639.42
1450.63
1208.58
935.435
663.176
424.195
242.05
125.98
70.7546
61.0039
77.5804
103.353
126.687
142.2
149.451
150.743
149.063
146.774
145.151
144.513
144.626
145.093
145.592
145.956
146.153
146.222
146.214
146.17
146.109
146.032
145.96
145.802
139.499
139.487
139.454
139.417
139.28
138.925
138.691
139.622
142.32
144.544
140.167
122.78
93.8635
70.2819
83.7942
169.488
347.998
611.892
925.07
1236.26
1499.15
1688.21
1802.33
1856.28
1866.34
1838.95
1768.15
1642.16
1454.21
1211.25
935.982
661.388
420.849
238.428
123.259
69.5661
61.3135
78.8666
104.93
127.997
142.967
149.68
150.608
148.783
146.517
144.995
144.461
144.643
145.135
145.629
145.976
146.158
146.218
146.209
146.166
146.107
146.035
145.948
145.863
145.702
139.494
139.448
139.405
139.317
139.026
138.684
139.239
141.641
144.326
141.447
125.804
97.3086
71.7289
81.3764
163.477
340.993
607.34
925.149
1240.59
1505.17
1692.79
1803.58
1854.43
1863.31
1837.03
1768.73
1645.08
1458
1214.08
936.549
659.502
417.353
234.683
120.491
68.4094
61.7
80.2305
106.553
129.313
143.711
149.875
150.448
148.493
146.261
144.847
144.419
144.666
145.179
145.664
145.994
146.162
146.214
146.203
146.162
146.105
146.035
145.951
145.853
145.758
145.608
139.45
139.389
139.33
139.122
138.738
138.942
140.941
143.92
142.513
128.83
101.055
73.5744
79.122
157.229
333.501
602.397
925.199
1245.26
1511.65
1697.66
1804.81
1852.31
1859.94
1834.91
1769.33
1648.18
1462.04
1217.07
937.134
657.506
413.696
230.81
117.678
67.2901
62.1696
81.6756
108.222
130.632
144.429
150.035
150.26
148.191
146.009
144.709
144.386
144.694
145.223
145.699
146.01
146.163
146.209
146.197
146.159
146.105
146.036
145.952
145.855
145.751
145.653
145.53
139.379
139.322
139.196
138.841
138.749
140.255
143.329
143.32
131.811
105.112
75.8815
77.0856
150.735
325.461
597.004
925.208
1250.29
1518.62
1702.84
1806.01
1849.88
1856.19
1832.56
1769.95
1651.5
1466.34
1220.23
937.732
655.389
409.867
226.803
114.821
66.2145
62.729
83.2054
109.937
131.951
145.116
150.157
150.046
147.88
145.761
144.582
144.363
144.727
145.269
145.731
146.024
146.163
146.203
146.192
146.156
146.104
146.036
145.952
145.856
145.751
145.65
145.558
145.475
139.3
139.234
138.968
138.676
139.63
142.567
143.814
134.683
109.483
78.7241
75.338
143.995
316.805
591.092
925.165
1255.74
1526.16
1708.36
1807.16
1847.1
1852.05
1829.99
1770.61
1655.06
1470.92
1223.57
938.337
653.138
405.854
222.657
111.922
65.1898
63.3853
84.8238
111.697
133.267
145.769
150.241
149.805
147.56
145.518
144.466
144.35
144.766
145.315
145.762
146.036
146.162
146.197
146.187
146.153
146.104
146.037
145.953
145.856
145.752
145.648
145.56
145.484
145.454
139.227
139.086
138.722
139.124
141.669
143.942
137.356
114.154
82.1886
73.9718
137.011
307.448
584.574
925.053
1261.66
1534.33
1714.26
1808.24
1843.93
1847.47
1827.18
1771.31
1658.87
1475.79
1227.09
938.944
650.74
401.643
218.365
108.985
64.2234
64.1461
86.5345
113.501
134.576
146.386
150.283
149.537
147.234
145.282
144.362
144.346
144.808
145.361
145.79
146.045
146.159
146.191
146.182
146.151
146.104
146.038
145.954
145.857
145.752
145.649
145.557
145.49
145.439
145.468
139.152
138.862
138.798
140.702
143.659
139.715
119.092
86.3752
73.1098
129.796
297.288
577.342
924.853
1268.11
1543.22
1720.58
1809.24
1840.32
1842.42
1824.13
1772.08
1662.97
1480.99
1230.8
939.546
648.18
397.222
213.922
106.011
63.324
65.0196
88.3411
115.349
135.874
146.961
150.282
149.243
146.902
145.056
144.271
144.352
144.855
145.406
145.816
146.051
146.155
146.184
146.177
146.15
146.104
146.039
145.955
145.857
145.752
145.649
145.557
145.486
145.451
145.431
145.521
139.039
138.705
139.774
142.94
141.607
124.222
91.3972
72.9171
122.378
286.202
569.26
924.541
1275.19
1552.92
1727.33
1810.12
1836.22
1836.84
1820.81
1772.94
1667.37
1486.53
1234.72
940.135
645.442
392.575
209.322
103.005
62.5011
66.0148
90.2474
117.237
137.157
147.49
150.236
148.924
146.566
144.84
144.193
144.368
144.905
145.45
145.839
146.055
146.15
146.178
146.173
146.149
146.105
146.04
145.956
145.858
145.752
145.649
145.557
145.487
145.446
145.446
145.464
145.609
138.869
139.05
141.814
142.835
129.405
97.3768
73.6196
114.815
274.033
560.149
924.086
1282.99
1563.56
1734.58
1810.83
1831.54
1830.71
1817.24
1773.9
1672.12
1492.43
1238.83
940.703
642.51
387.688
204.558
99.9707
61.765
67.141
92.2573
119.164
138.418
147.969
150.143
148.58
146.23
144.636
144.13
144.393
144.958
145.492
145.859
146.057
146.144
146.171
146.17
146.148
146.105
146.041
145.957
145.858
145.752
145.649
145.557
145.486
145.446
145.441
145.481
145.536
145.725
138.762
140.424
143.174
134.395
104.431
75.5325
107.21
260.583
549.77
923.45
1291.67
1575.29
1742.35
1811.31
1826.22
1823.98
1813.42
1774.99
1677.24
1498.71
1243.16
941.24
639.365
382.543
199.624
96.9136
61.1273
68.4085
94.3744
121.127
139.652
148.392
150.002
148.213
145.895
144.446
144.082
144.427
145.012
145.532
145.875
146.057
146.137
146.165
146.167
146.148
146.106
146.042
145.957
145.858
145.752
145.649
145.556
145.486
145.445
145.441
145.476
145.554
145.643
145.859
139.104
142.405
138.76
112.633
79.1033
99.7515
245.597
537.796
922.582
1301.42
1588.31
1750.68
1811.48
1820.15
1816.6
1809.35
1776.25
1682.76
1505.4
1247.71
941.737
635.99
377.123
194.511
93.8392
60.601
69.8287
96.6024
123.122
140.852
148.756
149.812
147.825
145.563
144.272
144.049
144.469
145.068
145.569
145.888
146.055
146.13
146.16
146.164
146.148
146.107
146.043
145.958
145.858
145.752
145.648
145.556
145.485
145.444
145.44
145.475
145.549
145.661
145.775
146
140.346
141.756
121.909
84.9788
92.7907
228.737
523.754
921.413
1312.51
1602.85
1759.59
1811.2
1813.21
1808.55
1805.07
1777.72
1688.71
1512.5
1252.47
942.186
632.364
371.408
189.213
90.754
60.2005
71.4138
98.9449
125.144
142.011
149.053
149.57
147.417
145.239
144.117
144.032
144.518
145.124
145.603
145.898
146.05
146.122
146.154
146.163
146.148
146.108
146.044
145.958
145.859
145.752
145.648
145.556
145.485
145.443
145.439
145.474
145.549
145.657
145.791
145.921
146.133
141.94
131.721
94.0918
86.9936
209.557
506.932
919.839
1325.35
1619.26
1769.09
1810.29
1805.27
1799.79
1800.62
1779.44
1695.12
1520.04
1257.46
942.58
628.468
365.377
183.72
87.6651
59.9423
73.1773
101.405
127.188
143.119
149.279
149.277
146.992
144.924
143.981
144.031
144.574
145.179
145.633
145.904
146.044
146.115
146.15
146.162
146.149
146.11
146.045
145.959
145.859
145.752
145.648
145.556
145.484
145.442
145.437
145.473
145.548
145.656
145.789
145.934
146.067
146.249
140.349
107.742
83.7005
187.458
486.186
917.703
1340.56
1638.01
1779.11
1808.47
1796.15
1790.36
1796.07
1781.46
1701.99
1528.01
1262.68
942.915
624.283
359.007
178.02
84.5808
59.8453
75.1343
103.987
129.247
144.167
149.428
148.933
146.555
144.623
143.867
144.046
144.636
145.232
145.658
145.907
146.037
146.107
146.146
146.161
146.15
146.111
146.045
145.959
145.859
145.753
145.649
145.556
145.484
145.442
145.436
145.472
145.547
145.656
145.789
145.933
146.076
146.199
146.337
128.55
86.047
161.714
459.531
914.743
1359.14
1659.75
1789.51
1805.31
1785.67
1780.31
1791.55
1783.83
1709.33
1536.41
1268.16
943.196
619.788
352.266
172.099
81.5106
59.9314
77.3019
106.692
131.311
145.144
149.493
148.537
146.108
144.34
143.776
144.075
144.702
145.282
145.679
145.906
146.029
146.1
146.143
146.161
146.151
146.112
146.046
145.959
145.859
145.753
145.649
145.556
145.483
145.441
145.435
145.47
145.546
145.655
145.789
145.933
146.076
146.203
146.307
146.392
104.801
132.281
423.178
910.486
1382.93
1685.48
1799.89
1800.13
1773.62
1769.82
1787.23
1786.55
1717.07
1545.24
1273.9
943.435
614.961
345.121
165.94
78.4661
60.2269
79.6992
109.523
133.371
146.038
149.468
148.091
145.657
144.079
143.71
144.12
144.77
145.328
145.694
145.902
146.02
146.094
146.141
146.162
146.152
146.113
146.046
145.959
145.859
145.753
145.649
145.556
145.483
145.44
145.434
145.469
145.545
145.654
145.788
145.934
146.077
146.205
146.307
146.384
146.412
103.891
368.736
904.059
1415.57
1716.78
1809.29
1791.84
1759.86
1759.26
1783.35
1789.63
1725.14
1554.48
1279.96
943.66
609.779
337.524
159.52
75.4617
60.7634
82.348
112.479
135.411
146.833
149.348
147.598
145.207
143.845
143.67
144.177
144.84
145.369
145.704
145.896
146.011
146.088
146.14
146.163
146.154
146.113
146.046
145.959
145.859
145.753
145.649
145.556
145.483
145.439
145.433
145.468
145.543
145.653
145.788
145.934
146.077
146.205
146.31
146.378
146.424
146.397
255.063
891.295
1465.63
1756.08
1815.37
1778.66
1744.51
1749.35
1780.22
1792.91
1733.36
1564.11
1286.42
943.918
604.207
329.413
152.81
72.5172
61.5801
85.273
115.56
137.414
147.514
149.126
147.062
144.766
143.641
143.656
144.246
144.908
145.404
145.709
145.887
146.002
146.084
146.14
146.164
146.155
146.114
146.046
145.959
145.859
145.753
145.649
145.555
145.482
145.439
145.432
145.467
145.542
145.653
145.788
145.934
146.078
146.206
146.31
146.382
146.415
146.428
146.349
805.683
1552.72
1804.85
1811.26
1757.73
1728.55
1741.44
1778.11
1796.05
1741.44
1574.15
1293.43
944.277
598.195
320.705
145.777
69.6606
62.7258
88.5013
118.759
139.359
148.063
148.799
146.488
144.342
143.473
143.67
144.325
144.973
145.432
145.709
145.877
145.993
146.081
146.14
146.166
146.156
146.114
146.046
145.959
145.859
145.753
145.649
145.555
145.482
145.438
145.431
145.466
145.541
145.652
145.787
145.934
146.079
146.207
146.311
146.382
146.419
146.415
146.398
146.273
1827.95
1833.43
1771.72
1725.8
1715.76
1737.74
1776.87
1798.25
1749.03
1584.74
1301.23
944.818
591.658
311.286
138.383
66.9334
64.2614
92.0626
122.067
141.218
148.46
148.364
145.884
143.944
143.344
143.709
144.41
145.033
145.452
145.704
145.866
145.986
146.079
146.141
146.167
146.157
146.115
146.046
145.959
145.859
145.753
145.649
145.555
145.481
145.437
145.43
145.464
145.54
145.651
145.787
145.935
146.079
146.208
146.311
146.383
146.418
146.42
146.382
146.335
146.174
1721.94
1710.32
1710.55
1719.1
1739.98
1774.7
1798.09
1755.87
1596.25
1310.17
945.606
584.454
301.006
130.592
64.3971
66.2626
95.9868
125.466
142.957
148.685
147.82
145.263
143.582
143.259
143.773
144.498
145.085
145.464
145.695
145.855
145.98
146.078
146.143
146.169
146.158
146.115
146.046
145.959
145.859
145.754
145.65
145.555
145.481
145.436
145.429
145.463
145.539
145.65
145.787
145.935
146.08
146.209
146.312
146.383
146.419
146.419
146.386
146.318
146.246
146.059
1731.89
1732.63
1730.98
1738.9
1767.12
1794.64
1762.46
1609.36
1320.64
946.631
576.367
289.688
122.381
62.1401
68.8209
100.302
128.927
144.535
148.716
147.171
144.637
143.268
143.221
143.859
144.585
145.127
145.467
145.683
145.844
145.976
146.079
146.145
146.17
146.158
146.115
146.046
145.959
145.86
145.754
145.65
145.555
145.481
145.435
145.427
145.462
145.538
145.65
145.787
145.935
146.081
146.21
146.313
146.384
146.42
146.42
146.386
146.322
146.228
146.136
145.933
1730.8
1727.17
1730.46
1756.51
1790.25
1769.97
1624.58
1332.8
947.774
567.126
277.138
113.749
60.2834
72.044
105.03
132.407
145.902
148.532
146.424
144.026
143.012
143.229
143.961
144.667
145.158
145.463
145.669
145.834
145.973
146.08
146.147
146.172
146.158
146.114
146.046
145.959
145.86
145.754
145.65
145.555
145.48
145.435
145.426
145.46
145.537
145.649
145.786
145.935
146.081
146.211
146.314
146.385
146.42
146.42
146.386
146.321
146.232
146.118
146.011
145.803
1729.62
1728.28
1748.22
1785.21
1777.4
1641.53
1346.76
949.017
556.476
263.142
104.706
58.9828
76.0571
110.185
135.846
146.999
148.115
145.597
143.45
142.826
143.285
144.074
144.74
145.177
145.453
145.655
145.827
145.973
146.082
146.149
146.172
146.158
146.114
146.046
145.959
145.86
145.755
145.65
145.555
145.48
145.434
145.425
145.459
145.535
145.648
145.786
145.936
146.082
146.212
146.315
146.385
146.421
146.42
146.386
146.322
146.231
146.122
145.994
145.88
145.676
1728.05
1738.29
1775.92
1782.99
1660.48
1363.39
950.632
544.091
247.379
95.2607
58.445
81.0121
115.766
139.159
147.757
147.455
144.712
142.937
142.72
143.382
144.19
144.798
145.182
145.437
145.641
145.822
145.974
146.085
146.151
146.173
146.158
146.114
146.046
145.959
145.86
145.755
145.65
145.555
145.48
145.433
145.424
145.458
145.534
145.647
145.786
145.936
146.083
146.213
146.316
146.386
146.421
146.421
146.387
146.322
146.232
146.121
145.998
145.863
145.749
145.555
1729.66
1762.29
1786.33
1682.59
1384.08
952.811
529.294
229.326
85.4521
58.9805
87.102
121.747
142.227
148.099
146.549
143.806
142.515
142.701
143.515
144.301
144.838
145.175
145.418
145.629
145.82
145.976
146.088
146.152
146.173
146.158
146.113
146.045
145.959
145.86
145.755
145.651
145.555
145.479
145.432
145.423
145.456
145.533
145.646
145.786
145.936
146.084
146.214
146.317
146.387
146.422
146.421
146.387
146.322
146.232
146.121
145.996
145.867
145.732
145.624
145.44
1741.49
1784
1708.32
1410.63
955.708
511
208.284
75.4565
61.0713
94.5569
128.046
144.879
147.939
145.414
142.932
142.216
142.77
143.67
144.395
144.856
145.157
145.398
145.621
145.82
145.98
146.09
146.153
146.173
146.158
146.113
146.045
145.959
145.861
145.755
145.651
145.555
145.479
145.431
145.422
145.455
145.531
145.645
145.785
145.937
146.084
146.215
146.317
146.387
146.422
146.421
146.387
146.323
146.232
146.121
145.997
145.865
145.736
145.605
145.509
145.328
1765.26
1737.76
1446.9
959.865
487.419
183.244
65.6782
65.4421
103.619
134.474
146.875
147.2
144.102
142.16
142.071
142.92
143.83
144.463
144.853
145.132
145.382
145.617
145.823
145.983
146.092
146.153
146.172
146.157
146.113
146.046
145.96
145.861
145.756
145.651
145.556
145.479
145.431
145.42
145.453
145.53
145.644
145.785
145.937
146.085
146.216
146.318
146.388
146.422
146.422
146.388
146.323
146.232
146.121
145.996
145.865
145.733
145.61
145.486
145.404
145.208
1766.17
1501.31
966.164
454.855
152.582
57.0382
73.2307
114.494
140.658
147.9
145.833
142.712
141.578
142.1
143.13
143.972
144.496
144.831
145.105
145.37
145.618
145.828
145.986
146.093
146.153
146.172
146.157
146.113
146.046
145.96
145.861
145.756
145.651
145.556
145.478
145.43
145.419
145.452
145.529
145.644
145.785
145.938
146.086
146.217
146.319
146.389
146.423
146.422
146.388
146.323
146.233
146.121
145.996
145.865
145.733
145.607
145.493
145.374
145.303
145.063
1614.98
978.808
404.75
113.801
51.8656
86.2794
127.159
145.887
147.563
143.881
141.42
141.283
142.301
143.364
144.071
144.491
144.795
145.082
145.365
145.622
145.832
145.989
146.093
146.152
146.172
146.157
146.113
146.046
145.96
145.861
145.756
145.652
145.556
145.478
145.429
145.418
145.45
145.527
145.643
145.785
145.938
146.087
146.218
146.32
146.389
146.423
146.422
146.388
146.324
146.233
146.122
145.996
145.864
145.732
145.607
145.488
145.384
145.261
145.192
144.87
1064.35
317.525
65.3675
56.9438
107.486
140.751
148.847
145.486
141.583
140.495
141.355
142.632
143.565
144.105
144.452
144.758
145.068
145.367
145.628
145.836
145.99
146.093
146.152
146.171
146.157
146.113
146.046
145.96
145.861
145.756
145.652
145.556
145.478
145.428
145.417
145.449
145.526
145.642
145.784
145.939
146.088
146.219
146.321
146.39
146.424
146.422
146.388
146.324
146.233
146.122
145.996
145.864
145.732
145.605
145.488
145.377
145.276
145.135
145.051
144.599
42.1161
36.8886
97.4263
140.134
151.63
147.407
141.698
139.57
140.272
141.793
142.985
143.668
144.068
144.396
144.731
145.067
145.374
145.633
145.838
145.989
146.092
146.151
146.171
146.157
146.114
146.046
145.96
145.862
145.757
145.652
145.556
145.478
145.428
145.416
145.447
145.524
145.641
145.784
145.939
146.089
146.22
146.322
146.391
146.424
146.423
146.389
146.324
146.233
146.122
145.996
145.864
145.731
145.605
145.486
145.377
145.268
145.155
144.976
144.851
144.221
148.233
159.568
156.505
147.034
139.968
137.889
139.027
140.952
142.391
143.187
143.631
143.985
144.35
144.724
145.076
145.382
145.636
145.838
145.989
146.092
146.152
146.172
146.157
146.114
146.046
145.96
145.862
145.757
145.652
145.556
145.478
145.427
145.414
145.446
145.523
145.64
145.784
145.94
146.09
146.221
146.323
146.391
146.424
146.423
146.389
146.325
146.234
146.122
145.996
145.863
145.731
145.604
145.485
145.375
145.267
145.147
145.001
144.756
144.559
143.709
138.318
135.813
134.791
136.035
138.414
140.569
141.937
142.66
143.098
143.494
143.916
144.343
144.738
145.087
145.386
145.636
145.837
145.989
146.092
146.152
146.172
146.157
146.114
146.046
145.96
145.862
145.757
145.653
145.556
145.477
145.426
145.413
145.444
145.521
145.639
145.784
145.94
146.091
146.222
146.324
146.392
146.425
146.423
146.389
146.325
146.234
146.122
145.996
145.863
145.73
145.603
145.484
145.373
145.265
145.147
144.994
144.784
144.447
144.138
143.051
138.986
139.346
140.074
140.824
141.41
141.881
142.354
142.876
143.417
143.925
144.371
144.755
145.09
145.383
145.634
145.837
145.989
146.093
146.152
146.172
146.157
146.114
146.046
145.96
145.862
145.757
145.653
145.556
145.477
145.426
145.412
145.443
145.52
145.638
145.784
145.941
146.092
146.224
146.325
146.393
146.425
146.423
146.389
146.325
146.235
146.122
145.996
145.862
145.729
145.602
145.483
145.372
145.264
145.145
144.995
144.781
144.475
144.021
143.555
142.261
138.906
139.212
139.83
140.604
141.416
142.194
142.892
143.484
143.975
144.39
144.754
145.083
145.379
145.634
145.839
145.991
146.094
146.153
146.172
146.158
146.114
146.046
145.96
145.862
145.757
145.653
145.556
145.476
145.424
145.41
145.441
145.518
145.637
145.784
145.942
146.094
146.225
146.327
146.394
146.426
146.424
146.39
146.326
146.235
146.123
145.995
145.862
145.729
145.601
145.482
145.371
145.263
145.145
144.996
144.784
144.477
144.045
143.453
142.791
141.392
139.141
139.959
140.835
141.652
142.371
142.99
143.518
143.973
144.376
144.743
145.081
145.383
145.64
145.845
145.996
146.097
146.155
146.174
146.159
146.115
146.047
145.961
145.862
145.756
145.652
145.554
145.474
145.42
145.405
145.436
145.515
145.635
145.784
145.944
146.098
146.229
146.33
146.397
146.428
146.426
146.392
146.328
146.236
146.123
145.995
145.861
145.727
145.6
145.481
145.371
145.264
145.148
145.002
144.795
144.49
144.058
143.477
142.733
141.857
140.54
)
;

boundaryField
{
    bottomwall
    {
        type            opaque;
        refValue        uniform 0;
        refGradient     uniform 0;
        valueFraction   uniform 0;
        source          uniform 0;
        value           nonuniform List<scalar> 
60
(
139.021
139.077
139.129
139.191
139.264
139.338
139.39
139.399
139.364
139.296
139.219
139.155
139.113
139.097
139.1
139.115
139.137
139.165
139.204
139.262
139.343
139.426
139.453
139.348
139.093
138.849
139.007
140.056
142.158
144.574
145.268
141.201
129.614
110.156
87.0983
70.4734
75.1642
117.678
211.404
361.993
564.629
804.336
1059.2
1305.26
1521.21
1691.36
1806.25
1861.48
1855.89
1790.4
1668.14
1495.57