/*--------------------------------*- C++ -*----------------------------------*\
| =========                 |                                                 |
| \\      /  F ield         | OpenFOAM: The Open Source CFD Toolbox           |
|  \\    /   O peration     | Version:  2406                                  |
|   \\  /    A nd           | Website:  www.openfoam.com                      |
|    \\/     M anipulation  |                                                 |
\*---------------------------------------------------------------------------*/
FoamFile
{
    version     2.0;
    format      ascii;
    arch        "LSB;label=32;scalar=64";
    class       volScalarField;
    location    "15000";
    object      ILambda_2_0;
}
// * * * * * * * * * * * * * * * * * * * * * * * * * * * * * * * * * * * * * //

dimensions      [1 0 -3 0 0 0 0];

internalField   nonuniform List<scalar> 
3600
(
141.037
144.223
146.184
147.265
147.876
148.269
148.557
148.78
148.959
149.108
149.238
149.357
149.471
149.581
149.687
149.789
149.89
149.992
150.096
150.204
150.314
150.427
150.541
150.654
150.766
150.877
150.993
151.125
151.281
151.458
151.639
151.784
151.847
151.802
151.678
151.585
151.718
152.321
153.627
155.778
158.769
162.427
166.446
170.444
174.048
176.959
178.973
179.987
179.972
178.943
176.957
174.109
170.551
166.495
162.208
157.97
154.024
150.511
147.463
143.628
139.232
141.341
143.936
145.966
147.217
147.907
148.303
148.571
148.781
148.957
149.106
149.238
149.358
149.472
149.581
149.686
149.789
149.891
149.993
150.097
150.204
150.314
150.427
150.541
150.654
150.765
150.877
150.995
151.128
151.284
151.459
151.635
151.773
151.832
151.79
151.68
151.61
151.772
152.401
153.718
155.86
158.822
162.439
166.413
170.374
173.956
176.859
178.877
179.901
179.894
178.874
176.898
174.065
170.527
166.499
162.239
158.026
154.061
150.778
146.089
138.921
139.554
141.462
143.825
145.825
147.155
147.914
148.332
148.591
148.789
148.957
149.105
149.237
149.358
149.472
149.581
149.686
149.789
149.891
149.993
150.097
150.204
150.315
150.427
150.541
150.654
150.765
150.877
150.996
151.13
151.286
151.462
151.635
151.769
151.823
151.779
151.672
151.612
151.788
152.431
153.759
155.901
158.852
162.449
166.401
170.344
173.916
176.818
178.841
179.871
179.87
178.854
176.88
174.05
170.519
166.5
162.263
157.996
154.443
149.029
139.04
138.938
139.746
141.55
143.763
145.72
147.093
147.908
148.353
148.613
148.799
148.959
149.104
149.237
149.358
149.472
149.581
149.686
149.789
149.891
149.993
150.097
150.204
150.315
150.427
150.541
150.653
150.764
150.876
150.996
151.132
151.29
151.465
151.635
151.765
151.813
151.765
151.658
151.605
151.793
152.451
153.79
155.936
158.881
162.465
166.399
170.327
173.89
176.79
178.817
179.853
179.857
178.842
176.868
174.038
170.508
166.514
162.187
158.457
152.417
139.178
138.94
139.001
139.885
141.617
143.723
145.637
147.034
147.893
148.367
148.632
148.812
148.964
149.104
149.236
149.358
149.473
149.581
149.686
149.789
149.891
149.993
150.097
150.205
150.315
150.427
150.54
150.653
150.763
150.876
150.997
151.134
151.293
151.468
151.636
151.76
151.802
151.749
151.642
151.595
151.796
152.469
153.82
155.971
158.912
162.483
166.401
170.314
173.868
176.766
178.796
179.837
179.845
178.831
176.857
174.022
170.52
166.405
162.699
156.197
139.283
139.109
138.9
139.065
139.992
141.669
143.694
145.569
146.98
147.874
148.375
148.65
148.825
148.97
149.105
149.235
149.357
149.472
149.581
149.686
149.789
149.891
149.993
150.098
150.205
150.315
150.427
150.54
150.652
150.763
150.876
150.997
151.136
151.296
151.471
151.636
151.755
151.791
151.733
151.626
151.586
151.799
152.487
153.85
156.006
158.942
162.501
166.404
170.302
173.848
176.744
178.776
179.822
179.832
178.821
176.839
174.036
170.389
166.954
160.261
139.382
139.268
139.055
138.885
139.125
140.078
141.713
143.672
145.511
146.929
147.853
148.379
148.665
148.839
148.977
149.107
149.234
149.357
149.472
149.581
149.686
149.789
149.891
149.993
150.098
150.205
150.315
150.427
150.54
150.651
150.762
150.875
150.998
151.138
151.299
151.473
151.636
151.749
151.779
151.717
151.61
151.577
151.803
152.505
153.879
156.04
158.972
162.519
166.407
170.292
173.828
176.721
178.756
179.806
179.821
178.803
176.857
173.892
170.962
164.43
139.457
139.386
139.242
139.014
138.883
139.18
140.151
141.75
143.655
145.462
146.883
147.83
148.38
148.678
148.852
148.985
149.11
149.234
149.356
149.471
149.581
149.687
149.789
149.891
149.993
150.098
150.205
150.315
150.427
150.54
150.651
150.761
150.875
150.999
151.141
151.303
151.476
151.635
151.743
151.767
151.701
151.595
151.569
151.807
152.523
153.908
156.073
159.001
162.537
166.41
170.281
173.809
176.7
178.736
179.791
179.801
178.822
176.706
174.47
168.481
139.461
139.454
139.383
139.215
138.984
138.889
139.232
140.214
141.782
143.641
145.419
146.84
147.806
148.378
148.688
148.865
148.994
149.114
149.235
149.355
149.471
149.581
149.687
149.789
149.891
149.993
150.098
150.205
150.316
150.427
150.539
150.65
150.761
150.875
151
151.143
151.306
151.478
151.634
151.737
151.755
151.686
151.58
151.561
151.811
152.54
153.937
156.106
159.03
162.555
166.413
170.271
173.791
176.678
178.718
179.767
179.819
178.672
177.263
172.177
139.376
139.45
139.454
139.373
139.188
138.961
138.9
139.279
140.27
141.811
143.63
145.381
146.8
147.782
148.374
148.697
148.877
149.003
149.118
149.235
149.354
149.47
149.581
149.687
149.789
149.891
149.994
150.098
150.206
150.316
150.427
150.539
150.649
150.76
150.875
151.001
151.145
151.309
151.48
151.633
151.731
151.743
151.67
151.566
151.554
151.815
152.558
153.965
156.138
159.058
162.573
166.417
170.262
173.773
176.659
178.69
179.782
179.675
179.175
175.296
139.244
139.37
139.446
139.451
139.36
139.163
138.945
138.915
139.324
140.319
141.836
143.62
145.347
146.762
147.758
148.369
148.704
148.889
149.012
149.122
149.237
149.354
149.469
149.58
149.686
149.789
149.891
149.994
150.098
150.206
150.316
150.427
150.538
150.649
150.76
150.875
151.002
151.148
151.312
151.482
151.632
151.724
151.731
151.655
151.553
151.548
151.82
152.576
153.993
156.17
159.086
162.59
166.42
170.253
173.757
176.631
178.7
179.649
180.092
177.653
139.131
139.25
139.367
139.443
139.446
139.344
139.14
138.933
138.931
139.366
140.364
141.86
143.612
145.316
146.727
147.735
148.362
148.71
148.899
149.021
149.128
149.238
149.353
149.468
149.58
149.686
149.789
149.891
149.994
150.099
150.206
150.316
150.427
150.538
150.648
150.759
150.875
151.004
151.15
151.315
151.484
151.63
151.718
151.719
151.64
151.54
151.541
151.825
152.593
154.02
156.201
159.113
162.607
166.424
170.246
173.733
176.636
178.586
179.953
179.105
139.076
139.143
139.252
139.364
139.44
139.438
139.326
139.118
138.925
138.948
139.405
140.405
141.881
143.605
145.288
146.695
147.712
148.354
148.715
148.909
149.03
149.133
149.24
149.353
149.467
149.579
149.686
149.789
149.891
149.994
150.099
150.206
150.316
150.427
150.538
150.648
150.759
150.875
151.005
151.153
151.318
151.486
151.628
151.711
151.707
151.626
151.527
151.536
151.831
152.611
154.047
156.231
159.139
162.623
166.429
170.232
173.738
176.549
178.757
179.561
139.077
139.086
139.15
139.254
139.363
139.436
139.428
139.308
139.099
138.919
138.967
139.442
140.443
141.901
143.599
145.262
146.664
147.689
148.345
148.718
148.918
149.039
149.139
149.243
149.353
149.467
149.578
149.685
149.789
149.892
149.994
150.099
150.206
150.316
150.427
150.537
150.647
150.758
150.876
151.006
151.156
151.321
151.487
151.626
151.703
151.695
151.611
151.515
151.53
151.836
152.628
154.073
156.261
159.165
162.641
166.429
170.238
173.686
176.577
178.985
139.104
139.079
139.092
139.155
139.256
139.363
139.432
139.417
139.289
139.082
138.916
138.985
139.477
140.478
141.919
143.593
145.239
146.635
147.667
148.336
148.72
148.926
149.048
149.145
149.245
149.354
149.466
149.577
149.685
149.789
149.892
149.995
150.099
150.207
150.316
150.426
150.537
150.646
150.758
150.876
151.008
151.158
151.323
151.488
151.624
151.696
151.684
151.597
151.503
151.526
151.842
152.646
154.1
156.29
159.192
162.654
166.44
170.229
173.573
177.412
139.13
139.1
139.081
139.097
139.16
139.259
139.363
139.427
139.405
139.271
139.066
138.915
139.004
139.51
140.511
141.937
143.589
145.217
146.607
147.646
148.326
148.721
148.934
149.056
149.151
149.248
149.354
149.465
149.576
149.684
149.789
149.892
149.995
150.099
150.207
150.316
150.426
150.536
150.646
150.757
150.876
151.009
151.161
151.326
151.489
151.621
151.689
151.672
151.584
151.491
151.521
151.848
152.663
154.125
156.319
159.216
162.669
166.476
169.986
174.956
139.144
139.125
139.098
139.083
139.102
139.165
139.262
139.363
139.422
139.392
139.254
139.052
138.915
139.023
139.542
140.542
141.953
143.584
145.196
146.581
147.625
148.316
148.722
148.941
149.065
149.158
149.252
149.355
149.465
149.576
149.684
149.789
149.892
149.995
150.1
150.207
150.316
150.426
150.536
150.645
150.757
150.877
151.011
151.163
151.329
151.49
151.618
151.681
151.66
151.57
151.48
151.517
151.854
152.68
154.151
156.348
159.231
162.748
166.124
171.811
139.154
139.143
139.122
139.097
139.085
139.106
139.17
139.266
139.363
139.416
139.379
139.237
139.04
138.916
139.041
139.572
140.571
141.968
143.581
145.177
146.556
147.604
148.306
148.721
148.947
149.073
149.164
149.255
149.356
149.464
149.575
149.683
149.789
149.892
149.995
150.1
150.207
150.316
150.426
150.535
150.645
150.757
150.878
151.013
151.166
151.331
151.49
151.615
151.674
151.648
151.557
151.469
151.513
151.861
152.697
154.178
156.359
159.345
162.315
168.244
139.17
139.155
139.14
139.119
139.096
139.087
139.11
139.175
139.269
139.363
139.41
139.366
139.22
139.028
138.918
139.06
139.601
140.598
141.983
143.577
145.159
146.533
147.584
148.295
148.721
148.952
149.08
149.171
149.259
149.357
149.464
149.574
149.683
149.788
149.892
149.995
150.1
150.207
150.316
150.426
150.535
150.644
150.757
150.878
151.015
151.168
151.333
151.491
151.612
151.666
151.636
151.544
151.459
151.51
151.867
152.718
154.181
156.496
158.865
164.555
139.203
139.173
139.155
139.138
139.116
139.095
139.089
139.114
139.179
139.272
139.362
139.403
139.352
139.204
139.018
138.921
139.078
139.629
140.625
141.997
143.574
145.142
146.51
147.565
148.284
148.719
148.957
149.088
149.177
149.263
149.359
149.464
149.573
149.682
149.788
149.892
149.996
150.101
150.207
150.316
150.425
150.534
150.644
150.757
150.879
151.016
151.171
151.335
151.491
151.609
151.658
151.625
151.531
151.449
151.506
151.879
152.708
154.325
156.004
161.044
139.256
139.206
139.174
139.154
139.136
139.114
139.094
139.09
139.118
139.184
139.275
139.361
139.396
139.339
139.189
139.009
138.925
139.096
139.655
140.649
142.01
143.571
145.126
146.489
147.546
148.273
148.717
148.962
149.095
149.184
149.267
149.36
149.464
149.573
149.681
149.788
149.892
149.996
150.101
150.208
150.316
150.425
150.534
150.643
150.757
150.88
151.018
151.173
151.338
151.491
151.605
151.65
151.613
151.519
151.438
151.509
151.857
152.845
153.856
157.961
139.325
139.258
139.207
139.175
139.154
139.134
139.112
139.094
139.092
139.122
139.188
139.278
139.36
139.388
139.326
139.175
139.001
138.929
139.114
139.681
140.673
142.022
143.569
145.111
146.468
147.528
148.262
148.715
148.966
149.102
149.19
149.271
149.362
149.464
149.572
149.681
149.787
149.892
149.996
150.101
150.208
150.316
150.425
150.533
150.643
150.757
150.881
151.02
151.176
151.339
151.491
151.601
151.642
151.602
151.505
151.435
151.479
151.976
152.429
155.475
139.4
139.325
139.259
139.209
139.176
139.153
139.132
139.11
139.093
139.094
139.125
139.192
139.281
139.358
139.38
139.313
139.161
138.993
138.933
139.131
139.705
140.696
142.034
143.567
145.097
146.448
147.51
148.251
148.712
148.969
149.108
149.196
149.276
149.364
149.464
149.571
149.68
149.787
149.892
149.996
150.101
150.208
150.316
150.424
150.533
150.642
150.757
150.882
151.022
151.178
151.341
151.491
151.597
151.634
151.589
151.499
151.4
151.573
151.632
153.651
139.463
139.398
139.326
139.261
139.211
139.176
139.152
139.13
139.109
139.093
139.095
139.129
139.196
139.283
139.356
139.372
139.3
139.149
138.987
138.938
139.148
139.729
140.717
142.046
143.565
145.083
146.429
147.492
148.24
148.709
148.972
149.114
149.202
149.28
149.366
149.465
149.571
149.679
149.786
149.892
149.996
150.101
150.208
150.316
150.424
150.532
150.642
150.757
150.883
151.024
151.181
151.343
151.49
151.594
151.625
151.584
151.466
151.469
151.31
152.46
139.498
139.459
139.397
139.327
139.263
139.212
139.177
139.151
139.129
139.107
139.093
139.097
139.133
139.2
139.285
139.354
139.364
139.287
139.136
138.981
138.944
139.164
139.752
140.738
142.057
143.563
145.07
146.411
147.475
148.229
148.705
148.975
149.12
149.209
149.284
149.369
149.465
149.57
149.678
149.786
149.891
149.996
150.102
150.208
150.316
150.424
150.532
150.642
150.757
150.884
151.026
151.183
151.345
151.49
151.588
151.621
151.556
151.51
151.287
151.795
139.496
139.493
139.457
139.397
139.328
139.264
139.214
139.178
139.151
139.127
139.106
139.093
139.099
139.136
139.204
139.287
139.351
139.355
139.275
139.125
138.976
138.949
139.181
139.774
140.758
142.068
143.561
145.058
146.393
147.458
148.218
148.702
148.977
149.126
149.215
149.289
149.371
149.466
149.57
149.678
149.785
149.891
149.996
150.102
150.208
150.316
150.423
150.531
150.641
150.757
150.885
151.028
151.185
151.346
151.488
151.588
151.601
151.581
151.399
151.512
139.455
139.492
139.491
139.456
139.397
139.329
139.266
139.215
139.178
139.15
139.126
139.105
139.093
139.101
139.14
139.208
139.289
139.348
139.347
139.263
139.113
138.971
138.955
139.197
139.795
140.777
142.079
143.56
145.046
146.376
147.442
148.207
148.698
148.979
149.131
149.22
149.294
149.374
149.467
149.57
149.677
149.785
149.891
149.996
150.102
150.208
150.316
150.423
150.531
150.641
150.758
150.886
151.03
151.188
151.347
151.49
151.576
151.613
151.525
151.458
139.383
139.452
139.489
139.489
139.455
139.397
139.33
139.267
139.217
139.178
139.149
139.124
139.103
139.093
139.103
139.143
139.211
139.29
139.345
139.339
139.251
139.103
138.967
138.961
139.212
139.816
140.795
142.089
143.559
145.035
146.36
147.426
148.196
148.693
148.981
149.136
149.226
149.298
149.376
149.468
149.569
149.676
149.784
149.891
149.996
150.102
150.209
150.316
150.423
150.53
150.641
150.758
150.887
151.032
151.189
151.35
151.485
151.58
151.593
151.503
139.294
139.382
139.451
139.487
139.487
139.454
139.397
139.331
139.269
139.218
139.179
139.148
139.123
139.102
139.093
139.105
139.146
139.215
139.291
139.341
139.33
139.24
139.093
138.964
138.967
139.227
139.836
140.813
142.098
143.557
145.024
146.344
147.411
148.186
148.689
148.982
149.141
149.232
149.303
149.379
149.469
149.569
149.676
149.784
149.89
149.996
150.102
150.209
150.315
150.422
150.53
150.641
150.758
150.888
151.034
151.192
151.349
151.486
151.579
151.554
139.205
139.296
139.382
139.449
139.486
139.486
139.453
139.397
139.332
139.27
139.219
139.179
139.148
139.122
139.101
139.093
139.107
139.15
139.218
139.292
139.338
139.322
139.228
139.083
138.961
138.974
139.242
139.855
140.831
142.108
143.556
145.014
146.329
147.396
148.175
148.684
148.983
149.145
149.237
149.307
149.382
149.47
149.569
149.675
149.783
149.89
149.996
150.102
150.209
150.315
150.422
150.53
150.64
150.759
150.889
151.036
151.194
151.349
151.49
151.562
139.129
139.208
139.297
139.382
139.448
139.484
139.484
139.452
139.397
139.333
139.272
139.22
139.179
139.147
139.121
139.101
139.094
139.109
139.153
139.221
139.292
139.334
139.313
139.218
139.074
138.958
138.98
139.257
139.874
140.847
142.117
143.556
145.004
146.314
147.381
148.164
148.68
148.984
149.15
149.243
149.312
149.385
149.471
149.569
149.675
149.782
149.89
149.996
150.103
150.209
150.315
150.422
150.529
150.64
150.759
150.891
151.038
151.195
151.352
151.51
139.075
139.132
139.21
139.297
139.381
139.446
139.482
139.482
139.451
139.397
139.334
139.273
139.221
139.18
139.147
139.12
139.1
139.094
139.111
139.156
139.223
139.292
139.33
139.305
139.207
139.066
138.956
138.987
139.272
139.892
140.863
142.126
143.555
144.995
146.299
147.367
148.154
148.675
148.985
149.154
149.248
149.317
149.388
149.472
149.569
149.674
149.782
149.889
149.996
150.103
150.209
150.315
150.421
150.529
150.64
150.76
150.892
151.04
151.19
151.406
139.044
139.077
139.134
139.211
139.297
139.38
139.445
139.48
139.481
139.45
139.397
139.335
139.274
139.222
139.18
139.146
139.119
139.099
139.095
139.113
139.159
139.226
139.292
139.325
139.296
139.197
139.058
138.954
138.993
139.286
139.909
140.879
142.135
143.554
144.985
146.285
147.352
148.143
148.67
148.985
149.157
149.253
149.321
149.391
149.474
149.569
149.674
149.781
149.889
149.996
150.103
150.209
150.315
150.421
150.529
150.64
150.76
150.896
151.028
151.27
139.034
139.046
139.079
139.136
139.212
139.298
139.38
139.443
139.478
139.479
139.449
139.398
139.336
139.276
139.223
139.18
139.145
139.118
139.099
139.096
139.116
139.162
139.228
139.291
139.321
139.288
139.187
139.05
138.953
139
139.299
139.927
140.894
142.143
143.553
144.977
146.272
147.339
148.133
148.665
148.985
149.161
149.258
149.326
149.394
149.475
149.57
149.673
149.781
149.889
149.996
150.103
150.209
150.315
150.421
150.528
150.64
150.764
150.878
151.12
139.039
139.035
139.046
139.08
139.137
139.213
139.298
139.379
139.442
139.476
139.478
139.448
139.398
139.337
139.277
139.224
139.18
139.145
139.117
139.099
139.096
139.118
139.165
139.23
139.291
139.316
139.28
139.178
139.043
138.951
139.006
139.313
139.943
140.909
142.151
143.553
144.968
146.259
147.325
148.122
148.659
148.985
149.164
149.263
149.33
149.397
149.477
149.57
149.673
149.78
149.888
149.996
150.103
150.209
150.315
150.421
150.527
150.644
150.744
150.971
139.055
139.039
139.035
139.047
139.081
139.138
139.214
139.298
139.378
139.441
139.475
139.476
139.448
139.398
139.338
139.278
139.225
139.18
139.144
139.116
139.098
139.097
139.12
139.168
139.232
139.29
139.312
139.272
139.168
139.036
138.95
139.013
139.326
139.96
140.923
142.159
143.552
144.96
146.246
147.312
148.112
148.654
148.984
149.167
149.267
149.335
149.4
149.478
149.57
149.673
149.78
149.888
149.996
150.103
150.209
150.315
150.419
150.532
150.623
150.832
139.076
139.054
139.039
139.035
139.048
139.083
139.139
139.215
139.298
139.378
139.439
139.473
139.475
139.447
139.398
139.338
139.279
139.225
139.18
139.144
139.115
139.098
139.098
139.122
139.171
139.234
139.289
139.307
139.264
139.159
139.03
138.95
139.02
139.339
139.975
140.937
142.167
143.552
144.952
146.234
147.299
148.102
148.649
148.984
149.17
149.272
149.339
149.404
149.48
149.571
149.672
149.779
149.888
149.996
150.102
150.209
150.313
150.424
150.511
150.704
139.1
139.076
139.054
139.039
139.035
139.049
139.084
139.141
139.215
139.298
139.377
139.438
139.471
139.473
139.446
139.398
139.339
139.28
139.226
139.181
139.143
139.115
139.098
139.099
139.124
139.173
139.235
139.288
139.302
139.256
139.151
139.023
138.949
139.026
139.352
139.991
140.951
142.174
143.552
144.945
146.222
147.286
148.092
148.643
148.983
149.173
149.276
149.344
149.407
149.482
149.571
149.672
149.779
149.887
149.995
150.103
150.208
150.318
150.405
150.586
139.127
139.1
139.075
139.054
139.039
139.036
139.05
139.085
139.142
139.216
139.299
139.376
139.437
139.47
139.472
139.445
139.398
139.34
139.281
139.227
139.181
139.143
139.114
139.098
139.1
139.127
139.176
139.237
139.286
139.297
139.248
139.142
139.018
138.949
139.033
139.365
140.006
140.964
142.182
143.551
144.937
146.21
147.274
148.082
148.638
148.982
149.176
149.281
149.348
149.41
149.484
149.572
149.672
149.778
149.887
149.995
150.101
150.212
150.3
150.475
139.156
139.127
139.1
139.075
139.053
139.039
139.036
139.05
139.086
139.143
139.217
139.299
139.376
139.435
139.468
139.471
139.445
139.398
139.34
139.281
139.227
139.181
139.142
139.114
139.098
139.102
139.129
139.178
139.238
139.285
139.292
139.24
139.134
139.012
138.949
139.04
139.377
140.021
140.977
142.189
143.551
144.93
146.199
147.262
148.072
148.632
148.981
149.178
149.285
149.352
149.414
149.486
149.573
149.672
149.778
149.886
149.994
150.105
150.195
150.367
139.188
139.156
139.127
139.1
139.074
139.053
139.039
139.036
139.051
139.087
139.144
139.218
139.299
139.375
139.434
139.467
139.469
139.444
139.398
139.341
139.282
139.228
139.181
139.142
139.113
139.098
139.103
139.131
139.18
139.239
139.283
139.287
139.233
139.126
139.007
138.949
139.047
139.389
140.035
140.989
142.196
143.551
144.923
146.188
147.25
148.063
148.627
148.98
149.18
149.289
149.356
149.417
149.488
149.573
149.672
149.777
149.885
149.998
150.089
150.261
139.221
139.188
139.156
139.127
139.099
139.074
139.053
139.039
139.037
139.052
139.088
139.145
139.219
139.299
139.374
139.433
139.465
139.468
139.443
139.398
139.342
139.283
139.228
139.181
139.142
139.113
139.099
139.104
139.133
139.183
139.24
139.281
139.282
139.225
139.118
139.002
138.949
139.053
139.401
140.049
141.001
142.203
143.551
144.917
146.177
147.238
148.053
148.621
148.978
149.182
149.293
149.361
149.42
149.49
149.574
149.672
149.776
149.888
149.982
150.155
139.256
139.221
139.188
139.157
139.127
139.099
139.074
139.052
139.038
139.037
139.053
139.089
139.146
139.219
139.299
139.374
139.432
139.464
139.467
139.443
139.398
139.342
139.284
139.229
139.181
139.141
139.113
139.099
139.105
139.135
139.185
139.24
139.279
139.277
139.218
139.111
138.997
138.95
139.06
139.413
140.063
141.013
142.21
143.551
144.91
146.166
147.227
148.044
148.615
148.977
149.184
149.297
149.365
149.424
149.492
149.575
149.671
149.779
149.872
150.047
139.289
139.255
139.221
139.188
139.157
139.127
139.099
139.073
139.052
139.038
139.037
139.053
139.09
139.147
139.22
139.299
139.373
139.431
139.463
139.466
139.442
139.398
139.343
139.284
139.229
139.181
139.141
139.113
139.099
139.107
139.137
139.187
139.241
139.277
139.272
139.211
139.104
138.993
138.951
139.067
139.424
140.076
141.025
142.216
143.551
144.904
146.156
147.216
148.034
148.61
148.975
149.186
149.3
149.369
149.427
149.494
149.575
149.675
149.763
149.939
139.319
139.288
139.255
139.222
139.188
139.157
139.127
139.099
139.073
139.052
139.038
139.038
139.054
139.091
139.148
139.221
139.299
139.373
139.43
139.461
139.465
139.441
139.398
139.343
139.285
139.23
139.181
139.141
139.112
139.1
139.108
139.139
139.188
139.241
139.275
139.267
139.204
139.097
138.989
138.951
139.073
139.436
140.089
141.036
142.223
143.551
144.898
146.146
147.205
148.025
148.604
148.974
149.188
149.304
149.373
149.43
149.495
149.58
149.659
149.83
139.342
139.318
139.288
139.256
139.222
139.188
139.157
139.127
139.098
139.073
139.051
139.038
139.038
139.055
139.092
139.149
139.221
139.299
139.372
139.428
139.46
139.463
139.441
139.398
139.343
139.286
139.23
139.181
139.141
139.112
139.1
139.109
139.141
139.19
139.241
139.273
139.262
139.197
139.09
138.985
138.952
139.08
139.447
140.102
141.047
142.229
143.551
144.892
146.136
147.194
148.016
148.598
148.972
149.189
149.307
149.377
149.433
149.501
149.565
149.724
139.356
139.34
139.317
139.288
139.256
139.222
139.189
139.157
139.126
139.098
139.072
139.051
139.038
139.038
139.056
139.093
139.15
139.222
139.299
139.371
139.427
139.459
139.462
139.44
139.398
139.344
139.286
139.23
139.181
139.14
139.112
139.101
139.111
139.143
139.192
139.242
139.27
139.257
139.19
139.083
138.981
138.953
139.086
139.458
140.115
141.058
142.236
143.551
144.886
146.127
147.183
148.007
148.593
148.97
149.19
149.311
149.38
149.44
149.489
149.627
139.361
139.355
139.34
139.317
139.288
139.256
139.222
139.189
139.157
139.126
139.098
139.072
139.051
139.038
139.039
139.056
139.094
139.151
139.222
139.299
139.371
139.426
139.458
139.461
139.439
139.398
139.344
139.287
139.231
139.181
139.14
139.112
139.102
139.112
139.145
139.193
139.242
139.268
139.251
139.183
139.077
138.977
138.955
139.093
139.468
140.127
141.069
142.242
143.551
144.881
146.118
147.173
147.998
148.587
148.968
149.192
149.313
149.387
149.43
149.544
139.36
139.36
139.354
139.34
139.317
139.288
139.256
139.222
139.189
139.157
139.126
139.098
139.072
139.051
139.038
139.039
139.057
139.095
139.152
139.223
139.299
139.37
139.425
139.456
139.46
139.439
139.398
139.345
139.287
139.231
139.181
139.14
139.113
139.102
139.114
139.147
139.195
139.241
139.265
139.246
139.176
139.071
138.974
138.956
139.099
139.479
140.139
141.079
142.248
143.551
144.876
146.108
147.163
147.989
148.581
148.966
149.192
149.319
149.379
149.478
139.357
139.36
139.36
139.354
139.339
139.317
139.288
139.256
139.222
139.189
139.157
139.126
139.097
139.071
139.051
139.038
139.039
139.058
139.096
139.153
139.224
139.299
139.37
139.424
139.455
139.459
139.438
139.398
139.345
139.287
139.231
139.181
139.14
139.113
139.103
139.115
139.149
139.196
139.241
139.263
139.241
139.17
139.065
138.971
138.957
139.106
139.489
140.151
141.089
142.253
143.551
144.87
146.1
147.153
147.98
148.576
148.963
149.196
149.312
149.423
139.355
139.358
139.361
139.36
139.353
139.339
139.317
139.288
139.256
139.223
139.189
139.157
139.126
139.097
139.071
139.05
139.038
139.04
139.059
139.097
139.154
139.224
139.299
139.369
139.423
139.454
139.458
139.438
139.398
139.345
139.288
139.232
139.181
139.14
139.113
139.104
139.117
139.15
139.197
139.241
139.26
139.236
139.163
139.059
138.968
138.959
139.112
139.5
140.163
141.099
142.259
143.552
144.865
146.091
147.143
147.972
148.569
148.963
149.187
149.36
139.35
139.355
139.359
139.361
139.36
139.353
139.338
139.316
139.288
139.256
139.223
139.189
139.157
139.126
139.097
139.071
139.05
139.039
139.04
139.059
139.098
139.155
139.225
139.299
139.369
139.422
139.453
139.457
139.437
139.397
139.345
139.288
139.232
139.181
139.14
139.113
139.105
139.118
139.152
139.198
139.24
139.257
139.231
139.157
139.053
138.965
138.96
139.119
139.51
140.174
141.109
142.265
143.552
144.86
146.082
147.133
147.963
148.566
148.949
149.257
139.334
139.349
139.356
139.359
139.361
139.36
139.352
139.338
139.316
139.288
139.256
139.223
139.189
139.157
139.126
139.097
139.071
139.05
139.039
139.041
139.06
139.099
139.155
139.225
139.299
139.368
139.421
139.452
139.456
139.437
139.397
139.346
139.289
139.232
139.181
139.14
139.114
139.106
139.12
139.154
139.199
139.24
139.254
139.226
139.151
139.048
138.962
138.962
139.125
139.52
140.185
141.119
142.27
143.552
144.855
146.074
147.123
147.958
148.54
149.066
139.301
139.331
139.348
139.356
139.36
139.362
139.36
139.352
139.338
139.316
139.288
139.257
139.223
139.19
139.157
139.126
139.096
139.07
139.05
139.039
139.041
139.061
139.1
139.156
139.226
139.299
139.368
139.42
139.451
139.455
139.436
139.397
139.346
139.289
139.232
139.181
139.14
139.114
139.107
139.121
139.155
139.2
139.239
139.251
139.221
139.145
139.043
138.96
138.964
139.131
139.529
140.196
141.128
142.276
143.552
144.851
146.065
147.119
147.916
148.734
139.251
139.299
139.33
139.348
139.357
139.361
139.362
139.36
139.352
139.337
139.316
139.288
139.257
139.223
139.19
139.157
139.125
139.096
139.07
139.05
139.039
139.042
139.061
139.1
139.157
139.226
139.299
139.367
139.419
139.45
139.455
139.435
139.397
139.346
139.289
139.233
139.181
139.14
139.114
139.108
139.123
139.157
139.201
139.238
139.248
139.216
139.139
139.038
138.957
138.966
139.138
139.539
140.207
141.137
142.281
143.553
144.845
146.066
147.056
148.214
139.19
139.25
139.297
139.329
139.348
139.357
139.361
139.362
139.359
139.351
139.337
139.315
139.288
139.257
139.223
139.19
139.157
139.125
139.096
139.07
139.05
139.039
139.042
139.062
139.101
139.158
139.226
139.299
139.366
139.418
139.449
139.454
139.435
139.397
139.346
139.289
139.233
139.181
139.141
139.115
139.109
139.124
139.159
139.202
139.237
139.245
139.211
139.133
139.033
138.955
138.968
139.144
139.548
140.218
141.146
142.287
143.551
144.855
145.978
147.477
139.126
139.191
139.249
139.297
139.329
139.348
139.358
139.362
139.363
139.36
139.351
139.337
139.315
139.288
139.257
139.223
139.19
139.157
139.125
139.095
139.069
139.049
139.039
139.042
139.063
139.102
139.158
139.227
139.299
139.366
139.418
139.448
139.453
139.435
139.397
139.347
139.29
139.233
139.182
139.141
139.115
139.109
139.125
139.16
139.202
139.236
139.242
139.206
139.128
139.028
138.953
138.97
139.15
139.558
140.227
141.156
142.288
143.573
144.743
146.531
139.061
139.126
139.189
139.247
139.293
139.326
139.346
139.357
139.361
139.362
139.359
139.351
139.336
139.315
139.288
139.257
139.224
139.191
139.158
139.126
139.096
139.07
139.05
139.04
139.044
139.064
139.103
139.159
139.227
139.298
139.364
139.415
139.445
139.45
139.432
139.395
139.346
139.29
139.234
139.183
139.142
139.117
139.112
139.128
139.162
139.203
139.235
139.239
139.201
139.121
139.023
138.952
138.973
139.158
139.569
140.239
141.156
142.313
143.421
145.378
138.991
139.068
139.137
139.201
139.257
139.302
139.334
139.353
139.362
139.366
139.365
139.36
139.351
139.336
139.314
139.286
139.254
139.221
139.187
139.153
139.121
139.091
139.065
139.046
139.036
139.041
139.063
139.104
139.162
139.232
139.305
139.372
139.424
139.453
139.457
139.437
139.397
139.345
139.286
139.228
139.176
139.135
139.111
139.107
139.126
139.162
139.205
139.237
139.24
139.199
139.116
139.014
138.942
138.965
139.158
139.584
140.267
141.251
142.241
144.283
138.871
138.947
139.021
139.093
139.16
139.22
139.27
139.308
139.335
139.351
139.36
139.363
139.361
139.355
139.342
139.324
139.3
139.271
139.24
139.207
139.173
139.141
139.11
139.082
139.06
139.045
139.043
139.057
139.088
139.136
139.197
139.265
139.332
139.388
139.427
139.443
139.437
139.411
139.368
139.316
139.261
139.208
139.163
139.132
139.118
139.126
139.151
139.187
139.219
139.23
139.205
139.141
139.053
138.977
138.967
139.092
139.402
139.997
140.625
142.376
)
;

boundaryField
{
    bottomwall
    {
        type            opaque;
        refValue        nonuniform List<scalar> 
60
(
143.314
145.512
146.765
147.544
148.059
148.417
148.677
148.876
149.037
149.173
149.297
149.414
149.527
149.634
149.738
149.84
149.941
150.044
150.149
150.259
150.371
150.484
150.598
150.71
150.821
150.933
151.055
151.198
151.367
151.552
151.724
151.836
151.845
151.746
151.606
151.582
151.904
152.828
154.551
157.149
160.529
164.437
168.513
172.368
175.658
178.133
179.647
180.14
179.609
178.088
175.649
172.413
168.563
164.342
160.034
155.913
152.182
148.911
145.93
142.629
)
;
        refGradient     uniform 0;
        valueFraction   uniform 1;