/*--------------------------------*- C++ -*----------------------------------*\
| =========                 |                                                 |
| \\      /  F ield         | OpenFOAM: The Open Source CFD Toolbox           |
|  \\    /   O peration     | Version:  2406                                  |
|   \\  /    A nd           | Website:  www.openfoam.com                      |
|    \\/     M anipulation  |                                                 |
\*---------------------------------------------------------------------------*/
FoamFile
{
    version     2.0;
    format      ascii;
    arch        "LSB;label=32;scalar=64";
    class       volScalarField;
    location    "15000";
    object      ILambda_5_0;
}
// * * * * * * * * * * * * * * * * * * * * * * * * * * * * * * * * * * * * * //

dimensions      [1 0 -3 0 0 0 0];

internalField   nonuniform List<scalar> 
3600
(
138.994
139.004
139.014
139.024
139.034
139.044
139.053
139.062
139.071
139.08
139.088
139.095
139.103
139.111
139.118
139.126
139.133
139.141
139.149
139.158
139.167
139.177
139.187
139.198
139.209
139.222
139.234
139.248
139.261
139.275
139.289
139.304
139.318
139.332
139.345
139.358
139.37
139.381
139.391
139.4
139.408
139.414
139.419
139.422
139.423
139.423
139.422
139.418
139.413
139.407
139.399
139.39
139.38
139.369
139.357
139.344
139.33
139.316
139.304
139.28
139.093
139.103
139.112
139.121
139.129
139.136
139.143
139.149
139.156
139.163
139.169
139.177
139.184
139.193
139.202
139.212
139.222
139.234
139.247
139.26
139.274
139.289
139.304
139.32
139.335
139.351
139.366
139.38
139.394
139.407
139.419
139.429
139.438
139.445
139.45
139.453
139.454
139.453
139.45
139.445
139.438
139.43
139.419
139.407
139.394
139.379
139.363
139.347
139.329
139.311
139.293
139.275
139.258
139.24
139.223
139.206
139.191
139.176
139.163
139.144
139.143
139.148
139.154
139.159
139.165
139.171
139.178
139.185
139.194
139.203
139.213
139.225
139.237
139.251
139.265
139.28
139.295
139.311
139.327
139.343
139.358
139.373
139.388
139.401
139.413
139.423
139.432
139.439
139.444
139.447
139.448
139.447
139.443
139.438
139.431
139.422
139.411
139.399
139.385
139.371
139.355
139.338
139.321
139.304
139.286
139.269
139.251
139.235
139.218
139.203
139.188
139.174
139.161
139.15
139.139
139.13
139.121
139.114
139.108
139.101
139.179
139.186
139.194
139.203
139.213
139.224
139.237
139.25
139.265
139.28
139.296
139.312
139.329
139.345
139.361
139.377
139.392
139.406
139.418
139.429
139.438
139.445
139.451
139.454
139.454
139.453
139.45
139.444
139.436
139.427
139.415
139.403
139.388
139.373
139.356
139.339
139.321
139.303
139.285
139.267
139.249
139.232
139.215
139.199
139.184
139.17
139.157
139.145
139.134
139.125
139.117
139.11
139.104
139.099
139.095
139.092
139.09
139.089
139.088
139.089
139.234
139.247
139.262
139.278
139.294
139.311
139.328
139.345
139.362
139.379
139.394
139.409
139.422
139.433
139.443
139.45
139.455
139.458
139.459
139.458
139.454
139.448
139.439
139.429
139.417
139.403
139.388
139.372
139.354
139.336
139.318
139.299
139.28
139.261
139.243
139.225
139.208
139.192
139.177
139.163
139.15
139.139
139.128
139.119
139.111
139.105
139.099
139.095
139.091
139.089
139.088
139.087
139.087
139.088
139.089
139.091
139.093
139.095
139.097
139.102
139.327
139.345
139.363
139.38
139.397
139.412
139.426
139.438
139.448
139.456
139.461
139.464
139.465
139.463
139.459
139.452
139.443
139.432
139.419
139.405
139.389
139.371
139.353
139.334
139.315
139.295
139.276
139.256
139.238
139.22
139.202
139.186
139.171
139.157
139.144
139.133
139.123
139.114
139.106
139.1
139.095
139.091
139.088
139.086
139.085
139.085
139.086
139.087
139.089
139.091
139.093
139.096
139.099
139.101
139.104
139.107
139.11
139.113
139.116
139.12
139.431
139.443
139.454
139.462
139.468
139.471
139.472
139.469
139.465
139.457
139.448
139.436
139.422
139.406
139.389
139.371
139.351
139.332
139.311
139.291
139.271
139.251
139.232
139.213
139.196
139.179
139.164
139.15
139.137
139.126
139.116
139.108
139.101
139.095
139.091
139.087
139.085
139.084
139.083
139.084
139.085
139.086
139.088
139.091
139.094
139.097
139.1
139.103
139.106
139.109
139.112
139.115
139.118
139.12
139.123
139.125
139.127
139.13
139.131
139.135
139.479
139.476
139.471
139.463
139.452
139.439
139.424
139.408
139.389
139.37
139.35
139.329
139.307
139.286
139.265
139.245
139.225
139.206
139.188
139.172
139.157
139.143
139.131
139.12
139.11
139.102
139.096
139.091
139.087
139.084
139.082
139.081
139.082
139.082
139.084
139.086
139.089
139.091
139.094
139.098
139.101
139.104
139.108
139.111
139.114
139.117
139.12
139.122
139.125
139.127
139.129
139.131
139.133
139.135
139.137
139.139
139.141
139.143
139.145
139.149
139.427
139.409
139.389
139.369
139.347
139.325
139.303
139.281
139.259
139.238
139.218
139.199
139.181
139.164
139.149
139.135
139.123
139.113
139.104
139.097
139.091
139.086
139.083
139.08
139.079
139.079
139.08
139.081
139.083
139.086
139.089
139.092
139.095
139.099
139.103
139.106
139.109
139.113
139.116
139.119
139.122
139.124
139.127
139.129
139.131
139.133
139.135
139.137
139.139
139.141
139.142
139.144
139.147
139.149
139.152
139.155
139.158
139.162
139.165
139.172
139.298
139.275
139.252
139.231
139.21
139.191
139.173
139.156
139.141
139.128
139.116
139.106
139.098
139.091
139.085
139.081
139.079
139.077
139.077
139.077
139.079
139.081
139.083
139.086
139.09
139.093
139.097
139.101
139.104
139.108
139.112
139.115
139.118
139.121
139.124
139.126
139.129
139.131
139.133
139.135
139.137
139.138
139.14
139.142
139.144
139.146
139.148
139.15
139.153
139.156
139.159
139.162
139.166
139.171
139.176
139.181
139.187
139.194
139.199
139.212
139.164
139.147
139.133
139.12
139.108
139.099
139.091
139.085
139.08
139.077
139.075
139.074
139.075
139.076
139.078
139.08
139.083
139.087
139.09
139.094
139.098
139.102
139.106
139.11
139.114
139.117
139.12
139.123
139.126
139.129
139.131
139.133
139.135
139.137
139.138
139.14
139.142
139.143
139.145
139.147
139.149
139.151
139.154
139.157
139.16
139.163
139.167
139.172
139.177
139.182
139.188
139.195
139.202
139.209
139.217
139.226
139.235
139.244
139.253
139.27
139.084
139.079
139.075
139.073
139.072
139.072
139.073
139.075
139.077
139.08
139.084
139.088
139.092
139.096
139.1
139.104
139.108
139.112
139.116
139.119
139.123
139.126
139.128
139.131
139.133
139.135
139.137
139.138
139.14
139.141
139.143
139.145
139.146
139.148
139.15
139.152
139.155
139.158
139.161
139.164
139.168
139.173
139.178
139.183
139.189
139.196
139.203
139.21
139.219
139.227
139.236
139.246
139.256
139.266
139.277
139.288
139.299
139.311
139.321
139.34
139.071
139.074
139.077
139.08
139.085
139.089
139.093
139.098
139.102
139.107
139.111
139.115
139.118
139.122
139.125
139.128
139.13
139.133
139.135
139.137
139.138
139.14
139.142
139.143
139.144
139.146
139.147
139.149
139.151
139.153
139.156
139.158
139.162
139.165
139.169
139.174
139.179
139.184
139.19
139.197
139.204
139.212
139.22
139.229
139.238
139.247
139.257
139.268
139.279
139.29
139.301
139.313
139.324
139.336
139.348
139.36
139.371
139.383
139.393
139.41
139.095
139.1
139.104
139.109
139.113
139.117
139.121
139.124
139.127
139.13
139.133
139.135
139.137
139.139
139.14
139.142
139.143
139.144
139.146
139.147
139.148
139.15
139.152
139.154
139.157
139.159
139.163
139.166
139.17
139.175
139.18
139.185
139.191
139.198
139.205
139.213
139.221
139.23
139.239
139.249
139.259
139.27
139.281
139.292
139.303
139.315
139.327
139.339
139.35
139.362
139.374
139.385
139.397
139.407
139.418
139.428
139.437
139.447
139.454
139.466
139.124
139.127
139.13
139.132
139.135
139.137
139.139
139.14
139.142
139.143
139.144
139.146
139.147
139.148
139.15
139.151
139.153
139.155
139.157
139.16
139.163
139.167
139.171
139.176
139.181
139.186
139.193
139.199
139.207
139.214
139.223
139.232
139.241
139.251
139.261
139.272
139.283
139.294
139.305
139.317
139.329
139.341
139.353
139.365
139.376
139.388
139.399
139.41
139.42
139.43
139.44
139.449
139.457
139.465
139.471
139.477
139.482
139.487
139.49
139.493
139.141
139.142
139.143
139.145
139.146
139.147
139.148
139.149
139.151
139.152
139.154
139.156
139.158
139.161
139.164
139.168
139.172
139.177
139.182
139.187
139.194
139.201
139.208
139.216
139.224
139.233
139.243
139.253
139.263
139.274
139.285
139.296
139.308
139.319
139.331
139.343
139.355
139.367
139.379
139.39
139.402
139.413
139.423
139.433
139.442
139.451
139.459
139.467
139.473
139.479
139.484
139.488
139.492
139.494
139.495
139.495
139.495
139.493
139.491
139.485
139.149
139.15
139.151
139.153
139.155
139.157
139.159
139.162
139.165
139.169
139.173
139.178
139.183
139.189
139.195
139.202
139.209
139.217
139.226
139.235
139.244
139.254
139.265
139.275
139.287
139.298
139.31
139.322
139.334
139.346
139.358
139.37
139.381
139.393
139.404
139.415
139.425
139.435
139.445
139.454
139.462
139.469
139.475
139.481
139.486
139.49
139.493
139.495
139.496
139.496
139.495
139.494
139.491
139.487
139.482
139.477
139.47
139.463
139.456
139.441
139.16
139.163
139.166
139.17
139.174
139.179
139.184
139.19
139.196
139.203
139.21
139.218
139.227
139.236
139.246
139.256
139.266
139.277
139.289
139.3
139.312
139.324
139.336
139.348
139.36
139.372
139.384
139.395
139.407
139.418
139.428
139.438
139.447
139.456
139.464
139.471
139.478
139.483
139.488
139.492
139.494
139.496
139.497
139.497
139.496
139.494
139.491
139.487
139.482
139.476
139.469
139.462
139.454
139.444
139.435
139.424
139.413
139.401
139.391
139.37
139.185
139.191
139.197
139.204
139.212
139.22
139.229
139.238
139.247
139.258
139.268
139.279
139.291
139.302
139.314
139.326
139.338
139.35
139.363
139.375
139.386
139.398
139.409
139.42
139.431
139.44
139.45
139.458
139.466
139.473
139.48
139.485
139.49
139.493
139.496
139.498
139.498
139.498
139.497
139.494
139.491
139.487
139.482
139.476
139.469
139.461
139.452
139.443
139.433
139.422
139.411
139.399
139.387
139.374
139.361
139.348
139.334
139.32
139.308
139.286
139.23
139.239
139.249
139.259
139.27
139.281
139.293
139.304
139.316
139.328
139.341
139.353
139.365
139.377
139.389
139.401
139.412
139.423
139.433
139.443
139.452
139.461
139.468
139.475
139.482
139.487
139.491
139.495
139.497
139.499
139.499
139.499
139.497
139.495
139.491
139.487
139.481
139.475
139.468
139.46
139.451
139.441
139.431
139.42
139.408
139.396
139.384
139.371
139.358
139.344
139.331
139.317
139.303
139.289
139.275
139.261
139.248
139.234
139.223
139.202
139.295
139.306
139.318
139.331
139.343
139.355
139.367
139.38
139.392
139.403
139.414
139.425
139.436
139.445
139.455
139.463
139.471
139.478
139.484
139.489
139.493
139.496
139.499
139.5
139.5
139.499
139.498
139.495
139.491
139.486
139.481
139.474
139.467
139.458
139.449
139.439
139.429
139.418
139.406
139.394
139.381
139.368
139.355
139.341
139.327
139.313
139.299
139.285
139.271
139.258
139.244
139.23
139.217
139.204
139.192
139.18
139.168
139.156
139.147
139.13
139.37
139.382
139.394
139.406
139.417
139.428
139.438
139.448
139.457
139.465
139.473
139.48
139.486
139.491
139.495
139.498
139.5
139.501
139.501
139.5
139.498
139.495
139.491
139.486
139.48
139.473
139.466
139.457
139.448
139.438
139.427
139.416
139.404
139.391
139.378
139.365
139.352
139.338
139.324
139.31
139.296
139.282
139.268
139.254
139.24
139.227
139.213
139.2
139.188
139.176
139.164
139.153
139.142
139.132
139.122
139.113
139.104
139.096
139.089
139.079
139.441
139.45
139.459
139.468
139.475
139.482
139.488
139.493
139.497
139.499
139.501
139.502
139.502
139.501
139.499
139.495
139.491
139.486
139.48
139.473
139.465
139.456
139.446
139.436
139.425
139.413
139.401
139.389
139.375
139.362
139.348
139.334
139.32
139.306
139.292
139.278
139.264
139.25
139.236
139.223
139.209
139.197
139.184
139.172
139.16
139.149
139.139
139.128
139.119
139.11
139.101
139.093
139.086
139.079
139.073
139.067
139.062
139.057
139.054
139.048
139.49
139.495
139.498
139.501
139.503
139.503
139.503
139.502
139.499
139.496
139.491
139.485
139.479
139.472
139.463
139.454
139.445
139.434
139.423
139.411
139.399
139.386
139.372
139.359
139.345
139.331
139.317
139.303
139.288
139.274
139.26
139.246
139.232
139.219
139.206
139.193
139.18
139.168
139.157
139.146
139.135
139.125
139.116
139.107
139.098
139.091
139.083
139.077
139.071
139.065
139.06
139.056
139.052
139.048
139.045
139.043
139.041
139.039
139.038
139.037
139.504
139.502
139.499
139.496
139.491
139.485
139.478
139.471
139.462
139.453
139.443
139.432
139.421
139.408
139.396
139.383
139.369
139.356
139.342
139.328
139.313
139.299
139.284
139.27
139.256
139.242
139.228
139.215
139.202
139.189
139.176
139.165
139.153
139.142
139.132
139.122
139.112
139.104
139.095
139.088
139.081
139.074
139.068
139.063
139.058
139.054
139.05
139.047
139.044
139.042
139.04
139.039
139.038
139.037
139.037
139.037
139.037
139.038
139.039
139.042
139.478
139.47
139.461
139.451
139.441
139.43
139.418
139.406
139.393
139.38
139.366
139.352
139.338
139.324
139.31
139.295
139.281
139.266
139.252
139.238
139.224
139.211
139.198
139.185
139.173
139.161
139.149
139.138
139.128
139.118
139.109
139.101
139.092
139.085
139.078
139.072
139.066
139.061
139.056
139.052
139.048
139.045
139.043
139.041
139.039
139.038
139.037
139.037
139.037
139.037
139.037
139.038
139.04
139.041
139.043
139.045
139.047
139.049
139.051
139.056
139.416
139.403
139.39
139.377
139.363
139.349
139.335
139.32
139.306
139.291
139.277
139.262
139.248
139.234
139.22
139.207
139.194
139.181
139.169
139.157
139.146
139.135
139.125
139.115
139.106
139.097
139.09
139.082
139.075
139.069
139.064
139.059
139.054
139.05
139.047
139.044
139.042
139.04
139.038
139.037
139.036
139.036
139.036
139.037
139.037
139.038
139.04
139.041
139.043
139.045
139.047
139.05
139.052
139.055
139.058
139.061
139.064
139.067
139.07
139.076
139.331
139.317
139.302
139.287
139.273
139.258
139.244
139.23
139.216
139.203
139.19
139.177
139.165
139.153
139.142
139.131
139.121
139.112
139.103
139.094
139.087
139.08
139.073
139.067
139.062
139.057
139.052
139.049
139.045
139.043
139.041
139.039
139.037
139.036
139.036
139.036
139.036
139.037
139.037
139.039
139.04
139.042
139.044
139.046
139.048
139.05
139.053
139.056
139.059
139.062
139.065
139.068
139.072
139.075
139.079
139.083
139.086
139.09
139.094
139.1
139.24
139.226
139.212
139.199
139.186
139.173
139.161
139.149
139.138
139.128
139.118
139.108
139.1
139.091
139.084
139.077
139.07
139.065
139.059
139.055
139.051
139.047
139.044
139.041
139.039
139.038
139.037
139.036
139.035
139.035
139.036
139.037
139.037
139.039
139.04
139.042
139.044
139.046
139.049
139.051
139.054
139.057
139.06
139.063
139.066
139.069
139.073
139.076
139.08
139.084
139.088
139.091
139.095
139.099
139.103
139.108
139.112
139.116
139.12
139.127
139.157
139.146
139.135
139.124
139.114
139.105
139.097
139.088
139.081
139.074
139.068
139.062
139.057
139.053
139.049
139.046
139.043
139.04
139.038
139.037
139.036
139.035
139.035
139.035
139.036
139.036
139.038
139.039
139.041
139.042
139.045
139.047
139.049
139.052
139.055
139.058
139.061
139.064
139.067
139.071
139.074
139.078
139.081
139.085
139.089
139.093
139.097
139.101
139.105
139.109
139.113
139.118
139.122
139.126
139.131
139.136
139.14
139.145
139.149
139.157
139.093
139.086
139.078
139.072
139.066
139.06
139.055
139.051
139.047
139.044
139.041
139.039
139.037
139.036
139.035
139.035
139.035
139.035
139.036
139.037
139.038
139.039
139.041
139.043
139.045
139.047
139.05
139.053
139.056
139.059
139.062
139.065
139.068
139.072
139.075
139.079
139.082
139.086
139.09
139.094
139.098
139.102
139.106
139.11
139.115
139.119
139.123
139.128
139.132
139.137
139.142
139.146
139.151
139.156
139.161
139.166
139.171
139.176
139.181
139.189
139.053
139.049
139.046
139.043
139.04
139.038
139.036
139.035
139.035
139.034
139.034
139.035
139.036
139.037
139.038
139.04
139.041
139.043
139.046
139.048
139.051
139.054
139.056
139.059
139.063
139.066
139.069
139.073
139.076
139.08
139.084
139.087
139.091
139.095
139.099
139.103
139.107
139.112
139.116
139.12
139.125
139.129
139.134
139.138
139.143
139.148
139.153
139.157
139.162
139.167
139.173
139.178
139.183
139.188
139.194
139.199
139.204
139.21
139.215
139.224
139.036
139.035
139.034
139.034
139.034
139.035
139.036
139.037
139.038
139.04
139.042
139.044
139.046
139.049
139.052
139.054
139.057
139.06
139.064
139.067
139.07
139.074
139.077
139.081
139.085
139.089
139.093
139.097
139.101
139.105
139.109
139.113
139.117
139.122
139.126
139.131
139.135
139.14
139.144
139.149
139.154
139.159
139.164
139.169
139.174
139.179
139.184
139.19
139.195
139.2
139.206
139.211
139.217
139.222
139.228
139.234
139.239
139.245
139.249
139.258
139.036
139.037
139.038
139.04
139.042
139.045
139.047
139.05
139.052
139.055
139.058
139.061
139.065
139.068
139.071
139.075
139.079
139.082
139.086
139.09
139.094
139.098
139.102
139.106
139.11
139.114
139.119
139.123
139.127
139.132
139.137
139.141
139.146
139.151
139.155
139.16
139.165
139.17
139.175
139.181
139.186
139.191
139.197
139.202
139.207
139.213
139.218
139.224
139.229
139.235
139.241
139.246
139.252
139.257
139.263
139.268
139.273
139.278
139.283
139.291
139.048
139.05
139.053
139.056
139.059
139.062
139.066
139.069
139.073
139.076
139.08
139.084
139.087
139.091
139.095
139.099
139.103
139.107
139.111
139.116
139.12
139.124
139.129
139.133
139.138
139.143
139.147
139.152
139.157
139.162
139.167
139.172
139.177
139.182
139.187
139.193
139.198
139.203
139.209
139.214
139.22
139.225
139.231
139.236
139.242
139.248
139.253
139.259
139.264
139.269
139.275
139.28
139.285
139.29
139.295
139.299
139.304
139.309
139.312
139.319
139.067
139.07
139.074
139.077
139.081
139.085
139.089
139.092
139.096
139.1
139.104
139.109
139.113
139.117
139.121
139.126
139.13
139.135
139.139
139.144
139.149
139.153
139.158
139.163
139.168
139.173
139.178
139.184
139.189
139.194
139.199
139.205
139.21
139.216
139.221
139.227
139.232
139.238
139.243
139.249
139.255
139.26
139.265
139.271
139.276
139.281
139.286
139.291
139.296
139.301
139.305
139.31
139.314
139.318
139.322
139.326
139.329
139.332
139.335
139.339
139.09
139.094
139.098
139.102
139.106
139.11
139.114
139.118
139.123
139.127
139.132
139.136
139.141
139.145
139.15
139.155
139.16
139.165
139.17
139.175
139.18
139.185
139.19
139.196
139.201
139.206
139.212
139.217
139.223
139.228
139.234
139.239
139.245
139.25
139.256
139.261
139.267
139.272
139.278
139.283
139.288
139.293
139.298
139.302
139.307
139.311
139.315
139.319
139.323
139.327
139.33
139.333
139.336
139.339
139.342
139.344
139.346
139.349
139.35
139.353
139.115
139.12
139.124
139.129
139.133
139.138
139.142
139.147
139.152
139.156
139.161
139.166
139.171
139.176
139.181
139.187
139.192
139.197
139.202
139.208
139.213
139.219
139.224
139.23
139.235
139.241
139.246
139.252
139.257
139.263
139.268
139.274
139.279
139.284
139.289
139.294
139.299
139.304
139.308
139.313
139.317
139.321
139.325
139.328
139.331
139.335
139.338
139.34
139.343
139.345
139.347
139.349
139.351
139.353
139.354
139.355
139.357
139.358
139.358
139.36
139.144
139.148
139.153
139.158
139.163
139.168
139.173
139.178
139.183
139.188
139.193
139.199
139.204
139.209
139.215
139.22
139.226
139.231
139.237
139.242
139.248
139.253
139.259
139.264
139.27
139.275
139.28
139.286
139.291
139.296
139.3
139.305
139.31
139.314
139.318
139.322
139.326
139.329
139.333
139.336
139.339
139.341
139.344
139.346
139.348
139.35
139.352
139.353
139.355
139.356
139.357
139.358
139.359
139.36
139.36
139.361
139.361
139.361
139.362
139.362
139.174
139.179
139.184
139.189
139.195
139.2
139.205
139.211
139.216
139.222
139.227
139.233
139.238
139.244
139.249
139.255
139.26
139.266
139.271
139.277
139.282
139.287
139.292
139.297
139.302
139.306
139.311
139.315
139.319
139.323
139.327
139.331
139.334
139.337
139.34
139.343
139.345
139.347
139.349
139.351
139.353
139.354
139.355
139.357
139.358
139.358
139.359
139.36
139.36
139.361
139.361
139.361
139.362
139.362
139.362
139.362
139.362
139.361
139.361
139.36
139.207
139.212
139.218
139.223
139.229
139.234
139.24
139.245
139.251
139.256
139.262
139.267
139.273
139.278
139.283
139.288
139.293
139.298
139.303
139.308
139.312
139.317
139.321
139.325
139.328
139.332
139.335
139.338
139.341
139.344
139.346
139.348
139.35
139.352
139.353
139.355
139.356
139.357
139.358
139.359
139.359
139.36
139.36
139.361
139.361
139.361
139.362
139.362
139.362
139.362
139.362
139.361
139.361
139.361
139.36
139.36
139.359
139.359
139.358
139.357
139.241
139.247
139.252
139.258
139.263
139.269
139.274
139.279
139.285
139.29
139.295
139.3
139.304
139.309
139.314
139.318
139.322
139.326
139.33
139.333
139.336
139.339
139.342
139.345
139.347
139.349
139.351
139.353
139.354
139.355
139.357
139.358
139.358
139.359
139.36
139.36
139.36
139.361
139.361
139.361
139.361
139.362
139.362
139.362
139.362
139.361
139.361
139.361
139.36
139.36
139.359
139.359
139.358
139.357
139.356
139.356
139.355
139.355
139.355
139.355
139.275
139.281
139.286
139.291
139.296
139.301
139.306
139.31
139.315
139.319
139.323
139.327
139.331
139.334
139.338
139.341
139.343
139.346
139.348
139.35
139.352
139.354
139.355
139.356
139.357
139.358
139.359
139.359
139.36
139.36
139.361
139.361
139.361
139.361
139.361
139.361
139.361
139.361
139.361
139.361
139.361
139.361
139.36
139.36
139.359
139.359
139.358
139.357
139.356
139.355
139.354
139.353
139.353
139.352
139.352
139.352
139.352
139.352
139.353
139.354
139.307
139.312
139.316
139.32
139.325
139.328
139.332
139.336
139.339
139.342
139.344
139.347
139.349
139.351
139.353
139.355
139.356
139.357
139.358
139.359
139.359
139.36
139.36
139.36
139.361
139.361
139.361
139.361
139.361
139.361
139.361
139.361
139.361
139.361
139.361
139.361
139.36
139.36
139.359
139.359
139.358
139.357
139.356
139.355
139.353
139.352
139.351
139.35
139.349
139.349
139.348
139.348
139.348
139.348
139.348
139.347
139.347
139.346
139.345
139.338
139.333
139.337
139.34
139.343
139.346
139.348
139.35
139.352
139.354
139.355
139.357
139.358
139.359
139.359
139.36
139.36
139.36
139.36
139.361
139.361
139.361
139.361
139.361
139.361
139.36
139.36
139.36
139.36
139.36
139.36
139.36
139.36
139.359
139.359
139.358
139.357
139.356
139.355
139.353
139.352
139.35
139.349
139.347
139.346
139.345
139.344
139.343
139.342
139.342
139.341
139.34
139.339
139.337
139.335
139.331
139.325
139.317
139.306
139.296
139.265
139.351
139.353
139.355
139.356
139.357
139.358
139.359
139.36
139.36
139.36
139.361
139.361
139.361
139.361
139.36
139.36
139.36
139.36
139.36
139.36
139.36
139.36
139.36
139.359
139.359
139.359
139.359
139.358
139.358
139.357
139.356
139.354
139.353
139.351
139.35
139.348
139.346
139.344
139.342
139.34
139.338
139.337
139.336
139.335
139.333
139.332
139.33
139.328
139.324
139.319
139.313
139.304
139.292
139.277
139.259
139.236
139.21
139.177
139.149
139.08
139.36
139.36
139.361
139.361
139.361
139.361
139.361
139.36
139.36
139.36
139.36
139.36
139.359
139.359
139.359
139.359
139.359
139.359
139.359
139.358
139.358
139.358
139.357
139.357
139.356
139.354
139.353
139.351
139.349
139.347
139.345
139.342
139.34
139.337
139.335
139.333
139.33
139.328
139.327
139.325
139.323
139.32
139.317
139.313
139.307
139.3
139.29
139.277
139.261
139.241
139.217
139.189
139.156
139.118
139.076
139.03
138.98
138.926
138.879
138.791
139.361
139.36
139.36
139.36
139.359
139.359
139.359
139.359
139.358
139.358
139.358
139.358
139.358
139.358
139.357
139.357
139.357
139.356
139.355
139.354
139.353
139.351
139.349
139.347
139.344
139.342
139.338
139.335
139.332
139.329
139.326
139.323
139.32
139.318
139.315
139.312
139.309
139.305
139.301
139.294
139.286
139.276
139.262
139.245
139.224
139.198
139.168
139.134
139.094
139.05
139.002
138.951
138.897
138.842
138.787
138.734
138.683
138.639
138.601
138.567
139.358
139.358
139.358
139.357
139.357
139.357
139.357
139.357
139.357
139.356
139.356
139.355
139.355
139.354
139.353
139.351
139.349
139.347
139.344
139.341
139.338
139.334
139.33
139.326
139.322
139.319
139.315
139.311
139.308
139.304
139.301
139.297
139.293
139.287
139.281
139.272
139.261
139.246
139.229
139.207
139.18
139.149
139.112
139.071
139.026
138.976
138.924
138.869
138.814
138.759
138.707
138.659
138.619
138.587
138.566
138.558
138.564
138.593
138.621
138.743
139.356
139.356
139.356
139.355
139.355
139.355
139.354
139.353
139.352
139.351
139.349
139.347
139.344
139.341
139.338
139.334
139.33
139.325
139.32
139.315
139.31
139.306
139.301
139.297
139.292
139.288
139.284
139.279
139.273
139.266
139.257
139.246
139.231
139.213
139.19
139.163
139.13
139.093
139.05
139.004
138.953
138.899
138.844
138.788
138.734
138.684
138.64
138.604
138.578
138.566
138.568
138.589
138.628
138.688
138.771
138.877
139.004
139.165
139.306
139.645
139.353
139.352
139.351
139.35
139.348
139.346
139.344
139.341
139.338
139.334
139.329
139.324
139.319
139.314
139.308
139.302
139.296
139.29
139.285
139.279
139.274
139.269
139.264
139.258
139.251
139.242
139.23
139.216
139.197
139.174
139.147
139.114
139.075
139.032
138.984
138.932
138.878
138.822
138.767
138.714
138.666
138.626
138.595
138.577
138.574
138.589
138.623
138.678
138.757
138.861
138.989
139.142
139.32
139.522
139.746
139.992
140.253
140.543
140.79
141.283
139.343
139.341
139.337
139.333
139.329
139.324
139.319
139.313
139.307
139.3
139.293
139.286
139.279
139.272
139.266
139.26
139.254
139.248
139.241
139.234
139.226
139.215
139.201
139.183
139.16
139.133
139.1
139.061
139.017
138.969
138.916
138.861
138.805
138.75
138.699
138.654
138.618
138.593
138.584
138.591
138.619
138.669
138.743
138.842
138.968
139.12
139.3
139.505
139.734
139.986
140.258
140.547
140.85
141.164
141.484
141.809
142.131
142.46
142.733
143.213
139.318
139.312
139.306
139.299
139.291
139.284
139.276
139.268
139.259
139.252
139.244
139.237
139.23
139.224
139.217
139.209
139.198
139.186
139.169
139.148
139.122
139.089
139.051
139.007
138.958
138.905
138.85
138.793
138.739
138.689
138.647
138.616
138.598
138.598
138.617
138.659
138.727
138.82
138.942
139.093
139.272
139.48
139.713
139.972
140.253
140.552
140.867
141.194
141.528
141.866
142.203
142.535
142.86
143.173
143.472
143.755
144.018
144.269
144.47
144.785
139.274
139.265
139.256
139.247
139.238
139.229
139.221
139.213
139.205
139.198
139.19
139.181
139.17
139.156
139.138
139.114
139.084
139.047
139.004
138.955
138.902
138.845
138.789
138.735
138.686
138.647
138.62
138.61
138.619
138.652
138.71
138.797
138.913
139.06
139.237
139.446
139.683
139.948
140.238
140.548
140.876
141.217
141.567
141.92
142.273
142.62
142.958
143.282
143.591
143.88
144.148
144.394
144.618
144.818
144.997
145.154
145.291
145.412
145.506
145.639
139.215
139.206
139.196
139.187
139.178
139.17
139.162
139.153
139.143
139.128
139.108
139.082
139.049
139.008
138.961
138.908
138.851
138.794
138.739
138.691
138.654
138.631
138.628
138.648
138.694
138.77
138.878
139.019
139.193
139.402
139.642
139.913
140.211
140.533
140.874
141.231
141.597
141.969
142.34
142.704
143.059
143.398
143.718
144.017
144.29
144.539
144.76
144.956
145.126
145.272
145.397
145.501
145.589
145.663
145.725
145.777
145.822
145.862
145.893
145.943
139.152
139.143
139.134
139.125
139.116
139.102
139.084
139.058
139.023
138.98
138.929
138.872
138.813
138.757
138.707
138.669
138.649
138.652
138.681
138.742
138.837
138.968
139.137
139.343
139.585
139.862
140.169
140.503
140.86
141.234
141.62
142.011
142.402
142.787
143.161
143.518
143.854
144.164
144.446
144.699
144.92
145.111
145.272
145.406
145.515
145.602
145.671
145.725
145.767
145.801
145.831
145.857
145.882
145.906
145.932
145.958
145.984
146.012
146.034
146.077
139.089
139.079
139.066
139.045
139.013
138.97
138.917
138.857
138.796
138.74
138.698
138.675
138.68
138.717
138.791
138.906
139.063
139.264
139.506
139.788
140.105
140.454
140.829
141.224
141.632
142.047
142.462
142.87
143.265
143.642
143.996
144.321
144.615
144.875
145.099
145.288
145.441
145.562
145.653
145.719
145.764
145.793
145.811
145.821
145.829
145.837
145.847
145.862
145.882
145.906
145.935
145.966
145.999
146.031
146.061
146.088
146.111
146.13
146.145
146.167
139.02
138.992
138.945
138.885
138.82
138.761
138.723
138.717
138.752
138.835
138.969
139.156
139.394
139.679
140.009
140.375
140.773
141.194
141.631
142.075
142.519
142.954
143.375
143.774
144.146
144.488
144.794
145.063
145.292
145.481
145.631
145.742
145.818
145.862
145.881
145.88
145.866
145.845
145.823
145.804
145.794
145.793
145.804
145.825
145.856
145.895
145.94
145.986
146.031
146.071
146.104
146.128
146.141
146.144
146.138
146.123
146.105
146.078
146.065
145.997
138.92
138.856
138.811
138.812
138.877
139.017
139.231
139.517
139.864
140.26
140.694
141.154
141.63
142.113
142.593
143.062
143.511
143.934
144.325
144.679
144.992
145.264
145.492
145.676
145.818
145.92
145.984
146.014
146.014
145.988
145.945
145.89
145.832
145.778
145.736
145.71
145.703
145.717
145.748
145.795
145.853
145.918
145.984
146.048
146.104
146.147
146.176
146.188
146.182
146.158
146.118
146.064
146
145.927
145.849
145.764
145.674
145.55
145.466
145.101
138.895
139.145
139.526
140.006
140.549
141.125
141.707
142.276
142.821
143.335
143.815
144.258
144.659
145.015
145.321
145.578
145.784
145.942
146.053
146.122
146.151
146.147
146.112
146.054
145.978
145.891
145.799
145.71
145.634
145.579
145.552
145.558
145.597
145.665
145.756
145.859
145.966
146.067
146.156
146.228
146.277
146.301
146.299
146.271
146.218
146.144
146.053
145.95
145.841
145.728
145.613
145.495
145.369
145.223
145.039
144.796
144.478
144.041
143.583
142.543
)
;

boundaryField
{
    bottomwall
    {
        type            opaque;
        refValue        uniform 0;
        refGradient     uniform 0;
        valueFraction   uniform 0;
        source          uniform 0;
        value           nonuniform List<scalar> 
60
(
138.994
139.004
139.014
139.024
139.034
139.044
139.053
139.062
139.071
139.08
139.088
139.095
139.103
139.111
139.118
139.126
139.133
139.141
139.149
139.158
139.167
139.177
139.187
139.198
139.209
139.222
139.234
139.248
139.261
139.275
139.289
139.304
139.318
139.332
139.345
139.358
139.37
139.381
139.391
139.4
139.408
139.414
139.419
139.422
139.423
139.423
139.422
139.418
139.413
139.407
139.399
139.39
139.38