/*--------------------------------*- C++ -*----------------------------------*\
| =========                 |                                                 |
| \\      /  F ield         | OpenFOAM: The Open Source CFD Toolbox           |
|  \\    /   O peration     | Version:  2406                                  |
|   \\  /    A nd           | Website:  www.openfoam.com                      |
|    \\/     M anipulation  |                                                 |
\*---------------------------------------------------------------------------*/
FoamFile
{
    version     2.0;
    format      ascii;
    arch        "LSB;label=32;scalar=64";
    class       volScalarField;
    location    "15000";
    object      ILambda_3_0;
}
// * * * * * * * * * * * * * * * * * * * * * * * * * * * * * * * * * * * * * //

dimensions      [1 0 -3 0 0 0 0];

internalField   nonuniform List<scalar> 
3600
(
140.24
142.812
144.955
146.499
147.509
148.132
148.51
148.75
148.919
149.056
149.178
149.296
149.412
149.525
149.634
149.739
149.842
149.944
150.047
150.153
150.261
150.373
150.486
150.599
150.712
150.823
150.938
151.063
151.208
151.374
151.55
151.708
151.807
151.815
151.736
151.643
151.686
152.078
153.05
154.779
157.333
160.627
164.43
168.409
172.199
175.462
177.943
179.481
179.997
179.482
177.972
175.546
172.335
168.524
164.354
160.094
156
152.241
149.049
144.786
138.907
139.524
141.009
142.878
144.691
146.19
147.292
148.034
148.501
148.785
148.965
149.094
149.204
149.309
149.417
149.525
149.633
149.74
149.844
149.948
150.053
150.159
150.267
150.378
150.49
150.603
150.714
150.827
150.945
151.076
151.224
151.388
151.554
151.692
151.769
151.767
151.706
151.67
151.808
152.315
153.391
155.182
157.73
160.945
164.614
168.436
172.076
175.226
177.637
179.14
179.647
179.133
177.63
175.224
172.053
168.307
164.238
160.001
156.391
150.675
139.013
138.809
139.06
139.946
141.355
143.019
144.658
146.074
147.175
147.957
148.472
148.793
148.992
149.125
149.23
149.327
149.427
149.53
149.635
149.741
149.846
149.951
150.057
150.164
150.272
150.383
150.494
150.605
150.716
150.829
150.951
151.087
151.242
151.409
151.567
151.685
151.732
151.7
151.626
151.607
151.799
152.392
153.567
155.443
158.039
161.253
164.874
168.614
172.163
175.228
177.572
179.028
179.498
178.952
177.421
174.987
171.832
167.989
164.495
158.01
139.158
138.991
138.797
138.827
139.292
140.248
141.595
143.136
144.663
146.012
147.096
147.894
148.439
148.789
149.007
149.148
149.253
149.346
149.439
149.536
149.638
149.742
149.848
149.954
150.06
150.168
150.277
150.387
150.497
150.607
150.717
150.833
150.96
151.105
151.265
151.429
151.57
151.657
151.666
151.601
151.516
151.522
151.78
152.468
153.748
155.714
158.363
161.583
165.164
168.835
172.301
175.285
177.56
178.956
179.375
178.774
177.23
174.634
172.032
165.88
139.221
139.172
139.032
138.84
138.743
138.92
139.494
140.478
141.778
143.236
144.682
145.978
147.04
147.844
148.408
148.78
149.015
149.166
149.273
149.363
149.452
149.545
149.643
149.745
149.85
149.956
150.064
150.172
150.282
150.391
150.499
150.608
150.72
150.84
150.974
151.125
151.286
151.439
151.557
151.61
151.582
151.493
151.41
151.453
151.782
152.566
153.945
155.991
158.685
161.907
165.451
169.058
172.447
175.353
177.557
178.879
179.269
178.49
177.402
172.854
139.295
139.262
139.21
139.093
138.914
138.755
138.748
139.027
139.668
140.664
141.928
143.324
144.708
145.959
147
147.803
148.379
148.768
149.018
149.179
149.29
149.38
149.465
149.554
149.648
149.748
149.852
149.959
150.067
150.176
150.285
150.393
150.501
150.61
150.724
150.849
150.99
151.144
151.302
151.441
151.533
151.552
151.492
151.387
151.316
151.403
151.806
152.681
154.15
156.266
158.997
162.218
165.727
169.274
172.593
175.417
177.573
178.731
179.396
177.462
139.397
139.349
139.31
139.259
139.162
139.005
138.825
138.711
138.78
139.134
139.821
140.823
142.057
143.405
144.739
145.951
146.971
147.77
148.354
148.755
149.018
149.188
149.304
149.394
149.478
149.563
149.655
149.753
149.856
149.962
150.07
150.179
150.288
150.395
150.503
150.613
150.731
150.861
151.007
151.163
151.313
151.435
151.498
151.486
151.401
151.288
151.235
151.371
151.847
152.808
154.358
156.536
159.298
162.517
165.995
169.482
172.747
175.452
177.636
178.698
139.47
139.437
139.398
139.36
139.314
139.234
139.101
138.925
138.76
138.694
138.827
139.238
139.959
140.963
142.172
143.48
144.771
145.95
146.95
147.743
148.332
148.743
149.017
149.195
149.316
149.408
149.49
149.573
149.662
149.758
149.86
149.965
150.073
150.182
150.29
150.397
150.505
150.617
150.74
150.876
151.025
151.179
151.32
151.42
151.456
151.414
151.309
151.194
151.166
151.353
151.902
152.943
154.567
156.801
159.591
162.804
166.253
169.701
172.75
176.397
139.454
139.469
139.46
139.436
139.406
139.367
139.302
139.194
139.037
138.858
138.715
138.694
138.881
139.339
140.085
141.088
142.276
143.55
144.805
145.954
146.936
147.721
148.312
148.731
149.014
149.201
149.326
149.42
149.501
149.583
149.67
149.764
149.864
149.969
150.076
150.184
150.291
150.398
150.508
150.624
150.751
150.892
151.043
151.193
151.32
151.399
151.407
151.339
151.219
151.109
151.109
151.349
151.967
153.084
154.778
157.063
159.866
163.141
166.207
171.345
139.347
139.407
139.446
139.461
139.457
139.44
139.412
139.364
139.279
139.148
138.977
138.801
138.685
138.706
138.94
139.435
140.201
141.203
142.372
143.616
144.839
145.962
146.926
147.704
148.295
148.72
149.011
149.204
149.335
149.431
149.512
149.592
149.677
149.77
149.869
149.973
150.079
150.186
150.293
150.4
150.512
150.632
150.764
150.909
151.06
151.203
151.315
151.37
151.352
151.261
151.131
151.031
151.063
151.357
152.042
153.235
154.971
157.402
159.772
165.019
139.207
139.28
139.349
139.404
139.44
139.457
139.458
139.445
139.413
139.352
139.249
139.099
138.921
138.755
138.666
138.727
139.001
139.528
140.309
141.309
142.461
143.678
144.874
145.972
146.919
147.69
148.281
148.71
149.007
149.207
149.342
149.44
149.522
149.602
149.685
149.776
149.874
149.976
150.082
150.188
150.294
150.403
150.517
150.642
150.779
150.926
151.076
151.21
151.304
151.336
151.292
151.183
151.047
150.96
151.027
151.381
152.106
153.473
154.83
159.035
139.105
139.155
139.218
139.286
139.35
139.401
139.437
139.456
139.46
139.447
139.409
139.334
139.213
139.05
138.87
138.718
138.657
138.754
139.063
139.617
140.411
141.409
142.544
143.738
144.908
145.984
146.916
147.678
148.268
148.7
149.003
149.209
149.348
149.449
149.532
149.611
149.693
149.783
149.879
149.98
150.084
150.189
150.296
150.406
150.524
150.653
150.795
150.944
151.089
151.211
151.287
151.295
151.229
151.105
150.966
150.902
150.983
151.479
151.936
154.555
139.07
139.084
139.116
139.165
139.225
139.29
139.35
139.4
139.436
139.458
139.463
139.447
139.399
139.31
139.174
139.003
138.826
138.69
138.656
138.785
139.126
139.703
140.507
141.502
142.623
143.796
144.943
145.998
146.916
147.67
148.257
148.692
148.999
149.21
149.353
149.457
149.541
149.62
149.701
149.789
149.884
149.983
150.086
150.191
150.298
150.411
150.533
150.666
150.811
150.96
151.1
151.209
151.265
151.251
151.163
151.031
150.878
150.892
150.818
151.965
139.084
139.073
139.074
139.09
139.124
139.173
139.232
139.294
139.352
139.4
139.438
139.461
139.465
139.443
139.385
139.282
139.134
138.958
138.786
138.667
138.66
138.82
139.189
139.786
140.599
141.59
142.698
143.851
144.977
146.014
146.917
147.663
148.248
148.684
148.996
149.21
149.358
149.464
149.55
149.629
149.709
149.796
149.889
149.986
150.088
150.192
150.301
150.417
150.543
150.681
150.828
150.975
151.107
151.202
151.237
151.204
151.089
150.975
150.754
150.949
139.114
139.097
139.082
139.073
139.077
139.096
139.131
139.18
139.237
139.297
139.353
139.402
139.441
139.464
139.465
139.436
139.366
139.251
139.094
138.916
138.752
138.651
138.669
138.857
139.252
139.866
140.687
141.674
142.769
143.904
145.011
146.03
146.92
147.658
148.24
148.678
148.992
149.211
149.362
149.471
149.558
149.637
149.717
149.802
149.893
149.99
150.09
150.195
150.305
150.424
150.554
150.696
150.844
150.988
151.11
151.191
151.203
151.156
151.023
150.845
139.136
139.124
139.109
139.093
139.08
139.074
139.081
139.102
139.138
139.186
139.242
139.301
139.357
139.406
139.444
139.466
139.463
139.426
139.345
139.219
139.055
138.877
138.722
138.64
138.682
138.897
139.314
139.944
140.771
141.754
142.838
143.956
145.044
146.047
146.925
147.655
148.234
148.671
148.989
149.211
149.366
149.478
149.566
149.645
149.725
149.808
149.898
149.993
150.092
150.198
150.31
150.433
150.567
150.712
150.86
151
151.111
151.172
151.186
151.03
139.147
139.142
139.133
139.121
139.106
139.09
139.079
139.076
139.084
139.107
139.144
139.192
139.247
139.305
139.361
139.41
139.448
139.467
139.459
139.412
139.321
139.185
139.016
138.841
138.697
138.633
138.699
138.938
139.376
140.02
140.852
141.831
142.904
144.006
145.077
146.065
146.93
147.653
148.229
148.666
148.985
149.211
149.369
149.483
149.573
149.653
149.732
149.814
149.902
149.996
150.095
150.201
150.317
150.443
150.581
150.727
150.875
151.005
151.118
151.132
139.156
139.151
139.146
139.14
139.13
139.117
139.102
139.088
139.078
139.077
139.088
139.113
139.15
139.197
139.252
139.309
139.365
139.415
139.452
139.467
139.452
139.396
139.295
139.151
138.979
138.807
138.675
138.63
138.718
138.98
139.437
140.094
140.93
141.905
142.967
144.055
145.11
146.083
146.937
147.652
148.224
148.662
148.983
149.211
149.372
149.489
149.58
149.66
149.739
149.82
149.906
149.999
150.098
150.206
150.324
150.454
150.596
150.742
150.886
151.047
139.175
139.164
139.157
139.151
139.146
139.138
139.128
139.114
139.099
139.086
139.078
139.079
139.092
139.117
139.155
139.203
139.257
139.315
139.371
139.42
139.455
139.466
139.443
139.378
139.268
139.117
138.944
138.777
138.657
138.63
138.74
139.023
139.498
140.166
141.005
141.976
143.028
144.102
145.143
146.102
146.945
147.653
148.221
148.658
148.98
149.211
149.375
149.494
149.587
149.667
149.745
149.825
149.91
150.002
150.102
150.212
150.332
150.468
150.597
150.824
139.213
139.192
139.176
139.165
139.157
139.151
139.145
139.136
139.125
139.111
139.097
139.085
139.078
139.081
139.095
139.122
139.16
139.208
139.263
139.321
139.377
139.425
139.457
139.463
139.432
139.358
139.239
139.083
138.91
138.749
138.643
138.634
138.764
139.067
139.558
140.236
141.078
142.045
143.088
144.149
145.175
146.121
146.953
147.654
148.218
148.654
148.978
149.212
149.378
149.499
149.593
149.674
149.751
149.83
149.914
150.006
150.106
150.222
150.325
150.551
139.271
139.24
139.213
139.192
139.177
139.166
139.158
139.151
139.143
139.134
139.122
139.108
139.094
139.083
139.079
139.083
139.099
139.126
139.165
139.213
139.269
139.327
139.383
139.43
139.458
139.458
139.419
139.337
139.21
139.05
138.878
138.725
138.631
138.64
138.79
139.111
139.618
140.304
141.149
142.112
143.145
144.194
145.207
146.14
146.963
147.656
148.217
148.652
148.976
149.212
149.38
149.503
149.599
149.68
149.756
149.835
149.918
150.014
150.096
150.291
139.344
139.306
139.271
139.239
139.213
139.193
139.177
139.166
139.158
139.15
139.142
139.132
139.119
139.105
139.092
139.083
139.079
139.085
139.102
139.13
139.17
139.219
139.275
139.334
139.389
139.434
139.458
139.451
139.405
139.314
139.181
139.018
138.847
138.702
138.622
138.648
138.817
139.156
139.676
140.371
141.218
142.177
143.201
144.238
145.238
146.16
146.972
147.659
148.216
148.649
148.975
149.212
149.383
149.508
149.604
149.686
149.761
149.843
149.909
150.069
139.418
139.381
139.342
139.305
139.27
139.239
139.214
139.193
139.178
139.167
139.158
139.15
139.14
139.129
139.117
139.103
139.091
139.082
139.08
139.087
139.105
139.135
139.175
139.225
139.282
139.341
139.395
139.437
139.457
139.443
139.389
139.29
139.151
138.986
138.819
138.682
138.616
138.659
138.846
139.201
139.734
140.437
141.285
142.24
143.256
144.281
145.269
146.179
146.983
147.663
148.216
148.648
148.974
149.212
149.385
149.512
149.608
149.694
149.756
149.888
139.476
139.448
139.415
139.378
139.341
139.303
139.269
139.239
139.214
139.194
139.179
139.167
139.158
139.149
139.139
139.127
139.114
139.101
139.089
139.082
139.081
139.089
139.108
139.139
139.181
139.232
139.289
139.348
139.401
139.44
139.454
139.434
139.372
139.266
139.122
138.956
138.792
138.665
138.612
138.671
138.876
139.247
139.792
140.501
141.35
142.302
143.309
144.324
145.3
146.199
146.993
147.667
148.216
148.647
148.973
149.213
149.387
149.518
149.604
149.734
139.503
139.492
139.473
139.446
139.413
139.376
139.339
139.302
139.269
139.239
139.214
139.194
139.179
139.167
139.157
139.148
139.137
139.125
139.112
139.099
139.088
139.081
139.082
139.091
139.112
139.144
139.186
139.238
139.296
139.355
139.406
139.441
139.45
139.423
139.353
139.241
139.093
138.926
138.767
138.649
138.61
138.686
138.907
139.293
139.849
140.564
141.414
142.361
143.361
144.365
145.33
146.219
147.004
147.672
148.217
148.646
148.972
149.216
149.379
149.567
139.491
139.501
139.5
139.49
139.47
139.443
139.411
139.374
139.337
139.301
139.268
139.239
139.214
139.195
139.18
139.167
139.157
139.146
139.135
139.123
139.11
139.097
139.086
139.081
139.083
139.093
139.115
139.148
139.192
139.245
139.304
139.362
139.411
139.442
139.445
139.411
139.334
139.215
139.064
138.898
138.744
138.636
138.61
138.701
138.938
139.338
139.905
140.626
141.477
142.42
143.411
144.406
145.36
146.239
147.016
147.677
148.218
148.649
148.956
149.298
139.44
139.469
139.489
139.499
139.499
139.488
139.468
139.441
139.408
139.373
139.336
139.3
139.267
139.239
139.215
139.195
139.18
139.167
139.156
139.145
139.133
139.121
139.107
139.095
139.085
139.081
139.083
139.096
139.119
139.153
139.198
139.253
139.311
139.368
139.415
139.442
139.439
139.397
139.314
139.19
139.036
138.871
138.723
138.625
138.612
138.719
138.971
139.384
139.96
140.687
141.538
142.477
143.461
144.446
145.39
146.259
147.027
147.688
148.191
148.798
139.362
139.404
139.441
139.469
139.489
139.498
139.497
139.486
139.466
139.439
139.406
139.371
139.334
139.299
139.267
139.239
139.215
139.196
139.18
139.167
139.155
139.144
139.132
139.119
139.105
139.093
139.084
139.081
139.085
139.098
139.122
139.158
139.205
139.26
139.319
139.374
139.418
139.44
139.431
139.383
139.293
139.164
139.008
138.845
138.703
138.615
138.616
138.737
139.004
139.43
140.015
140.747
141.598
142.533
143.51
144.485
145.417
146.289
146.99
147.939
139.271
139.318
139.364
139.406
139.442
139.47
139.488
139.497
139.495
139.484
139.464
139.436
139.404
139.369
139.333
139.298
139.267
139.239
139.215
139.196
139.18
139.167
139.155
139.143
139.13
139.117
139.103
139.092
139.083
139.081
139.086
139.1
139.126
139.164
139.212
139.267
139.326
139.38
139.421
139.438
139.423
139.368
139.271
139.138
138.981
138.82
138.685
138.607
138.621
138.757
139.038
139.475
140.069
140.805
141.656
142.588
143.554
144.539
145.373
146.657
139.184
139.228
139.274
139.321
139.366
139.407
139.443
139.47
139.488
139.496
139.494
139.482
139.461
139.434
139.402
139.367
139.332
139.297
139.266
139.239
139.215
139.196
139.18
139.166
139.154
139.141
139.128
139.115
139.102
139.09
139.083
139.081
139.087
139.103
139.131
139.169
139.219
139.275
139.333
139.385
139.422
139.435
139.413
139.352
139.25
139.113
138.954
138.797
138.668
138.601
138.628
138.778
139.072
139.521
140.123
140.864
141.709
142.662
143.506
145.005
139.113
139.147
139.187
139.231
139.277
139.324
139.368
139.409
139.444
139.47
139.487
139.495
139.492
139.48
139.459
139.432
139.4
139.365
139.33
139.297
139.266
139.239
139.215
139.196
139.18
139.166
139.153
139.14
139.126
139.113
139.1
139.089
139.082
139.081
139.088
139.106
139.135
139.175
139.226
139.282
139.34
139.39
139.423
139.43
139.403
139.335
139.228
139.087
138.929
138.775
138.653
138.596
138.636
138.8
139.106
139.568
140.171
140.945
141.661
143.166
139.064
139.087
139.115
139.15
139.19
139.234
139.28
139.326
139.37
139.411
139.444
139.47
139.487
139.494
139.49
139.478
139.457
139.43
139.398
139.364
139.329
139.296
139.265
139.239
139.216
139.196
139.18
139.165
139.152
139.138
139.125
139.111
139.098
139.087
139.081
139.081
139.09
139.109
139.14
139.182
139.233
139.29
139.346
139.394
139.423
139.425
139.391
139.318
139.205
139.062
138.904
138.753
138.64
138.593
138.645
138.824
139.136
139.638
140.122
141.408
139.039
139.05
139.066
139.089
139.118
139.153
139.193
139.237
139.283
139.329
139.373
139.412
139.445
139.47
139.486
139.492
139.489
139.476
139.455
139.428
139.396
139.362
139.328
139.295
139.265
139.238
139.216
139.196
139.18
139.165
139.151
139.137
139.123
139.109
139.096
139.086
139.081
139.082
139.092
139.113
139.145
139.188
139.24
139.297
139.352
139.397
139.423
139.419
139.379
139.3
139.183
139.037
138.88
138.734
138.627
138.593
138.65
138.868
139.09
139.987
139.034
139.035
139.04
139.051
139.067
139.091
139.12
139.155
139.196
139.24
139.286
139.331
139.375
139.413
139.446
139.47
139.486
139.491
139.487
139.474
139.453
139.426
139.394
139.361
139.327
139.294
139.265
139.238
139.216
139.196
139.179
139.164
139.15
139.135
139.121
139.107
139.095
139.085
139.08
139.083
139.094
139.116
139.15
139.195
139.248
139.304
139.358
139.4
139.421
139.412
139.366
139.281
139.16
139.013
138.856
138.716
138.612
138.608
138.61
139.065
139.043
139.037
139.034
139.035
139.04
139.052
139.069
139.093
139.122
139.158
139.199
139.243
139.288
139.334
139.377
139.415
139.447
139.47
139.485
139.49
139.485
139.472
139.451
139.424
139.392
139.359
139.326
139.294
139.264
139.238
139.216
139.196
139.179
139.163
139.148
139.134
139.119
139.105
139.093
139.084
139.08
139.083
139.096
139.12
139.155
139.201
139.255
139.311
139.363
139.402
139.419
139.404
139.353
139.262
139.137
138.989
138.831
138.706
138.58
138.658
139.06
139.05
139.042
139.036
139.033
139.035
139.041
139.053
139.07
139.094
139.125
139.161
139.202
139.246
139.291
139.336
139.378
139.416
139.447
139.47
139.484
139.489
139.484
139.47
139.449
139.422
139.391
139.358
139.325
139.293
139.264
139.238
139.215
139.196
139.178
139.162
139.147
139.132
139.117
139.104
139.091
139.083
139.08
139.084
139.099
139.124
139.161
139.208
139.262
139.318
139.368
139.404
139.416
139.396
139.338
139.244
139.114
138.967
138.811
138.655
139.082
139.07
139.059
139.049
139.041
139.036
139.033
139.035
139.041
139.054
139.072
139.096
139.127
139.163
139.204
139.248
139.294
139.338
139.38
139.417
139.448
139.47
139.484
139.487
139.482
139.468
139.447
139.42
139.389
139.356
139.324
139.292
139.264
139.238
139.215
139.195
139.178
139.161
139.146
139.131
139.116
139.102
139.09
139.082
139.08
139.086
139.102
139.129
139.167
139.215
139.27
139.325
139.372
139.405
139.412
139.386
139.324
139.222
139.106
138.873
139.107
139.094
139.081
139.069
139.058
139.048
139.04
139.035
139.033
139.035
139.042
139.055
139.073
139.098
139.13
139.166
139.207
139.251
139.296
139.341
139.382
139.419
139.448
139.47
139.483
139.486
139.48
139.466
139.445
139.418
139.387
139.355
139.323
139.292
139.263
139.238
139.215
139.195
139.177
139.161
139.145
139.129
139.114
139.1
139.089
139.081
139.08
139.087
139.105
139.133
139.173
139.222
139.277
139.331
139.376
139.404
139.408
139.373
139.325
139.136
139.134
139.12
139.106
139.093
139.08
139.068
139.057
139.048
139.04
139.035
139.033
139.035
139.043
139.056
139.075
139.1
139.132
139.169
139.21
139.254
139.299
139.343
139.384
139.42
139.449
139.47
139.482
139.485
139.479
139.464
139.443
139.416
139.386
139.354
139.322
139.291
139.263
139.237
139.215
139.195
139.176
139.159
139.143
139.127
139.112
139.098
139.087
139.081
139.08
139.089
139.108
139.138
139.179
139.229
139.284
139.336
139.38
139.401
139.414
139.324
139.164
139.148
139.133
139.119
139.105
139.092
139.079
139.067
139.056
139.047
139.039
139.034
139.033
139.035
139.043
139.057
139.077
139.103
139.134
139.172
139.213
139.257
139.301
139.345
139.386
139.421
139.449
139.47
139.481
139.484
139.477
139.462
139.441
139.414
139.384
139.352
139.321
139.29
139.262
139.237
139.214
139.194
139.176
139.158
139.142
139.126
139.11
139.097
139.086
139.08
139.081
139.091
139.111
139.143
139.186
139.236
139.291
139.34
139.387
139.393
139.196
139.179
139.163
139.148
139.133
139.119
139.105
139.091
139.079
139.067
139.056
139.046
139.039
139.034
139.033
139.036
139.044
139.058
139.078
139.105
139.137
139.174
139.216
139.259
139.304
139.347
139.387
139.422
139.45
139.47
139.481
139.482
139.475
139.461
139.439
139.412
139.383
139.351
139.32
139.29
139.262
139.237
139.214
139.194
139.175
139.157
139.14
139.124
139.109
139.095
139.085
139.08
139.082
139.093
139.115
139.148
139.192
139.243
139.295
139.361
139.23
139.212
139.195
139.179
139.163
139.147
139.132
139.118
139.104
139.091
139.078
139.066
139.055
139.045
139.038
139.033
139.032
139.036
139.045
139.059
139.08
139.107
139.139
139.177
139.218
139.262
139.306
139.349
139.389
139.423
139.45
139.469
139.48
139.481
139.474
139.459
139.437
139.411
139.381
139.35
139.319
139.289
139.262
139.236
139.214
139.193
139.174
139.156
139.139
139.122
139.107
139.093
139.084
139.079
139.083
139.095
139.119
139.155
139.193
139.275
139.264
139.247
139.229
139.212
139.195
139.178
139.162
139.147
139.132
139.117
139.103
139.09
139.077
139.065
139.054
139.045
139.037
139.033
139.032
139.036
139.045
139.06
139.082
139.109
139.142
139.18
139.221
139.265
139.309
139.351
139.39
139.424
139.451
139.469
139.479
139.48
139.472
139.457
139.435
139.409
139.38
139.349
139.318
139.289
139.261
139.236
139.213
139.192
139.173
139.155
139.137
139.121
139.105
139.092
139.083
139.079
139.084
139.099
139.117
139.183
139.297
139.28
139.263
139.246
139.228
139.211
139.194
139.177
139.161
139.146
139.131
139.117
139.103
139.089
139.076
139.064
139.053
139.044
139.037
139.033
139.032
139.037
139.046
139.062
139.083
139.111
139.144
139.182
139.224
139.267
139.311
139.353
139.392
139.425
139.451
139.469
139.478
139.479
139.471
139.455
139.434
139.407
139.378
139.348
139.317
139.288
139.261
139.236
139.213
139.192
139.172
139.154
139.136
139.119
139.103
139.091
139.082
139.081
139.081
139.116
139.325
139.311
139.296
139.28
139.263
139.245
139.228
139.21
139.193
139.177
139.161
139.145
139.13
139.116
139.102
139.088
139.075
139.063
139.052
139.043
139.036
139.032
139.032
139.037
139.047
139.063
139.085
139.113
139.147
139.185
139.226
139.27
139.314
139.355
139.393
139.426
139.451
139.469
139.477
139.477
139.469
139.454
139.432
139.406
139.377
139.346
139.316
139.287
139.26
139.235
139.212
139.191
139.171
139.152
139.134
139.117
139.101
139.09
139.079
139.085
139.346
139.336
139.324
139.311
139.295
139.279
139.262
139.244
139.227
139.21
139.193
139.176
139.16
139.145
139.13
139.115
139.101
139.088
139.075
139.062
139.051
139.042
139.036
139.032
139.032
139.038
139.048
139.064
139.087
139.115
139.149
139.187
139.229
139.273
139.316
139.357
139.395
139.427
139.451
139.468
139.477
139.476
139.468
139.452
139.43
139.404
139.375
139.345
139.315
139.287
139.26
139.235
139.212
139.19
139.17
139.151
139.133
139.116
139.1
139.086
139.358
139.353
139.345
139.336
139.324
139.31
139.295
139.278
139.261
139.244
139.226
139.209
139.192
139.176
139.16
139.144
139.129
139.115
139.1
139.087
139.074
139.062
139.051
139.042
139.035
139.032
139.033
139.038
139.049
139.066
139.089
139.117
139.152
139.19
139.232
139.275
139.318
139.359
139.396
139.427
139.452
139.468
139.476
139.475
139.466
139.45
139.429
139.403
139.374
139.344
139.315
139.286
139.259
139.234
139.211
139.189
139.169
139.149
139.132
139.107
139.361
139.36
139.357
139.352
139.345
139.335
139.323
139.309
139.294
139.278
139.261
139.243
139.226
139.209
139.192
139.175
139.159
139.144
139.129
139.114
139.1
139.086
139.073
139.061
139.05
139.041
139.035
139.032
139.033
139.039
139.05
139.067
139.091
139.12
139.154
139.193
139.234
139.278
139.32
139.361
139.397
139.428
139.452
139.468
139.475
139.474
139.465
139.449
139.427
139.401
139.373
139.343
139.314
139.285
139.259
139.234
139.21
139.188
139.17
139.139
139.359
139.361
139.361
139.36
139.357
139.352
139.344
139.334
139.322
139.308
139.293
139.277
139.26
139.243
139.225
139.208
139.191
139.175
139.159
139.143
139.128
139.113
139.099
139.085
139.072
139.06
139.049
139.04
139.034
139.031
139.033
139.039
139.051
139.069
139.092
139.122
139.156
139.195
139.237
139.28
139.323
139.363
139.399
139.429
139.452
139.467
139.474
139.472
139.463
139.447
139.425
139.4
139.372
139.342
139.313
139.285
139.258
139.232
139.212
139.177
139.357
139.358
139.36
139.361
139.361
139.36
139.357
139.351
139.343
139.333
139.321
139.308
139.292
139.276
139.259
139.242
139.225
139.207
139.191
139.174
139.158
139.142
139.127
139.112
139.098
139.084
139.071
139.059
139.048
139.04
139.034
139.031
139.033
139.04
139.052
139.07
139.094
139.124
139.159
139.198
139.24
139.282
139.325
139.364
139.4
139.43
139.452
139.467
139.473
139.471
139.462
139.445
139.424
139.398
139.37
139.341
139.312
139.283
139.26
139.221
139.354
139.356
139.357
139.359
139.36
139.361
139.361
139.36
139.356
139.351
139.343
139.333
139.321
139.307
139.292
139.275
139.258
139.241
139.224
139.207
139.19
139.173
139.157
139.142
139.127
139.112
139.097
139.083
139.07
139.058
139.047
139.039
139.033
139.031
139.033
139.04
139.053
139.072
139.096
139.126
139.161
139.201
139.242
139.285
139.327
139.366
139.401
139.43
139.452
139.466
139.472
139.47
139.46
139.444
139.422
139.397
139.369
139.339
139.314
139.27
139.348
139.352
139.354
139.356
139.358
139.359
139.361
139.361
139.361
139.359
139.356
139.35
139.342
139.332
139.32
139.306
139.291
139.275
139.258
139.241
139.223
139.206
139.189
139.173
139.157
139.141
139.126
139.111
139.097
139.083
139.069
139.057
139.047
139.038
139.033
139.031
139.033
139.041
139.054
139.073
139.098
139.129
139.164
139.203
139.245
139.287
139.329
139.368
139.402
139.431
139.452
139.466
139.471
139.469
139.459
139.442
139.421
139.395
139.371
139.325
139.328
139.34
139.347
139.352
139.355
139.357
139.358
139.36
139.361
139.362
139.361
139.359
139.355
139.35
139.342
139.331
139.319
139.305
139.29
139.274
139.257
139.24
139.223
139.206
139.189
139.172
139.156
139.141
139.125
139.11
139.096
139.082
139.068
139.056
139.046
139.038
139.032
139.031
139.034
139.042
139.055
139.075
139.1
139.131
139.166
139.206
139.247
139.29
139.331
139.369
139.403
139.431
139.452
139.465
139.47
139.467
139.457
139.44
139.423
139.38
139.291
139.311
139.327
139.339
139.347
139.352
139.355
139.357
139.359
139.36
139.361
139.362
139.361
139.359
139.355
139.349
139.341
139.331
139.318
139.305
139.289
139.273
139.256
139.239
139.222
139.205
139.188
139.172
139.156
139.14
139.125
139.109
139.095
139.081
139.068
139.056
139.045
139.037
139.032
139.031
139.034
139.042
139.056
139.076
139.102
139.133
139.169
139.208
139.25
139.292
139.333
139.371
139.404
139.432
139.452
139.465
139.47
139.466
139.459
139.428
139.236
139.265
139.29
139.311
139.327
139.339
139.347
139.352
139.355
139.358
139.359
139.361
139.362
139.362
139.361
139.359
139.355
139.349
139.34
139.33
139.318
139.304
139.289
139.273
139.256
139.239
139.221
139.204
139.188
139.171
139.155
139.139
139.124
139.109
139.094
139.08
139.067
139.055
139.044
139.037
139.032
139.031
139.034
139.043
139.058
139.078
139.104
139.135
139.171
139.211
139.252
139.294
139.335
139.372
139.405
139.432
139.452
139.464
139.471
139.459
139.174
139.206
139.237
139.266
139.291
139.311
139.327
139.338
139.346
139.352
139.355
139.358
139.36
139.361
139.362
139.362
139.361
139.358
139.354
139.348
139.34
139.329
139.317
139.303
139.288
139.272
139.255
139.238
139.221
139.204
139.187
139.171
139.154
139.139
139.123
139.108
139.093
139.079
139.066
139.054
139.044
139.036
139.032
139.031
139.035
139.044
139.059
139.08
139.106
139.138
139.174
139.213
139.255
139.296
139.337
139.374
139.406
139.433
139.453
139.465
139.11
139.143
139.176
139.208
139.239
139.267
139.291
139.311
139.327
139.339
139.347
139.352
139.356
139.359
139.361
139.362
139.363
139.363
139.361
139.359
139.354
139.348
139.339
139.329
139.316
139.303
139.287
139.271
139.254
139.237
139.22
139.203
139.186
139.17
139.154
139.138
139.122
139.107
139.092
139.078
139.065
139.053
139.043
139.035
139.031
139.031
139.035
139.045
139.06
139.081
139.108
139.14
139.176
139.216
139.257
139.298
139.339
139.376
139.406
139.442
139.045
139.079
139.111
139.144
139.176
139.208
139.238
139.265
139.289
139.309
139.324
139.336
139.345
139.35
139.355
139.357
139.36
139.361
139.362
139.362
139.36
139.358
139.353
139.347
139.338
139.328
139.316
139.302
139.287
139.271
139.254
139.237
139.22
139.203
139.187
139.17
139.154
139.138
139.122
139.107
139.092
139.078
139.065
139.053
139.043
139.036
139.032
139.032
139.036
139.046
139.062
139.083
139.11
139.142
139.179
139.218
139.259
139.301
139.337
139.39
138.971
139.013
139.052
139.089
139.123
139.157
139.189
139.22
139.25
139.276
139.299
139.318
139.333
139.344
139.352
139.357
139.36
139.362
139.364
139.364
139.364
139.364
139.362
139.358
139.353
139.346
139.338
139.327
139.314
139.3
139.284
139.268
139.251
139.233
139.216
139.199
139.182
139.165
139.149
139.133
139.117
139.102
139.087
139.073
139.06
139.048
139.038
139.031
139.028
139.028
139.034
139.045
139.062
139.084
139.113
139.146
139.184
139.226
139.263
139.329
138.852
138.89
138.929
138.968
139.007
139.044
139.08
139.115
139.149
139.182
139.213
139.241
139.266
139.289
139.307
139.322
139.334
139.343
139.349
139.354
139.358
139.36
139.362
139.362
139.362
139.36
139.356
139.351
139.344
139.335
139.324
139.312
139.298
139.283
139.268
139.251
139.235
139.218
139.201
139.184
139.168
139.152
139.136
139.12
139.105
139.09
139.076
139.063
139.052
139.043
139.037
139.034
139.036
139.042
139.054
139.071
139.093
139.122
139.149
139.208
)
;

boundaryField
{
    bottomwall
    {
        type            opaque;
        refValue        nonuniform List<scalar> 
60
(
143.314
145.512
146.765
147.544
148.059
148.417
148.677
148.876
149.037
149.173
149.297
149.414
149.527
149.634
149.738
149.84
149.941
150.044
150.149
150.259
150.371
150.484
150.598
150.71
150.821
150.933
151.055
151.198
151.367
151.552
151.724
151.836
151.845
151.746
151.606
151.582
151.904
152.828
154.551
157.149
160.529
164.437
168.513
172.368
175.658
178.133
179.647
180.14
179.609
178.088
175.649
172.413
168.563
164.342
160.034
155.913
152.182
148.911
145.93
142.629
)
;
        refGradient     uniform 0;
        valueFraction   uniform 1;
        source          uniform 0;