/*--------------------------------*- C++ -*----------------------------------*\
| =========                 |                                                 |
| \\      /  F ield         | OpenFOAM: The Open Source CFD Toolbox           |
|  \\    /   O peration     | Version:  2406                                  |
|   \\  /    A nd           | Website:  www.openfoam.com                      |
|    \\/     M anipulation  |                                                 |
\*---------------------------------------------------------------------------*/
FoamFile
{
    version     2.0;
    format      ascii;
    arch        "LSB;label=32;scalar=64";
    class       volScalarField;
    location    "15000";
    object      ILambda_0_0;
}
// * * * * * * * * * * * * * * * * * * * * * * * * * * * * * * * * * * * * * //

dimensions      [1 0 -3 0 0 0 0];

internalField   nonuniform List<scalar> 
3600
(
142.789
145.445
146.702
147.496
148.026
148.394
148.66
148.863
149.025
149.163
149.288
149.405
149.518
149.626
149.73
149.832
149.933
150.035
150.141
150.25
150.362
150.475
150.589
150.702
150.812
150.924
151.045
151.186
151.352
151.537
151.712
151.83
151.848
151.757
151.616
151.576
151.862
152.73
154.385
156.914
160.238
164.115
168.191
172.076
175.421
177.968
179.563
180.138
179.687
178.242
175.873
172.695
168.886
164.685
160.374
156.23
152.462
149.156
146.168
142.769
141.906
145.166
146.579
147.399
147.957
148.344
148.623
148.834
149.002
149.143
149.269
149.387
149.5
149.609
149.714
149.816
149.917
150.019
150.124
150.232
150.344
150.457
150.571
150.684
150.795
150.906
151.025
151.162
151.325
151.508
151.686
151.816
151.852
151.777
151.637
151.569
151.789
152.55
154.07
156.46
159.667
163.474
167.542
171.482
174.933
177.62
179.373
180.113
179.824
178.534
176.305
173.246
169.524
165.368
161.057
156.87
153.033
149.654
146.649
143.067
141.196
144.754
146.435
147.304
147.884
148.292
148.585
148.805
148.977
149.122
149.25
149.369
149.483
149.592
149.697
149.8
149.901
150.003
150.107
150.215
150.326
150.439
150.553
150.666
150.777
150.888
151.005
151.139
151.297
151.478
151.659
151.8
151.853
151.794
151.659
151.569
151.728
152.387
153.776
156.026
159.111
162.841
166.892
170.876
174.426
177.25
179.159
180.063
179.937
178.802
176.717
173.781
170.15
166.047
161.742
157.519
153.615
150.162
147.137
143.384
140.636
144.253
146.249
147.209
147.81
148.238
148.545
148.774
148.953
149.101
149.23
149.351
149.465
149.575
149.681
149.784
149.885
149.986
150.09
150.198
150.308
150.421
150.535
150.648
150.76
150.87
150.986
151.117
151.271
151.449
151.632
151.782
151.851
151.81
151.682
151.574
151.679
152.243
153.505
155.613
158.573
162.217
166.24
170.26
173.901
176.856
178.92
179.987
180.024
179.047
177.108
174.298
170.765
166.721
162.429
158.176
154.209
150.679
147.631
143.719
140.205
143.702
146.007
147.107
147.737
148.181
148.503
148.742
148.927
149.079
149.211
149.332
149.447
149.558
149.665
149.768
149.869
149.97
150.074
150.181
150.29
150.403
150.517
150.631
150.742
150.853
150.967
151.095
151.245
151.419
151.604
151.762
151.846
151.823
151.705
151.584
151.641
152.117
153.255
155.223
158.053
161.603
165.589
169.634
173.357
176.439
178.655
179.885
180.087
179.268
177.476
174.797
171.367
167.388
163.117
158.84
154.814
151.207
148.132
144.071
139.887
143.133
145.706
146.989
147.663
148.122
148.459
148.709
148.901
149.057
149.191
149.314
149.429
149.541
149.648
149.751
149.853
149.954
150.057
150.163
150.273
150.385
150.499
150.613
150.725
150.835
150.948
151.073
151.219
151.391
151.575
151.74
151.839
151.833
151.727
151.598
151.613
152.007
153.026
154.856
157.552
161.002
164.939
169
172.798
175.999
178.365
179.757
180.123
179.464
177.823
175.276
171.954
168.047
163.805
159.511
155.431
151.746
148.641
144.44
139.67
142.573
145.349
146.847
147.588
148.062
148.413
148.675
148.874
149.034
149.171
149.295
149.412
149.523
149.631
149.735
149.837
149.938
150.041
150.146
150.255
150.367
150.481
150.595
150.707
150.817
150.93
151.052
151.195
151.362
151.546
151.716
151.828
151.841
151.748
151.615
151.594
151.912
152.818
154.511
157.071
160.413
164.294
168.359
172.223
175.538
178.049
179.602
180.133
179.636
178.146
175.736
172.526
168.698
164.491
160.187
156.058
152.297
149.157
144.823
139.529
142.044
144.942
146.672
147.508
148.003
148.365
148.638
148.846
149.011
149.151
149.276
149.393
149.506
149.614
149.719
149.821
149.922
150.024
150.129
150.238
150.349
150.463
150.577
150.689
150.8
150.912
151.032
151.171
151.334
151.517
151.692
151.816
151.846
151.768
151.634
151.584
151.832
152.63
154.188
156.611
159.839
163.653
167.714
171.634
175.057
177.709
179.422
180.117
179.782
178.446
176.175
173.083
169.338
165.175
160.868
156.695
152.86
149.681
145.22
139.431
141.563
144.499
146.459
147.419
147.943
148.316
148.6
148.817
148.987
149.13
149.257
149.375
149.489
149.598
149.703
149.805
149.906
150.008
150.113
150.22
150.331
150.445
150.559
150.672
150.782
150.894
151.012
151.147
151.307
151.487
151.666
151.801
151.847
151.785
151.655
151.58
151.766
152.461
153.888
156.172
159.281
163.02
167.066
171.033
174.555
177.344
179.215
180.075
179.903
178.722
176.594
173.622
169.968
165.854
161.552
157.342
153.434
150.214
145.631
139.347
141.14
144.033
146.206
147.315
147.883
148.266
148.561
148.786
148.963
149.109
149.238
149.357
149.471
149.581
149.686
149.789
149.89
149.992
150.096
150.203
150.314
150.427
150.541
150.654
150.765
150.876
150.993
151.125
151.28
151.458
151.639
151.783
151.846
151.801
151.676
151.582
151.712
152.311
153.61
155.754
158.739
162.396
166.416
170.42
174.034
176.956
178.982
180.006
179.998
178.974
176.991
174.145
170.586
166.529
162.238
157.997
154.019
150.755
146.054
139.264
140.772
143.559
145.913
147.192
147.82
148.216
148.52
148.754
148.937
149.087
149.218
149.339
149.453
149.563
149.67
149.773
149.874
149.976
150.079
150.186
150.296
150.409
150.523
150.636
150.747
150.858
150.973
151.103
151.254
151.429
151.611
151.764
151.843
151.815
151.698
151.589
151.669
152.178
153.354
155.359
158.216
161.781
165.765
169.797
173.496
176.545
178.724
179.912
180.067
179.203
177.366
174.648
171.191
167.197
162.925
158.66
154.616
151.305
146.489
139.186
140.452
143.089
145.582
147.044
147.752
148.167
148.478
148.721
148.911
149.065
149.198
149.32
149.435
149.546
149.653
149.757
149.858
149.959
150.063
150.169
150.278
150.391
150.505
150.618
150.73
150.84
150.955
151.081
151.229
151.4
151.583
151.743
151.836
151.825
151.719
151.6
151.637
152.062
153.119
154.986
157.711
161.178
165.117
169.166
172.941
176.111
178.44
179.79
180.111
179.406
177.719
175.134
171.782
167.858
163.612
159.33
155.225
151.865
146.936
139.123
140.174
142.631
145.218
146.868
147.677
148.117
148.435
148.687
148.884
149.043
149.179
149.301
149.418
149.529
149.636
149.74
149.842
149.943
150.046
150.152
150.261
150.373
150.486
150.6
150.712
150.823
150.936
151.06
151.204
151.372
151.554
151.721
151.827
151.834
151.74
151.615
151.614
151.962
152.905
154.636
157.226
160.587
164.472
168.528
172.37
175.656
178.13
179.643
180.129
179.585
178.049
175.599
172.358
168.51
164.298
160.005
155.843
152.435
147.394
139.081
139.931
142.192
144.829
146.661
147.59
148.066
148.392
148.651
148.856
149.02
149.158
149.283
149.4
149.512
149.62
149.724
149.826
149.927
150.03
150.135
150.243
150.355
150.468
150.582
150.695
150.805
150.918
151.039
151.18
151.344
151.525
151.697
151.815
151.839
151.759
151.632
151.599
151.877
152.711
154.307
156.762
160.011
163.832
167.885
171.786
175.179
177.796
179.469
180.12
179.738
178.356
176.045
172.919
169.153
164.981
160.685
156.473
153.015
147.863
139.061
139.723
141.776
144.42
146.422
147.488
148.013
148.349
148.614
148.827
148.996
149.138
149.264
149.381
149.494
149.603
149.708
149.81
149.911
150.013
150.118
150.226
150.337
150.45
150.564
150.677
150.788
150.9
151.019
151.156
151.317
151.496
151.671
151.801
151.842
151.777
151.651
151.592
151.805
152.536
154.001
156.318
159.45
163.199
167.239
171.188
174.683
177.438
179.269
180.085
179.866
178.64
176.469
173.463
169.785
165.661
161.368
157.111
153.605
148.344
139.055
139.548
141.386
143.999
146.152
147.368
147.956
148.306
148.577
148.796
148.972
149.117
149.245
149.363
149.477
149.586
149.691
149.794
149.895
149.997
150.101
150.209
150.319
150.432
150.546
150.659
150.77
150.882
150.999
151.133
151.29
151.467
151.645
151.785
151.841
151.793
151.671
151.591
151.746
152.38
153.717
155.896
158.906
162.574
166.591
170.579
174.167
177.056
179.042
180.024
179.969
178.899
176.873
173.99
170.406
166.336
162.054
157.759
154.205
148.835
139.059
139.407
141.027
143.571
145.852
147.225
147.894
148.263
148.539
148.765
148.947
149.096
149.225
149.345
149.459
149.569
149.675
149.778
149.879
149.981
150.085
150.191
150.302
150.414
150.528
150.641
150.753
150.864
150.98
151.111
151.263
151.438
151.618
151.766
151.839
151.806
151.692
151.595
151.699
152.241
153.455
155.496
158.38
161.958
165.942
169.959
173.634
176.65
178.79
179.936
180.046
179.135
177.255
174.499
171.014
167.005
162.742
158.414
154.815
149.338
139.068
139.294
140.7
143.144
145.524
147.059
147.823
148.22
148.501
148.732
148.92
149.074
149.206
149.327
149.441
149.552
149.658
149.762
149.863
149.965
150.068
150.174
150.284
150.396
150.51
150.623
150.735
150.846
150.961
151.089
151.238
151.41
151.591
151.746
151.833
151.818
151.712
151.604
151.662
152.119
153.214
155.118
157.871
161.354
165.295
169.331
173.083
176.222
178.513
179.821
180.097
179.345
177.614
174.99
171.609
167.667
163.429
159.076
155.436
149.852
139.084
139.208
140.407
142.723
145.172
146.866
147.741
148.175
148.463
148.699
148.893
149.051
149.186
149.308
149.424
149.535
149.642
149.745
149.847
149.948
150.051
150.157
150.266
150.378
150.492
150.606
150.717
150.828
150.942
151.067
151.213
151.382
151.562
151.725
151.825
151.826
151.732
151.616
151.635
152.014
152.994
154.762
157.383
160.762
164.651
168.696
172.517
175.772
178.21
179.681
180.122
179.531
177.951
175.461
172.189
168.321
164.116
159.745
156.066
150.376
139.106
139.143
140.147
142.314
144.799
146.646
147.644
148.128
148.426
148.665
148.865
149.028
149.166
149.29
149.406
149.517
149.625
149.729
149.831
149.932
150.035
150.14
150.249
150.36
150.474
150.588
150.7
150.811
150.924
151.047
151.188
151.354
151.534
151.701
151.814
151.832
151.751
151.631
151.616
151.923
152.793
154.428
156.914
160.184
164.011
168.056
171.936
175.301
177.882
179.514
180.12
179.692
178.265
175.912
172.754
168.965
164.801
160.419
156.705
150.912
139.139
139.096
139.92
141.922
144.412
146.399
147.531
148.077
148.388
148.631
148.836
149.005
149.146
149.271
149.388
149.5
149.608
149.713
149.815
149.916
150.019
150.123
150.231
150.343
150.456
150.57
150.682
150.793
150.905
151.026
151.164
151.326
151.505
151.677
151.801
151.836
151.769
151.648
151.605
151.846
152.612
154.116
156.466
159.621
163.378
167.412
171.342
174.809
177.53
179.32
180.093
179.828
178.556
176.343
173.303
169.6
165.482
161.097
157.354
151.459
139.181
139.066
139.723
141.55
144.014
146.125
147.399
148.019
148.351
148.597
148.806
148.98
149.125
149.252
149.37
149.482
149.591
149.697
149.799
149.9
150.002
150.107
150.214
150.325
150.438
150.552
150.664
150.776
150.887
151.006
151.141
151.299
151.476
151.651
151.786
151.837
151.785
151.667
151.601
151.782
152.45
153.826
156.039
159.074
162.752
166.765
170.737
174.299
177.153
179.101
180.038
179.938
178.822
176.753
173.835
170.223
166.158
161.778
158.01
152.016
139.233
139.051
139.557
141.202
143.611
145.825
147.245
147.954
148.313
148.563
148.776
148.955
149.103
149.233
149.351
149.465
149.574
149.68
149.783
149.884
149.986
150.09
150.197
150.307
150.42
150.534
150.647
150.758
150.869
150.987
151.119
151.273
151.448
151.625
151.768
151.834
151.798
151.686
151.602
151.73
152.306
153.558
155.634
158.544
162.136
166.118
170.121
173.77
176.754
178.855
179.958
180.022
179.065
177.141
174.349
170.834
166.83
162.46
158.675
152.584
139.29
139.051
139.418
140.879
143.208
145.503
147.067
147.877
148.273
148.529
148.744
148.928
149.082
149.213
149.333
149.447
149.557
149.664
149.767
149.868
149.97
150.073
150.18
150.289
150.402
150.516
150.629
150.74
150.852
150.967
151.097
151.247
151.419
151.598
151.749
151.83
151.81
151.706
151.608
151.689
152.178
153.31
155.25
158.032
161.53
165.472
169.496
173.224
176.331
178.584
179.851
180.081
179.283
177.507
174.845
171.432
167.494
163.144
159.346
153.163
139.343
139.066
139.305
140.584
142.81
145.16
146.866
147.788
148.231
148.496
148.713
148.901
149.059
149.194
149.315
149.43
149.54
149.647
149.751
149.852
149.954
150.057
150.163
150.272
150.384
150.498
150.611
150.723
150.834
150.949
151.075
151.222
151.391
151.57
151.728
151.823
151.819
151.725
151.618
151.657
152.067
153.084
154.889
157.54
160.936
164.828
168.864
172.662
175.887
178.288
179.717
180.113
179.476
177.851
175.321
172.016
168.151
163.827
160.022
153.752
139.384
139.094
139.218
140.317
142.421
144.801
146.64
147.684
148.184
148.463
148.682
148.874
149.036
149.173
149.296
149.412
149.523
149.63
149.734
149.836
149.938
150.04
150.146
150.254
150.366
150.479
150.593
150.705
150.816
150.93
151.054
151.197
151.363
151.542
151.706
151.813
151.826
151.744
151.631
151.635
151.971
152.877
154.549
157.067
160.356
164.189
168.226
172.086
175.421
177.966
179.557
180.119
179.644
178.172
175.779
172.584
168.799
164.508
160.704
154.351
139.408
139.131
139.155
140.079
142.044
144.429
146.389
147.563
148.132
148.43
148.651
148.845
149.012
149.153
149.278
149.394
149.506
149.613
149.718
149.82
149.922
150.024
150.129
150.237
150.348
150.461
150.575
150.687
150.799
150.911
151.033
151.173
151.336
151.514
151.682
151.801
151.83
151.761
151.647
151.62
151.889
152.69
154.232
156.614
159.791
163.556
167.584
171.496
174.935
177.62
179.37
180.098
179.787
178.469
176.216
173.137
169.436
165.187
161.39
154.96
139.411
139.175
139.115
139.871
141.684
144.048
146.115
147.422
148.072
148.396
148.62
148.816
148.987
149.132
149.259
149.376
149.488
149.597
149.702
149.804
149.905
150.008
150.112
150.22
150.33
150.443
150.557
150.67
150.781
150.893
151.013
151.15
151.309
151.485
151.657
151.786
151.831
151.777
151.664
151.612
151.82
152.522
153.936
156.183
159.241
162.93
166.939
170.894
174.429
177.249
179.157
180.051
179.905
178.743
176.632
173.674
170.063
165.861
162.079
155.578
139.393
139.22
139.095
139.691
141.344
143.662
145.819
147.26
148.003
148.361
148.59
148.787
148.962
149.111
149.24
149.358
149.471
149.58
149.685
149.788
149.889
149.991
150.095
150.202
150.313
150.425
150.539
150.652
150.763
150.875
150.993
151.127
151.282
151.457
151.632
151.77
151.83
151.791
151.682
151.611
151.763
152.372
153.661
155.772
158.708
162.313
166.293
170.281
173.905
176.855
178.918
179.978
179.997
178.993
177.026
174.193
170.678
166.531
162.77
156.205
139.357
139.26
139.092
139.541
141.026
143.276
145.503
147.077
147.922
148.323
148.56
148.758
148.936
149.088
149.22
149.34
149.453
149.563
149.669
149.772
149.873
149.975
150.079
150.185
150.295
150.407
150.521
150.634
150.746
150.857
150.974
151.104
151.256
151.428
151.605
151.752
151.826
151.803
151.7
151.614
151.717
152.239
153.408
155.384
158.193
161.706
165.649
169.66
173.364
176.439
178.654
179.878
180.062
179.218
177.399
174.694
171.28
167.194
163.461
156.84
139.311
139.293
139.103
139.418
140.732
142.893
145.169
146.871
147.827
148.281
148.531
148.729
148.909
149.066
149.201
149.322
149.436
149.546
149.652
149.756
149.857
149.959
150.062
150.168
150.277
150.39
150.503
150.616
150.728
150.839
150.955
151.083
151.231
151.4
151.578
151.732
151.82
151.812
151.719
151.621
151.681
152.122
153.176
155.017
157.697
161.111
165.006
169.03
172.806
176
178.363
179.751
180.102
179.419
177.75
175.176
171.868
167.85
164.152
157.482
139.261
139.314
139.124
139.321
140.464
142.517
144.82
146.642
147.717
148.234
148.501
148.701
148.882
149.042
149.18
149.303
149.418
149.528
149.635
149.739
149.841
149.943
150.046
150.151
150.26
150.372
150.485
150.598
150.71
150.822
150.936
151.061
151.206
151.372
151.55
151.71
151.811
151.819
151.737
151.632
151.655
152.02
152.963
154.672
157.22
160.529
164.367
168.395
172.234
175.539
178.048
179.597
180.115
179.594
178.077
175.638
172.442
168.497
164.842
158.131
139.212
139.323
139.15
139.249
140.224
142.153
144.459
146.391
147.589
148.18
148.471
148.673
148.855
149.018
149.16
149.284
149.4
149.511
149.619
149.723
149.825
149.927
150.029
150.134
150.243
150.354
150.467
150.581
150.693
150.804
150.918
151.041
151.182
151.345
151.522
151.687
151.8
151.824
151.754
151.646
151.636
151.933
152.77
154.348
156.763
159.961
163.734
167.755
171.648
175.059
177.708
179.418
180.102
179.744
178.382
176.081
173
169.135
165.529
158.786
139.17
139.321
139.178
139.198
140.011
141.802
144.09
146.118
147.443
148.118
148.44
148.646
148.828
148.994
149.139
149.266
149.382
149.494
149.602
149.707
149.809
149.911
150.013
150.117
150.225
150.336
150.449
150.563
150.675
150.786
150.899
151.02
151.158
151.318
151.494
151.663
151.787
151.826
151.769
151.661
151.625
151.859
152.596
154.047
156.327
159.409
163.108
167.112
171.05
174.558
177.344
179.212
180.062
179.869
178.663
176.503
173.541
169.762
166.212
159.447
139.137
139.309
139.204
139.165
139.826
141.47
143.717
145.825
147.276
148.045
148.406
148.619
148.801
148.969
149.117
149.246
149.364
149.477
149.585
149.69
149.793
149.895
149.997
150.101
150.208
150.318
150.431
150.545
150.657
150.769
150.881
151
151.135
151.291
151.466
151.638
151.771
151.826
151.783
151.678
151.62
151.797
152.44
153.767
155.912
158.873
162.49
166.469
170.441
174.039
176.956
178.979
179.995
179.968
178.92
176.904
174.066
170.378
166.889
160.112
139.114
139.29
139.226
139.148
139.668
141.157
143.344
145.514
147.089
147.96
148.369
148.592
148.774
148.943
149.095
149.227
149.346
149.459
149.568
149.674
149.777
149.879
149.98
150.084
150.191
150.301
150.413
150.527
150.64
150.751
150.863
150.981
151.112
151.265
151.437
151.612
151.754
151.823
151.795
151.696
151.621
151.747
152.301
153.507
155.518
158.355
161.882
165.825
169.822
173.502
176.545
178.721
179.902
180.041
179.152
177.283
174.572
170.982
167.561
160.78
139.1
139.267
139.244
139.142
139.536
140.867
142.973
145.187
146.88
147.86
148.327
148.566
148.747
148.918
149.072
149.207
149.328
149.442
149.551
149.657
149.761
149.863
149.964
150.067
150.174
150.283
150.395
150.509
150.622
150.733
150.845
150.961
151.09
151.24
151.409
151.585
151.735
151.817
151.805
151.713
151.626
151.707
152.178
153.269
155.146
157.855
161.286
165.183
169.196
172.95
176.111
178.437
179.783
180.088
179.36
177.64
175.06
171.571
168.225
161.451
139.095
139.242
139.255
139.145
139.429
140.601
142.608
144.847
146.65
147.745
148.279
148.539
148.722
148.892
149.049
149.187
149.31
149.424
149.534
149.641
149.745
149.846
149.948
150.051
150.157
150.265
150.377
150.491
150.604
150.716
150.827
150.942
151.069
151.215
151.382
151.558
151.714
151.81
151.813
151.73
151.634
151.676
152.071
153.05
154.795
157.374
160.702
164.545
168.563
172.381
175.657
178.128
179.636
180.109
179.543
177.974
175.529
172.147
168.88
162.124
139.097
139.218
139.26
139.154
139.344
140.36
142.254
144.496
146.4
147.613
148.223
148.511
148.697
148.866
149.025
149.166
149.291
149.406
149.517
149.624
149.728
149.83
149.932
150.035
150.14
150.248
150.359
150.473
150.586
150.698
150.81
150.924
151.048
151.19
151.354
151.53
151.692
151.799
151.818
151.747
151.646
151.654
151.979
152.851
154.467
156.913
160.132
163.912
167.926
171.8
175.181
177.795
179.463
180.103
179.701
178.285
175.978
172.707
169.526
162.797
139.106
139.195
139.26
139.166
139.279
140.144
141.913
144.138
146.129
147.463
148.158
148.481
148.672
148.84
149.001
149.145
149.272
149.389
149.5
149.607
149.712
149.814
149.916
150.018
150.123
150.231
150.342
150.455
150.568
150.68
150.792
150.905
151.027
151.166
151.327
151.502
151.668
151.787
151.821
151.762
151.66
151.64
151.899
152.671
154.159
156.473
159.577
163.286
167.285
171.205
174.686
177.436
179.264
180.07
179.833
178.573
176.407
173.252
170.161
163.47
139.121
139.175
139.254
139.179
139.231
139.954
141.588
143.775
145.84
147.293
148.082
148.448
148.648
148.815
148.976
149.123
149.253
149.371
149.482
149.59
149.696
149.798
149.9
150.002
150.106
150.213
150.324
150.437
150.55
150.663
150.774
150.887
151.007
151.143
151.3
151.474
151.644
151.772
151.821
151.776
151.675
151.631
151.833
152.509
153.873
156.053
159.039
162.667
166.643
170.6
174.172
177.054
179.039
180.011
179.939
178.837
176.814
173.78
170.785
164.142
139.141
139.158
139.245
139.191
139.197
139.79
141.281
143.412
145.534
147.103
147.994
148.411
148.624
148.791
148.951
149.101
149.233
149.353
149.465
149.574
149.679
149.782
149.884
149.986
150.089
150.196
150.306
150.419
150.532
150.645
150.757
150.869
150.987
151.12
151.274
151.446
151.618
151.756
151.819
151.788
151.691
151.629
151.778
152.365
153.608
155.654
158.517
162.059
166.001
169.985
173.64
176.649
178.787
179.925
180.02
179.077
177.2
174.29
171.395
164.811
139.165
139.147
139.233
139.202
139.176
139.649
140.994
143.052
145.213
146.893
147.891
148.369
148.6
148.767
148.927
149.078
149.213
149.335
149.448
149.557
149.663
149.766
149.868
149.969
150.073
150.179
150.289
150.401
150.514
150.627
150.739
150.851
150.968
151.098
151.249
151.418
151.592
151.737
151.815
151.799
151.708
151.631
151.734
152.236
153.363
155.276
158.014
161.461
165.36
169.361
173.091
176.222
178.51
179.812
180.074
179.292
177.564
174.782
171.992
165.476
139.193
139.141
139.219
139.209
139.164
139.531
140.73
142.697
144.88
146.663
147.772
148.32
148.575
148.744
148.902
149.055
149.193
149.316
149.43
149.54
149.646
149.75
149.852
149.953
150.056
150.162
150.271
150.383
150.496
150.609
150.721
150.833
150.949
151.076
151.224
151.391
151.565
151.717
151.808
151.807
151.725
151.638
151.699
152.124
153.139
154.92
157.529
160.875
164.722
168.731
172.528
175.772
178.207
179.673
180.102
179.482
177.906
175.255
172.574
166.137
139.222
139.14
139.205
139.214
139.16
139.433
140.488
142.352
144.538
146.414
147.637
148.262
148.549
148.721
148.878
149.031
149.172
149.297
149.413
149.523
149.629
149.733
149.836
149.937
150.04
150.145
150.254
150.365
150.478
150.591
150.704
150.815
150.93
151.055
151.199
151.363
151.538
151.696
151.798
151.813
151.741
151.647
151.673
152.026
152.934
154.586
157.064
160.303
164.09
168.096
171.95
175.302
177.88
179.507
180.103
179.647
178.224
175.709
173.141
166.793
139.25
139.144
139.192
139.216
139.16
139.355
140.27
142.019
144.189
146.146
147.483
148.195
148.52
148.699
148.854
149.007
149.15
149.278
149.395
149.505
149.613
149.717
149.819
149.921
150.023
150.128
150.236
150.347
150.46
150.573
150.686
150.797
150.911
151.034
151.175
151.336
151.511
151.673
151.787
151.816
151.756
151.659
151.655
151.942
152.748
154.273
156.619
159.746
163.463
167.458
171.359
174.812
177.528
179.314
180.078
179.786
178.519
176.142
173.691
167.442
139.277
139.154
139.18
139.215
139.163
139.293
140.075
141.7
143.836
145.86
147.311
148.116
148.488
148.678
148.831
148.984
149.129
149.259
149.377
149.488
149.596
149.701
149.803
149.905
150.007
150.112
150.219
150.329
150.442
150.555
150.668
150.78
150.893
151.014
151.151
151.31
151.483
151.649
151.773
151.817
151.77
151.673
151.644
151.87
152.58
153.981
156.194
159.205
162.844
166.817
170.758
174.303
177.152
179.095
180.026
179.9
178.79
176.555
174.223
168.083
139.299
139.167
139.171
139.212
139.168
139.247
139.904
141.398
143.482
145.559
147.12
148.025
148.45
148.656
148.809
148.96
149.106
149.239
149.359
149.471
149.579
149.684
149.787
149.889
149.991
150.095
150.202
150.312
150.424
150.538
150.65
150.762
150.875
150.994
151.129
151.283
151.455
151.624
151.757
151.816
151.782
151.688
151.638
151.811
152.43
153.71
155.79
158.68
162.235
166.176
170.146
173.776
176.752
178.851
179.947
179.988
179.037
176.947
174.738
168.715
139.316
139.184
139.166
139.206
139.173
139.212
139.755
141.115
143.131
145.245
146.91
147.919
148.407
148.634
148.787
148.936
149.084
149.219
149.341
149.454
149.562
149.668
149.771
149.873
149.975
150.078
150.185
150.294
150.406
150.52
150.632
150.744
150.857
150.975
151.106
151.258
151.427
151.599
151.74
151.812
151.792
151.704
151.638
151.762
152.296
153.46
155.408
158.173
161.636
165.536
169.525
173.232
176.33
178.58
179.841
180.049
179.26
177.317
175.234
169.338
139.329
139.203
139.164
139.2
139.178
139.188
139.627
140.851
142.785
144.919
146.68
147.797
148.357
148.611
148.766
148.913
149.061
149.198
149.322
149.436
149.545
149.651
149.755
149.857
149.958
150.062
150.168
150.277
150.388
150.502
150.615
150.727
150.839
150.955
151.084
151.232
151.4
151.572
151.721
151.805
151.801
151.719
151.642
151.724
152.178
153.229
155.046
157.684
161.049
164.9
168.898
172.673
175.887
178.284
179.709
180.084
179.458
177.665
175.711
169.951
139.339
139.223
139.165
139.194
139.182
139.171
139.519
140.609
142.448
144.584
146.433
147.66
148.298
148.585
148.746
148.89
149.038
149.177
149.303
149.419
149.528
149.635
149.738
149.841
149.942
150.045
150.151
150.259
150.37
150.484
150.597
150.709
150.821
150.936
151.063
151.208
151.372
151.546
151.7
151.797
151.807
151.735
151.649
151.694
152.075
153.018
154.706
157.215
160.475
164.267
168.266
172.099
175.422
177.962
179.55
180.093
179.63
177.99
176.167
170.552
139.345
139.242
139.17
139.188
139.185
139.162
139.429
140.388
142.121
144.243
146.167
147.504
148.228
148.557
148.726
148.868
149.014
149.156
149.284
149.401
149.511
149.618
149.722
149.825
149.926
150.029
150.134
150.242
150.353
150.466
150.579
150.691
150.803
150.917
151.042
151.183
151.345
151.518
151.678
151.786
151.811
151.75
151.659
151.672
151.986
152.827
154.388
156.766
159.915
163.64
167.629
171.513
174.937
177.617
179.364
180.075
179.777
178.292
176.602
171.14
139.346
139.261
139.178
139.183
139.186
139.157
139.355
140.189
141.808
143.898
145.886
147.331
148.148
148.525
148.707
148.847
148.991
149.134
149.265
149.383
149.494
149.601
149.706
149.808
149.91
150.012
150.117
150.224
150.335
150.448
150.561
150.673
150.785
150.899
151.021
151.16
151.319
151.491
151.655
151.773
151.812
151.763
151.672
151.657
151.91
152.653
154.09
156.336
159.371
163.021
166.99
170.915
174.433
177.247
179.152
180.03
179.898
178.57
177.017
171.715
139.339
139.279
139.189
139.18
139.187
139.155
139.296
140.011
141.51
143.553
145.589
147.139
148.054
148.487
148.687
148.827
148.969
149.112
149.245
149.365
149.477
149.585
149.689
149.792
149.894
149.996
150.1
150.207
150.317
150.43
150.543
150.656
150.767
150.881
151.001
151.137
151.292
151.464
151.63
151.758
151.812
151.775
151.685
151.649
151.845
152.497
153.813
155.928
158.843
162.411
166.351
170.306
173.911
176.853
178.914
179.958
179.993
178.825
177.409
172.276
139.321
139.296
139.203
139.179
139.186
139.155
139.25
139.855
141.229
143.21
145.281
146.929
147.946
148.443
148.667
148.808
148.946
149.089
149.224
149.347
149.46
149.568
149.673
149.776
149.878
149.98
150.084
150.19
150.3
150.412
150.525
150.638
150.75
150.862
150.981
151.114
151.267
151.436
151.605
151.742
151.809
151.786
151.7
151.646
151.792
152.358
153.557
155.54
158.333
161.811
165.713
169.689
173.372
176.437
178.65
179.86
180.062
179.055
177.779
172.822
139.293
139.31
139.219
139.18
139.185
139.157
139.215
139.718
140.966
142.871
144.96
146.7
147.822
148.391
148.644
148.789
148.925
149.067
149.203
149.328
149.442
149.551
149.656
149.76
149.862
149.964
150.067
150.173
150.282
150.394
150.507
150.62
150.732
150.844
150.962
151.092
151.241
151.409
151.579
151.723
151.803
151.795
151.715
151.647
151.749
152.234
153.321
155.173
157.84
161.221
165.075
169.064
172.816
175.998
178.36
179.734
180.104
179.261
178.126
173.353
139.256
139.319
139.236
139.183
139.184
139.16
139.189
139.601
140.724
142.542
144.635
146.457
147.684
148.332
148.62
148.771
148.904
149.044
149.183
149.309
149.425
149.534
149.64
149.744
149.846
149.948
150.051
150.156
150.265
150.376
150.489
150.602
150.714
150.826
150.943
151.07
151.216
151.381
151.553
151.704
151.796
151.801
151.73
151.652
151.716
152.126
153.105
154.829
157.369
160.649
164.448
168.439
172.252
175.544
178.049
179.584
180.121
179.441
178.448
173.863
139.21
139.321
139.254
139.19
139.183
139.162
139.17
139.5
140.496
142.213
144.29
146.183
147.519
148.256
148.59
148.753
148.883
149.021
149.16
149.289
149.406
149.517
149.623
149.727
149.829
149.931
150.034
150.139
150.247
150.358
150.471
150.584
150.696
150.808
150.923
151.049
151.191
151.354
151.526
151.681
151.785
151.805
151.744
151.661
151.69
152.03
152.903
154.497
156.903
160.071
163.801
167.783
171.648
175.045
177.693
179.395
180.105
179.598
178.754
174.373
139.166
139.322
139.27
139.197
139.182
139.165
139.158
139.422
140.314
141.942
144.001
145.952
147.378
148.192
148.566
148.738
148.866
149.002
149.142
149.272
149.391
149.502
149.609
149.713
149.815
149.917
150.02
150.124
150.232
150.343
150.455
150.569
150.681
150.793
150.907
151.031
151.171
151.331
151.502
151.663
151.776
151.808
151.756
151.67
151.672
151.956
152.742
154.229
156.523
159.596
163.268
167.238
171.144
174.626
177.393
179.231
180.086
179.72
179.001
174.791
139.066
139.298
139.292
139.217
139.185
139.168
139.148
139.321
140.035
141.48
143.457
145.47
147.052
148.024
148.498
148.707
148.837
148.968
149.106
149.239
149.361
149.474
149.582
149.686
149.789
149.891
149.993
150.097
150.204
150.314
150.426
150.539
150.652
150.764
150.877
150.998
151.133
151.288
151.458
151.624
151.751
151.806
151.774
151.69
151.658
151.854
152.495
153.79
155.873
158.753
162.288
166.207
170.158
173.775
176.746
178.834
179.957
179.865
179.384
175.517
)
;

boundaryField
{
    bottomwall
    {
        type            opaque;
        refValue        nonuniform List<scalar> 
60
(
143.314
145.512
146.765
147.544
148.059
148.417
148.677
148.876
149.037
149.173
149.297
149.414
149.527
149.634
149.738
149.84
149.941
150.044
150.149
150.259
150.371
150.484
150.598
150.71
150.821
150.933
151.055
151.198
151.367
151.552
151.724
151.836
151.845
151.746
151.606
151.582
151.904
152.828
154.551
157.149
160.529
164.437
168.513
172.368
175.658
178.133
179.647
180.14
179.609
178.088
175.649
172.413
168.563
164.342
160.034
155.913
152.182
148.911
145.93
142.629
)
;
        refGradient     uniform 0;
        valueFraction   uniform 1;