/*--------------------------------*- C++ -*----------------------------------*\
| =========                 |                                                 |
| \\      /  F ield         | OpenFOAM: The Open Source CFD Toolbox           |
|  \\    /   O peration     | Version:  2406                                  |
|   \\  /    A nd           | Website:  www.openfoam.com                      |
|    \\/     M anipulation  |                                                 |
\*---------------------------------------------------------------------------*/
FoamFile
{
    version     2.0;
    format      ascii;
    arch        "LSB;label=32;scalar=64";
    class       volScalarField;
    location    "15000";
    object      ILambda_14_0;
}
// * * * * * * * * * * * * * * * * * * * * * * * * * * * * * * * * * * * * * //

dimensions      [1 0 -3 0 0 0 0];

internalField   nonuniform List<scalar> 
3600
(
139.739
139.759
139.769
139.782
139.793
139.805
139.815
139.825
139.834
139.842
139.849
139.855
139.859
139.861
139.862
139.861
139.858
139.853
139.846
139.838
139.826
139.813
139.798
139.78
139.76
139.738
139.714
139.688
139.66
139.63
139.599
139.565
139.53
139.494
139.456
139.417
139.376
139.335
139.292
139.248
139.203
139.158
139.111
139.064
139.017
138.968
138.92
138.872
138.823
138.775
138.728
138.682
138.638
138.596
138.558
138.523
138.493
138.469
138.451
138.442
139.624
139.64
139.65
139.662
139.675
139.689
139.703
139.718
139.734
139.749
139.765
139.781
139.797
139.812
139.828
139.842
139.856
139.869
139.88
139.89
139.899
139.906
139.912
139.915
139.916
139.916
139.912
139.907
139.899
139.889
139.876
139.861
139.844
139.824
139.803
139.779
139.753
139.725
139.695
139.663
139.63
139.595
139.558
139.52
139.48
139.439
139.396
139.352
139.305
139.257
139.206
139.153
139.098
139.041
138.98
138.917
138.852
138.783
138.713
138.64
139.589
139.595
139.6
139.606
139.613
139.62
139.629
139.638
139.648
139.659
139.67
139.683
139.696
139.709
139.723
139.737
139.752
139.767
139.781
139.795
139.809
139.823
139.835
139.847
139.858
139.867
139.875
139.881
139.886
139.888
139.889
139.887
139.883
139.877
139.868
139.857
139.844
139.828
139.81
139.79
139.768
139.744
139.718
139.69
139.661
139.63
139.599
139.566
139.532
139.498
139.463
139.427
139.391
139.354
139.316
139.278
139.239
139.198
139.156
139.113
139.574
139.575
139.576
139.578
139.581
139.584
139.588
139.592
139.597
139.603
139.61
139.618
139.627
139.636
139.647
139.658
139.67
139.682
139.696
139.71
139.724
139.739
139.754
139.77
139.785
139.8
139.815
139.829
139.843
139.855
139.867
139.877
139.886
139.893
139.899
139.902
139.903
139.902
139.899
139.893
139.884
139.873
139.86
139.844
139.825
139.804
139.78
139.754
139.726
139.697
139.665
139.632
139.598
139.562
139.526
139.489
139.451
139.413
139.374
139.335
139.573
139.572
139.572
139.572
139.572
139.572
139.572
139.573
139.574
139.576
139.578
139.58
139.584
139.588
139.593
139.598
139.605
139.612
139.621
139.63
139.64
139.651
139.663
139.675
139.689
139.703
139.717
139.732
139.748
139.764
139.779
139.795
139.81
139.825
139.839
139.853
139.865
139.877
139.886
139.895
139.901
139.905
139.908
139.908
139.905
139.901
139.893
139.883
139.87
139.855
139.837
139.816
139.793
139.768
139.74
139.711
139.679
139.646
139.612
139.576
139.573
139.574
139.574
139.574
139.574
139.573
139.573
139.572
139.572
139.572
139.571
139.571
139.571
139.572
139.573
139.574
139.576
139.578
139.581
139.585
139.59
139.595
139.601
139.609
139.617
139.626
139.636
139.646
139.658
139.671
139.684
139.698
139.713
139.728
139.744
139.76
139.776
139.792
139.807
139.823
139.838
139.852
139.865
139.877
139.887
139.896
139.903
139.908
139.912
139.912
139.911
139.906
139.899
139.89
139.878
139.862
139.845
139.824
139.801
139.775
139.563
139.567
139.569
139.57
139.572
139.573
139.573
139.574
139.574
139.574
139.574
139.573
139.573
139.572
139.572
139.571
139.571
139.57
139.57
139.57
139.571
139.572
139.574
139.576
139.579
139.582
139.586
139.591
139.597
139.604
139.612
139.621
139.631
139.641
139.653
139.665
139.679
139.693
139.708
139.723
139.739
139.755
139.772
139.788
139.805
139.821
139.836
139.851
139.865
139.877
139.889
139.899
139.907
139.913
139.917
139.918
139.918
139.914
139.908
139.9
139.542
139.549
139.552
139.555
139.559
139.562
139.564
139.567
139.569
139.57
139.572
139.573
139.574
139.574
139.574
139.574
139.574
139.574
139.573
139.572
139.571
139.571
139.57
139.57
139.569
139.569
139.57
139.57
139.572
139.573
139.576
139.579
139.583
139.588
139.593
139.6
139.607
139.616
139.625
139.636
139.647
139.66
139.673
139.687
139.702
139.718
139.734
139.75
139.767
139.784
139.801
139.818
139.834
139.849
139.864
139.877
139.889
139.9
139.909
139.916
139.511
139.52
139.524
139.529
139.534
139.539
139.543
139.547
139.551
139.555
139.558
139.561
139.564
139.567
139.569
139.57
139.572
139.573
139.574
139.574
139.575
139.575
139.574
139.574
139.573
139.572
139.571
139.571
139.57
139.569
139.568
139.568
139.568
139.569
139.57
139.571
139.573
139.576
139.58
139.584
139.589
139.596
139.603
139.611
139.62
139.631
139.642
139.654
139.668
139.682
139.697
139.713
139.729
139.746
139.763
139.78
139.797
139.814
139.831
139.847
139.477
139.486
139.491
139.496
139.502
139.507
139.513
139.518
139.523
139.528
139.533
139.538
139.542
139.547
139.551
139.554
139.558
139.561
139.564
139.566
139.569
139.571
139.572
139.573
139.574
139.575
139.575
139.575
139.575
139.574
139.573
139.572
139.571
139.57
139.569
139.569
139.568
139.567
139.567
139.567
139.568
139.569
139.571
139.573
139.576
139.58
139.585
139.591
139.598
139.606
139.615
139.625
139.637
139.649
139.662
139.676
139.691
139.707
139.724
139.741
139.444
139.452
139.456
139.462
139.467
139.473
139.478
139.484
139.489
139.495
139.5
139.506
139.511
139.517
139.522
139.527
139.532
139.537
139.541
139.546
139.55
139.554
139.557
139.561
139.564
139.566
139.569
139.571
139.572
139.574
139.574
139.575
139.575
139.575
139.575
139.574
139.574
139.573
139.572
139.57
139.569
139.568
139.567
139.566
139.566
139.566
139.566
139.567
139.568
139.57
139.573
139.577
139.582
139.587
139.594
139.601
139.61
139.62
139.631
139.643
139.415
139.422
139.426
139.43
139.435
139.44
139.445
139.45
139.455
139.46
139.466
139.471
139.477
139.482
139.488
139.493
139.499
139.504
139.51
139.515
139.521
139.526
139.531
139.536
139.54
139.545
139.549
139.553
139.557
139.56
139.563
139.566
139.569
139.571
139.572
139.574
139.575
139.575
139.576
139.576
139.575
139.575
139.574
139.573
139.572
139.571
139.569
139.568
139.567
139.566
139.565
139.564
139.564
139.565
139.566
139.568
139.57
139.573
139.578
139.583
139.392
139.397
139.4
139.404
139.408
139.412
139.416
139.42
139.424
139.429
139.433
139.438
139.443
139.448
139.453
139.459
139.464
139.469
139.475
139.48
139.486
139.492
139.497
139.503
139.508
139.514
139.519
139.525
139.53
139.535
139.539
139.544
139.548
139.552
139.556
139.56
139.563
139.566
139.569
139.571
139.573
139.574
139.575
139.576
139.576
139.576
139.576
139.575
139.575
139.573
139.572
139.571
139.569
139.568
139.566
139.565
139.564
139.563
139.563
139.563
139.375
139.379
139.381
139.384
139.386
139.389
139.392
139.396
139.399
139.403
139.406
139.41
139.414
139.418
139.423
139.427
139.432
139.437
139.441
139.447
139.452
139.457
139.462
139.468
139.473
139.479
139.484
139.49
139.496
139.501
139.507
139.512
139.518
139.523
139.528
139.534
139.538
139.543
139.548
139.552
139.556
139.559
139.563
139.566
139.568
139.571
139.573
139.574
139.576
139.576
139.577
139.577
139.577
139.576
139.575
139.574
139.573
139.571
139.57
139.568
139.362
139.365
139.367
139.369
139.371
139.373
139.375
139.377
139.38
139.383
139.385
139.388
139.391
139.394
139.398
139.401
139.405
139.409
139.413
139.417
139.421
139.426
139.43
139.435
139.44
139.445
139.45
139.455
139.461
139.466
139.472
139.477
139.483
139.488
139.494
139.5
139.505
139.511
139.516
139.522
139.527
139.532
139.537
139.542
139.547
139.551
139.555
139.559
139.562
139.566
139.568
139.571
139.573
139.575
139.576
139.577
139.577
139.577
139.577
139.577
139.352
139.354
139.356
139.357
139.359
139.361
139.362
139.364
139.366
139.368
139.37
139.372
139.374
139.376
139.379
139.382
139.384
139.387
139.39
139.393
139.397
139.4
139.404
139.407
139.411
139.415
139.42
139.424
139.429
139.433
139.438
139.443
139.448
139.454
139.459
139.464
139.47
139.476
139.481
139.487
139.493
139.498
139.504
139.51
139.515
139.521
139.526
139.531
139.536
139.541
139.546
139.55
139.554
139.558
139.562
139.565
139.568
139.571
139.573
139.575
139.341
139.344
139.346
139.347
139.349
139.35
139.352
139.353
139.355
139.357
139.358
139.36
139.362
139.363
139.365
139.367
139.369
139.371
139.373
139.376
139.378
139.38
139.383
139.386
139.389
139.392
139.395
139.399
139.402
139.406
139.41
139.414
139.418
139.423
139.427
139.432
139.437
139.442
139.447
139.452
139.457
139.463
139.468
139.474
139.479
139.485
139.491
139.497
139.502
139.508
139.514
139.519
139.525
139.53
139.535
139.54
139.545
139.549
139.554
139.558
139.329
139.333
139.334
139.336
139.338
139.34
139.342
139.343
139.345
139.347
139.348
139.35
139.351
139.353
139.354
139.356
139.358
139.359
139.361
139.363
139.364
139.366
139.368
139.37
139.372
139.375
139.377
139.379
139.382
139.385
139.388
139.391
139.394
139.397
139.401
139.405
139.409
139.413
139.417
139.421
139.426
139.43
139.435
139.44
139.445
139.45
139.456
139.461
139.467
139.472
139.478
139.484
139.489
139.495
139.501
139.506
139.512
139.518
139.523
139.529
139.315
139.319
139.321
139.323
139.325
139.328
139.33
139.332
139.334
139.336
139.338
139.339
139.341
139.343
139.345
139.346
139.348
139.349
139.351
139.352
139.354
139.355
139.357
139.358
139.36
139.362
139.364
139.365
139.367
139.369
139.371
139.374
139.376
139.378
139.381
139.384
139.387
139.39
139.393
139.396
139.4
139.403
139.407
139.411
139.415
139.42
139.424
139.429
139.434
139.438
139.443
139.449
139.454
139.459
139.465
139.47
139.476
139.482
139.488
139.493
139.297
139.302
139.304
139.307
139.31
139.313
139.315
139.318
139.32
139.323
139.325
139.327
139.329
139.331
139.333
139.335
139.337
139.339
139.341
139.342
139.344
139.346
139.347
139.349
139.35
139.352
139.353
139.355
139.356
139.358
139.359
139.361
139.363
139.365
139.366
139.368
139.371
139.373
139.375
139.377
139.38
139.383
139.386
139.389
139.392
139.395
139.398
139.402
139.406
139.41
139.414
139.418
139.423
139.427
139.432
139.437
139.442
139.447
139.452
139.458
139.279
139.283
139.286
139.289
139.292
139.295
139.298
139.301
139.304
139.307
139.309
139.312
139.315
139.317
139.32
139.322
139.324
139.327
139.329
139.331
139.333
139.335
139.337
139.338
139.34
139.342
139.343
139.345
139.347
139.348
139.35
139.351
139.353
139.354
139.356
139.357
139.359
139.36
139.362
139.364
139.366
139.368
139.37
139.372
139.374
139.376
139.379
139.382
139.384
139.387
139.39
139.394
139.397
139.401
139.404
139.408
139.412
139.417
139.421
139.426
139.26
139.265
139.267
139.27
139.273
139.276
139.279
139.282
139.285
139.288
139.291
139.294
139.297
139.3
139.303
139.306
139.309
139.311
139.314
139.317
139.319
139.321
139.324
139.326
139.328
139.33
139.332
139.334
139.336
139.338
139.34
139.341
139.343
139.344
139.346
139.348
139.349
139.35
139.352
139.353
139.355
139.356
139.358
139.36
139.361
139.363
139.365
139.367
139.369
139.371
139.373
139.375
139.378
139.381
139.383
139.386
139.389
139.393
139.396
139.399
139.245
139.248
139.25
139.253
139.256
139.258
139.261
139.264
139.267
139.269
139.272
139.275
139.278
139.281
139.284
139.287
139.29
139.293
139.296
139.299
139.302
139.305
139.308
139.311
139.313
139.316
139.318
139.321
139.323
139.326
139.328
139.33
139.332
139.334
139.336
139.337
139.339
139.341
139.342
139.344
139.345
139.347
139.348
139.35
139.351
139.353
139.354
139.356
139.357
139.359
139.361
139.362
139.364
139.366
139.368
139.37
139.372
139.375
139.377
139.38
139.232
139.235
139.237
139.239
139.241
139.243
139.245
139.247
139.25
139.252
139.255
139.257
139.26
139.263
139.266
139.269
139.272
139.275
139.278
139.281
139.284
139.287
139.29
139.293
139.296
139.299
139.302
139.304
139.307
139.31
139.313
139.315
139.318
139.32
139.323
139.325
139.327
139.329
139.331
139.333
139.335
139.337
139.339
139.34
139.342
139.343
139.345
139.346
139.348
139.349
139.351
139.352
139.354
139.355
139.357
139.358
139.36
139.362
139.363
139.365
139.223
139.225
139.226
139.228
139.229
139.231
139.232
139.234
139.236
139.238
139.24
139.242
139.244
139.246
139.249
139.251
139.254
139.257
139.259
139.262
139.265
139.268
139.271
139.274
139.277
139.28
139.283
139.286
139.289
139.292
139.295
139.298
139.301
139.304
139.307
139.309
139.312
139.315
139.317
139.32
139.322
139.324
139.327
139.329
139.331
139.333
139.335
139.336
139.338
139.34
139.341
139.343
139.344
139.346
139.347
139.349
139.35
139.352
139.353
139.355
139.216
139.218
139.219
139.22
139.221
139.222
139.223
139.225
139.226
139.227
139.229
139.23
139.232
139.233
139.235
139.237
139.239
139.241
139.243
139.246
139.248
139.25
139.253
139.256
139.258
139.261
139.264
139.267
139.27
139.273
139.276
139.279
139.282
139.285
139.288
139.291
139.294
139.297
139.3
139.303
139.306
139.309
139.311
139.314
139.317
139.319
139.322
139.324
139.326
139.328
139.33
139.332
139.334
139.336
139.338
139.339
139.341
139.342
139.344
139.345
139.21
139.211
139.212
139.213
139.214
139.215
139.216
139.217
139.218
139.219
139.22
139.222
139.223
139.224
139.225
139.227
139.228
139.23
139.231
139.233
139.235
139.236
139.238
139.24
139.243
139.245
139.247
139.25
139.252
139.255
139.257
139.26
139.263
139.266
139.269
139.272
139.275
139.278
139.281
139.284
139.287
139.29
139.293
139.297
139.299
139.302
139.305
139.308
139.311
139.313
139.316
139.319
139.321
139.323
139.326
139.328
139.33
139.332
139.334
139.335
139.202
139.204
139.205
139.206
139.208
139.209
139.21
139.211
139.212
139.213
139.214
139.215
139.216
139.217
139.218
139.219
139.22
139.221
139.222
139.223
139.225
139.226
139.227
139.229
139.23
139.232
139.234
139.236
139.238
139.24
139.242
139.244
139.246
139.249
139.251
139.254
139.257
139.259
139.262
139.265
139.268
139.271
139.274
139.277
139.28
139.283
139.287
139.29
139.293
139.296
139.299
139.302
139.305
139.307
139.31
139.313
139.315
139.318
139.32
139.323
139.192
139.195
139.196
139.198
139.199
139.201
139.202
139.204
139.205
139.206
139.207
139.208
139.21
139.211
139.212
139.213
139.214
139.215
139.216
139.216
139.217
139.218
139.22
139.221
139.222
139.223
139.224
139.225
139.227
139.228
139.23
139.231
139.233
139.235
139.237
139.239
139.241
139.243
139.245
139.248
139.25
139.253
139.256
139.259
139.261
139.264
139.267
139.27
139.273
139.276
139.28
139.283
139.286
139.289
139.292
139.295
139.298
139.301
139.304
139.307
139.179
139.183
139.184
139.187
139.188
139.19
139.192
139.194
139.196
139.197
139.199
139.2
139.202
139.203
139.204
139.206
139.207
139.208
139.209
139.21
139.211
139.212
139.213
139.214
139.215
139.216
139.217
139.218
139.219
139.22
139.221
139.222
139.223
139.225
139.226
139.228
139.229
139.231
139.232
139.234
139.236
139.238
139.24
139.242
139.245
139.247
139.25
139.252
139.255
139.258
139.26
139.263
139.266
139.269
139.272
139.276
139.279
139.282
139.285
139.288
139.166
139.169
139.171
139.173
139.176
139.178
139.18
139.182
139.184
139.186
139.188
139.19
139.192
139.194
139.195
139.197
139.198
139.2
139.201
139.203
139.204
139.205
139.207
139.208
139.209
139.21
139.211
139.212
139.213
139.214
139.215
139.216
139.217
139.218
139.219
139.22
139.221
139.222
139.223
139.224
139.225
139.227
139.228
139.23
139.232
139.233
139.235
139.237
139.239
139.241
139.244
139.246
139.249
139.251
139.254
139.257
139.26
139.263
139.266
139.269
139.152
139.155
139.157
139.16
139.162
139.164
139.166
139.168
139.171
139.173
139.175
139.177
139.179
139.181
139.184
139.186
139.188
139.189
139.191
139.193
139.195
139.196
139.198
139.2
139.201
139.202
139.204
139.205
139.206
139.207
139.208
139.21
139.211
139.212
139.212
139.213
139.214
139.215
139.216
139.217
139.218
139.219
139.22
139.221
139.222
139.224
139.225
139.226
139.228
139.229
139.231
139.233
139.234
139.236
139.238
139.241
139.243
139.245
139.248
139.25
139.14
139.143
139.144
139.146
139.148
139.15
139.152
139.155
139.157
139.159
139.161
139.163
139.166
139.168
139.17
139.172
139.174
139.177
139.179
139.181
139.183
139.185
139.187
139.189
139.191
139.193
139.194
139.196
139.198
139.199
139.201
139.202
139.203
139.205
139.206
139.207
139.208
139.209
139.21
139.211
139.212
139.213
139.214
139.215
139.216
139.217
139.218
139.219
139.22
139.221
139.222
139.223
139.224
139.226
139.227
139.229
139.23
139.232
139.234
139.236
139.129
139.131
139.133
139.135
139.136
139.138
139.14
139.142
139.144
139.146
139.148
139.15
139.152
139.154
139.156
139.158
139.16
139.163
139.165
139.167
139.169
139.172
139.174
139.176
139.178
139.18
139.183
139.185
139.187
139.189
139.19
139.192
139.194
139.196
139.197
139.199
139.2
139.202
139.203
139.204
139.206
139.207
139.208
139.209
139.21
139.211
139.212
139.213
139.214
139.214
139.215
139.216
139.217
139.218
139.219
139.22
139.221
139.222
139.224
139.225
139.119
139.122
139.123
139.124
139.126
139.127
139.129
139.131
139.132
139.134
139.136
139.137
139.139
139.141
139.143
139.145
139.147
139.149
139.151
139.153
139.155
139.158
139.16
139.162
139.164
139.167
139.169
139.171
139.173
139.176
139.178
139.18
139.182
139.184
139.186
139.188
139.19
139.192
139.194
139.195
139.197
139.199
139.2
139.201
139.203
139.204
139.205
139.206
139.208
139.209
139.21
139.211
139.211
139.212
139.213
139.214
139.215
139.216
139.217
139.218
139.111
139.113
139.114
139.116
139.117
139.118
139.12
139.121
139.123
139.124
139.125
139.127
139.128
139.13
139.132
139.133
139.135
139.137
139.139
139.14
139.142
139.144
139.146
139.148
139.15
139.153
139.155
139.157
139.159
139.161
139.164
139.166
139.168
139.17
139.173
139.175
139.177
139.179
139.182
139.184
139.186
139.188
139.19
139.191
139.193
139.195
139.197
139.198
139.2
139.201
139.202
139.204
139.205
139.206
139.207
139.208
139.209
139.21
139.211
139.212
139.104
139.106
139.107
139.108
139.109
139.11
139.111
139.113
139.114
139.115
139.117
139.118
139.119
139.121
139.122
139.124
139.125
139.126
139.128
139.13
139.131
139.133
139.134
139.136
139.138
139.14
139.142
139.144
139.146
139.148
139.15
139.152
139.154
139.156
139.158
139.161
139.163
139.165
139.168
139.17
139.172
139.174
139.177
139.179
139.181
139.183
139.185
139.187
139.189
139.191
139.193
139.195
139.196
139.198
139.199
139.201
139.202
139.203
139.205
139.206
139.101
139.102
139.102
139.103
139.103
139.104
139.105
139.106
139.107
139.108
139.109
139.11
139.111
139.113
139.114
139.115
139.116
139.118
139.119
139.12
139.122
139.123
139.125
139.126
139.127
139.129
139.131
139.132
139.134
139.135
139.137
139.139
139.141
139.143
139.145
139.147
139.149
139.151
139.153
139.156
139.158
139.16
139.162
139.165
139.167
139.169
139.172
139.174
139.176
139.178
139.181
139.183
139.185
139.187
139.189
139.191
139.192
139.194
139.196
139.197
139.103
139.102
139.102
139.101
139.101
139.101
139.101
139.102
139.102
139.102
139.103
139.104
139.105
139.106
139.107
139.108
139.109
139.11
139.111
139.112
139.114
139.115
139.116
139.117
139.119
139.12
139.121
139.123
139.124
139.125
139.127
139.128
139.13
139.131
139.133
139.135
139.137
139.138
139.14
139.142
139.144
139.146
139.148
139.15
139.153
139.155
139.157
139.159
139.162
139.164
139.166
139.169
139.171
139.173
139.176
139.178
139.18
139.182
139.184
139.186
139.112
139.109
139.107
139.106
139.105
139.104
139.103
139.102
139.102
139.101
139.101
139.101
139.101
139.101
139.102
139.102
139.103
139.104
139.105
139.106
139.107
139.108
139.109
139.11
139.111
139.112
139.114
139.115
139.116
139.117
139.118
139.12
139.121
139.122
139.124
139.125
139.126
139.128
139.129
139.131
139.132
139.134
139.136
139.138
139.14
139.141
139.143
139.145
139.148
139.15
139.152
139.154
139.156
139.159
139.161
139.163
139.166
139.168
139.17
139.173
139.13
139.124
139.121
139.118
139.116
139.114
139.112
139.11
139.108
139.107
139.105
139.104
139.103
139.102
139.102
139.101
139.101
139.101
139.101
139.101
139.102
139.102
139.103
139.104
139.105
139.106
139.107
139.108
139.109
139.11
139.111
139.112
139.113
139.115
139.116
139.117
139.118
139.119
139.121
139.122
139.123
139.124
139.126
139.127
139.129
139.13
139.132
139.133
139.135
139.137
139.139
139.141
139.143
139.145
139.147
139.149
139.151
139.154
139.156
139.158
139.16
139.15
139.145
139.14
139.136
139.132
139.128
139.125
139.122
139.119
139.117
139.114
139.112
139.11
139.109
139.107
139.106
139.104
139.103
139.103
139.102
139.101
139.101
139.101
139.101
139.101
139.102
139.102
139.103
139.104
139.105
139.106
139.107
139.108
139.109
139.11
139.111
139.112
139.113
139.114
139.116
139.117
139.118
139.119
139.12
139.121
139.123
139.124
139.125
139.127
139.128
139.13
139.131
139.133
139.135
139.136
139.138
139.14
139.142
139.144
139.199
139.187
139.181
139.174
139.167
139.161
139.155
139.149
139.145
139.14
139.136
139.132
139.129
139.126
139.123
139.12
139.118
139.115
139.113
139.111
139.109
139.107
139.106
139.105
139.103
139.102
139.102
139.101
139.101
139.101
139.101
139.101
139.102
139.102
139.103
139.104
139.105
139.106
139.107
139.108
139.109
139.11
139.111
139.112
139.113
139.114
139.115
139.117
139.118
139.119
139.12
139.121
139.122
139.123
139.125
139.126
139.128
139.129
139.131
139.132
139.224
139.221
139.217
139.211
139.205
139.198
139.191
139.184
139.177
139.171
139.164
139.159
139.154
139.149
139.144
139.14
139.137
139.133
139.13
139.127
139.124
139.121
139.118
139.116
139.114
139.111
139.109
139.108
139.106
139.105
139.103
139.102
139.102
139.101
139.101
139.101
139.101
139.101
139.102
139.102
139.103
139.104
139.105
139.106
139.107
139.108
139.109
139.11
139.111
139.112
139.113
139.114
139.115
139.116
139.117
139.118
139.119
139.121
139.122
139.123
139.182
139.207
139.213
139.22
139.222
139.223
139.221
139.217
139.212
139.206
139.2
139.193
139.187
139.18
139.174
139.168
139.163
139.158
139.153
139.149
139.145
139.141
139.137
139.134
139.131
139.128
139.125
139.122
139.119
139.117
139.114
139.112
139.11
139.108
139.106
139.104
139.103
139.102
139.102
139.101
139.101
139.101
139.101
139.101
139.102
139.103
139.103
139.104
139.105
139.106
139.107
139.108
139.109
139.11
139.111
139.112
139.113
139.114
139.115
139.116
139.021
139.084
139.11
139.14
139.163
139.183
139.197
139.208
139.216
139.22
139.221
139.22
139.217
139.212
139.207
139.201
139.195
139.189
139.182
139.177
139.171
139.166
139.161
139.157
139.153
139.149
139.145
139.142
139.139
139.135
139.132
139.129
139.126
139.123
139.12
139.117
139.114
139.112
139.11
139.108
139.106
139.104
139.103
139.102
139.101
139.101
139.101
139.101
139.101
139.101
139.102
139.103
139.103
139.104
139.105
139.106
139.107
139.108
139.109
139.11
138.768
138.842
138.885
138.933
138.979
139.021
139.061
139.096
139.126
139.152
139.173
139.19
139.202
139.211
139.216
139.218
139.218
139.215
139.212
139.207
139.201
139.196
139.19
139.184
139.179
139.174
139.169
139.165
139.161
139.157
139.154
139.15
139.147
139.143
139.14
139.137
139.133
139.13
139.126
139.123
139.12
139.117
139.114
139.112
139.109
139.107
139.106
139.104
139.103
139.102
139.101
139.101
139.101
139.101
139.101
139.102
139.102
139.103
139.104
139.104
138.62
138.628
138.654
138.684
138.723
138.767
138.814
138.862
138.911
138.958
139.002
139.043
139.081
139.113
139.141
139.164
139.183
139.196
139.206
139.212
139.215
139.215
139.213
139.21
139.206
139.201
139.195
139.19
139.185
139.18
139.176
139.172
139.168
139.165
139.161
139.158
139.155
139.151
139.148
139.145
139.141
139.138
139.134
139.13
139.127
139.123
139.12
139.117
139.114
139.112
139.109
139.107
139.105
139.104
139.103
139.102
139.101
139.101
139.101
139.101
138.919
138.761
138.715
138.664
138.638
138.626
138.629
138.645
138.671
138.706
138.747
138.792
138.841
138.89
138.938
138.984
139.027
139.067
139.101
139.131
139.156
139.175
139.19
139.201
139.207
139.211
139.211
139.21
139.207
139.203
139.199
139.194
139.19
139.185
139.181
139.178
139.174
139.171
139.168
139.165
139.162
139.159
139.156
139.153
139.15
139.146
139.142
139.138
139.135
139.131
139.127
139.124
139.12
139.117
139.114
139.111
139.109
139.107
139.105
139.104
139.948
139.58
139.422
139.239
139.09
138.961
138.856
138.772
138.71
138.667
138.643
138.636
138.643
138.662
138.692
138.73
138.774
138.822
138.871
138.92
138.968
139.013
139.054
139.091
139.122
139.148
139.169
139.184
139.195
139.202
139.206
139.207
139.206
139.203
139.2
139.196
139.192
139.188
139.185
139.182
139.179
139.177
139.174
139.172
139.169
139.167
139.164
139.161
139.158
139.154
139.151
139.147
139.143
139.139
139.135
139.131
139.127
139.124
139.12
139.117
141.667
141.16
140.904
140.602
140.328
140.067
139.826
139.605
139.407
139.231
139.08
138.952
138.848
138.767
138.708
138.669
138.649
138.647
138.659
138.683
138.717
138.759
138.806
138.855
138.906
138.955
139.002
139.045
139.083
139.115
139.142
139.163
139.179
139.19
139.197
139.201
139.201
139.2
139.198
139.195
139.192
139.189
139.186
139.184
139.182
139.18
139.179
139.177
139.175
139.173
139.171
139.169
139.166
139.162
139.159
139.155
139.152
139.148
139.143
139.139
143.617
143.136
142.861
142.529
142.204
141.875
141.549
141.229
140.918
140.619
140.334
140.068
139.821
139.596
139.395
139.218
139.066
138.939
138.837
138.759
138.705
138.671
138.657
138.661
138.679
138.709
138.748
138.794
138.844
138.895
138.946
138.995
139.039
139.078
139.111
139.138
139.16
139.175
139.185
139.192
139.194
139.195
139.193
139.191
139.189
139.187
139.185
139.184
139.182
139.182
139.181
139.18
139.18
139.178
139.177
139.175
139.173
139.17
139.167
139.164
145.16
144.859
144.66
144.412
144.15
143.868
143.569
143.256
142.932
142.6
142.263
141.924
141.589
141.258
140.938
140.63
140.338
140.064
139.811
139.582
139.377
139.199
139.047
138.921
138.823
138.75
138.701
138.674
138.668
138.679
138.704
138.742
138.787
138.837
138.89
138.943
138.993
139.038
139.078
139.111
139.138
139.157
139.171
139.18
139.185
139.186
139.186
139.185
139.183
139.182
139.181
139.181
139.181
139.181
139.182
139.182
139.182
139.182
139.181
139.18
145.915
145.823
145.745
145.641
145.516
145.367
145.194
144.996
144.774
144.528
144.261
143.973
143.667
143.346
143.012
142.67
142.323
141.974
141.627
141.287
140.955
140.638
140.336
140.054
139.795
139.56
139.352
139.171
139.02
138.897
138.803
138.737
138.697
138.68
138.684
138.705
138.741
138.786
138.838
138.893
138.947
138.999
139.045
139.084
139.115
139.139
139.156
139.167
139.173
139.176
139.176
139.176
139.175
139.175
139.176
139.177
139.178
139.179
139.181
139.182
146.022
146.033
146.037
146.036
146.026
146.005
145.97
145.917
145.845
145.75
145.631
145.487
145.316
145.119
144.895
144.647
144.375
144.081
143.767
143.438
143.095
142.743
142.386
142.025
141.667
141.315
140.971
140.641
140.328
140.036
139.767
139.526
139.313
139.131
138.981
138.863
138.778
138.722
138.695
138.693
138.712
138.747
138.795
138.85
138.907
138.964
139.016
139.06
139.096
139.124
139.143
139.154
139.16
139.163
139.164
139.165
139.165
139.167
139.169
139.171
145.966
145.948
145.951
145.958
145.972
145.991
146.013
146.036
146.057
146.073
146.08
146.074
146.053
146.012
145.95
145.864
145.751
145.61
145.441
145.244
145.019
144.768
144.491
144.192
143.873
143.536
143.186
142.825
142.456
142.084
141.712
141.344
140.984
140.637
140.308
140.001
139.72
139.469
139.252
139.07
138.926
138.819
138.749
138.712
138.707
138.726
138.766
138.819
138.879
138.94
138.997
139.047
139.085
139.113
139.131
139.141
139.146
139.149
139.151
139.153
146.03
145.985
145.956
145.926
145.9
145.881
145.871
145.87
145.879
145.898
145.926
145.962
146.002
146.043
146.083
146.117
146.141
146.151
146.143
146.114
146.061
145.981
145.872
145.733
145.565
145.367
145.141
144.889
144.611
144.311
143.99
143.65
143.294
142.924
142.542
142.154
141.762
141.371
140.987
140.616
140.263
139.934
139.637
139.376
139.156
138.981
138.853
138.77
138.73
138.728
138.758
138.809
138.873
138.94
139.002
139.052
139.089
139.111
139.122
139.128
145.87
145.982
145.987
146
145.988
145.966
145.934
145.897
145.859
145.824
145.797
145.779
145.773
145.781
145.803
145.837
145.883
145.937
145.998
146.061
146.122
146.175
146.216
146.24
146.243
146.22
146.169
146.089
145.979
145.84
145.673
145.479
145.259
145.014
144.746
144.453
144.137
143.798
143.438
143.057
142.658
142.244
141.819
141.391
140.965
140.552
140.16
139.8
139.483
139.218
139.011
138.868
138.786
138.763
138.787
138.844
138.918
138.992
139.05
139.084
144.645
145.169
145.338
145.545
145.693
145.81
145.893
145.945
145.968
145.966
145.944
145.907
145.861
145.813
145.767
145.727
145.697
145.68
145.68
145.697
145.732
145.784
145.851
145.93
146.016
146.102
146.182
146.25
146.298
146.323
146.322
146.293
146.236
146.154
146.048
145.918
145.766
145.591
145.394
145.174
144.929
144.657
144.357
144.024
143.658
143.257
142.823
142.357
141.868
141.365
140.863
140.378
139.932
139.546
139.238
139.021
138.9
138.87
138.911
138.993
141.673
142.676
143.192
143.721
144.168
144.56
144.899
145.192
145.443
145.651
145.816
145.936
146.012
146.05
146.054
146.031
145.985
145.924
145.852
145.776
145.702
145.637
145.586
145.554
145.547
145.566
145.615
145.692
145.792
145.907
146.028
146.143
146.243
146.32
146.369
146.39
146.382
146.348
146.291
146.212
146.114
146
145.873
145.733
145.581
145.413
145.226
145.011
144.759
144.46
144.102
143.674
143.172
142.597
141.96
141.287
140.612
139.981
139.444
139.051
)
;

boundaryField
{
    bottomwall
    {
        type            opaque;
        refValue        uniform 0;
        refGradient     uniform 0;
        valueFraction   uniform 0;
        source          uniform 0;
        value           nonuniform List<scalar> 
60
(
139.739
139.759
139.769
139.782
139.793
139.805
139.815
139.825
139.834
139.842
139.849
139.855
139.859
139.861
139.862
139.861
139.858
139.853
139.846
139.838
139.826
139.813
139.798
139.78
139.76
139.738
139.714
139.688
139.66
139.63
139.599
139.565
139.53
139.494
139.456
139.417
139.376
139.335
139.292
139.248
139.203
139.158
139.111
139.064
139.017
138.968
138.92
138.872
138.823
138.775
138.728
138.682