/*--------------------------------*- C++ -*----------------------------------*\
| =========                 |                                                 |
| \\      /  F ield         | OpenFOAM: The Open Source CFD Toolbox           |
|  \\    /   O peration     | Version:  2406                                  |
|   \\  /    A nd           | Website:  www.openfoam.com                      |
|    \\/     M anipulation  |                                                 |
\*---------------------------------------------------------------------------*/
FoamFile
{
    version     2.0;
    format      ascii;
    arch        "LSB;label=32;scalar=64";
    class       volScalarField;
    location    "15000";
    object      p_rgh;
}
// * * * * * * * * * * * * * * * * * * * * * * * * * * * * * * * * * * * * * //

dimensions      [0 2 -2 0 0 0 0];

internalField   nonuniform List<scalar> 
3600
(
0.0813424
0.0807333
0.0799834
0.0792624
0.0785595
0.0778663
0.0771629
0.0764299
0.0756528
0.0748237
0.0739415
0.0730111
0.0720423
0.071048
0.070043
0.0690427
0.0680616
0.0671128
0.0662071
0.0653529
0.0645561
0.06382
0.063145
0.0625292
0.061968
0.0614542
0.0609786
0.0605309
0.0601005
0.0596795
0.0592636
0.0588539
0.0584553
0.058074
0.0577138
0.057374
0.0570522
0.0567506
0.0564833
0.0562794
0.0561821
0.0562407
0.0565014
0.056998
0.0577464
0.0587432
0.0599684
0.0613892
0.0629656
0.0646535
0.0664078
0.0681845
0.0699418
0.071642
0.073253
0.07475
0.0761122
0.0773158
0.0783578
0.0790136
0.081918
0.0811112
0.0802591
0.0795016
0.0787822
0.0780762
0.0773615
0.0766195
0.0758381
0.0750108
0.0741372
0.0732221
0.0722745
0.0713064
0.0703312
0.0693627
0.0684141
0.0674972
0.0666217
0.0657951
0.0650224
0.0643061
0.0636466
0.0630417
0.0624869
0.0619757
0.0615001
0.0610507
0.0606188
0.0601976
0.0597836
0.0593781
0.0589856
0.0586121
0.0582614
0.057934
0.0576292
0.0573516
0.0571171
0.0569564
0.0569119
0.0570301
0.057352
0.057905
0.0586985
0.0597239
0.0609573
0.0623645
0.0639054
0.0655366
0.0672156
0.0689016
0.070558
0.0721529
0.0736615
0.075068
0.0763648
0.0775546
0.078691
0.0795807
0.0828001
0.0819435
0.0810631
0.0802926
0.0795679
0.0788592
0.0781405
0.0773919
0.0766009
0.075762
0.0748755
0.0739473
0.0729872
0.0720076
0.0710225
0.0700458
0.0690908
0.0681691
0.0672902
0.0664612
0.0656865
0.0649683
0.0643064
0.0636981
0.0631384
0.0626203
0.0621347
0.0616714
0.0612203
0.0607733
0.0603264
0.0598815
0.0594459
0.0590305
0.0586451
0.0582964
0.0579899
0.0577371
0.0575601
0.0574944
0.0575829
0.0578666
0.0583751
0.0591202
0.0600948
0.0612756
0.0626286
0.0641133
0.0656866
0.0673062
0.068933
0.0705325
0.0720762
0.0735427
0.074919
0.0762023
0.0773999
0.0785295
0.0796613
0.0806312
0.0836584
0.0828124
0.0819698
0.0812335
0.0805383
0.0798513
0.0791447
0.0783985
0.0776017
0.0767505
0.0758477
0.0749011
0.0739222
0.072925
0.071924
0.0709338
0.0699677
0.0690371
0.0681514
0.067317
0.0665379
0.0658156
0.0651491
0.0645351
0.0639675
0.063438
0.0629357
0.0624482
0.0619625
0.0614682
0.0609604
0.0604428
0.0599287
0.0594391
0.0589959
0.0586192
0.0583253
0.0581338
0.0580719
0.0581748
0.058478
0.0590075
0.0597724
0.0607627
0.0619519
0.063303
0.0647741
0.0663221
0.0679051
0.069486
0.0710322
0.0725171
0.0739208
0.0752315
0.0764466
0.0775742
0.078634
0.0796554
0.0807152
0.0817055
0.0844404
0.083638
0.0828619
0.0821837
0.0815373
0.0808871
0.0802034
0.0794669
0.0786684
0.0778067
0.0768875
0.0759215
0.0749226
0.0739063
0.0728886
0.0718845
0.0709074
0.0699684
0.0690765
0.0682376
0.0674548
0.0667288
0.0660578
0.0654372
0.0648594
0.064314
0.0637875
0.0632637
0.0627257
0.0621595
0.0615591
0.0609316
0.0603007
0.0597041
0.0591836
0.0587799
0.0585243
0.0584439
0.0585649
0.0589121
0.0595013
0.0603329
0.0613889
0.0626357
0.0640308
0.0655289
0.0670864
0.0686633
0.0702249
0.0717416
0.0731888
0.0745477
0.0758058
0.0769588
0.0780114
0.0789801
0.0798937
0.0807907
0.0817492
0.0827131
0.085113
0.0843633
0.0836482
0.0830213
0.0824167
0.0817967
0.0811305
0.0803996
0.0795965
0.0787233
0.0777887
0.0768064
0.0757927
0.0747649
0.0737398
0.0727326
0.0717564
0.0708216
0.069936
0.0691042
0.0683284
0.0676079
0.0669394
0.0663167
0.0657303
0.065167
0.0646098
0.0640379
0.0634295
0.0627664
0.0620417
0.0612687
0.0604858
0.0597551
0.059147
0.0587298
0.0585512
0.0586409
0.0590131
0.059668
0.0605887
0.0617415
0.0630796
0.0645504
0.0661026
0.0676917
0.0692804
0.0708386
0.0723421
0.073771
0.0751089
0.0763436
0.0774681
0.0784828
0.0793972
0.0802324
0.0810231
0.0818131
0.0826779
0.0835907
0.0856767
0.0849692
0.0842883
0.0836844
0.0830933
0.0824776
0.0818069
0.081064
0.0802439
0.0793516
0.078399
0.0774025
0.0763804
0.0753514
0.0743324
0.0733385
0.0723814
0.0714702
0.0706107
0.0698055
0.0690549
0.068356
0.0677035
0.0670888
0.0664999
0.0659201
0.0653282
0.0646981
0.0640027
0.0632195
0.0623419
0.0613922
0.0604294
0.0595472
0.0588525
0.0584459
0.0583894
0.0587063
0.0593847
0.0603855
0.0616494
0.0631055
0.0646823
0.0663164
0.0679584
0.0695724
0.0711355
0.0726314
0.0740486
0.0753773
0.0766087
0.0777357
0.0787547
0.0796681
0.0804871
0.0812347
0.0819468
0.0826681
0.0834681
0.0843281
0.0861477
0.0854572
0.0847727
0.084152
0.0835342
0.0828851
0.0821766
0.0813944
0.0805364
0.0796107
0.0786321
0.0776195
0.0765929
0.0755713
0.0745716
0.0736075
0.0726892
0.0718232
0.0710124
0.0702569
0.0695537
0.0688971
0.0682787
0.0676867
0.0671054
0.0665142
0.0658866
0.0651913
0.0643951
0.0634722
0.0624184
0.0612681
0.0601067
0.0590662
0.0582965
0.0579308
0.0580407
0.0586307
0.059649
0.0610059
0.0625942
0.0643087
0.0660611
0.0677876
0.0694497
0.0710285
0.0725188
0.073921
0.0752366
0.0764655
0.0776052
0.078652
0.0796035
0.0804621
0.0812381
0.0819528
0.0826401
0.0833405
0.0841159
0.0849406
0.0865497
0.0858419
0.0851125
0.0844323
0.0837449
0.0830214
0.0822384
0.0813855
0.0804644
0.0794866
0.0784698
0.0774349
0.076403
0.0753934
0.0744219
0.0735007
0.0726372
0.071835
0.0710937
0.0704097
0.0697759
0.069183
0.0686182
0.0680656
0.0675049
0.0669102
0.0662496
0.0654853
0.064579
0.0635024
0.0622557
0.0608901
0.0595219
0.0583268
0.0575013
0.0572086
0.0575215
0.0584141
0.0597826
0.06148
0.0633519
0.0652655
0.0671252
0.0688766
0.0704996
0.0719967
0.0733829
0.0746751
0.0758874
0.077028
0.078099
0.0790986
0.0800242
0.0808762
0.0816616
0.0823978
0.0831132
0.0838412
0.0846356
0.085455
0.0869071
0.0861443
0.0853301
0.0845506
0.083754
0.0829184
0.0820262
0.0810724
0.0800632
0.0790137
0.0779444
0.0768781
0.0758365
0.0748387
0.0738993
0.0730279
0.0722296
0.0715042
0.0708476
0.0702519
0.0697056
0.0691947
0.0687014
0.0682044
0.0676777
0.0670894
0.0664007
0.0655675
0.0645465
0.0633083
0.0618604
0.060274
0.0587012
0.0573641
0.0565059
0.0563149
0.0568558
0.0580617
0.0597694
0.0617731
0.063876
0.0659263
0.0678309
0.0695521
0.0710926
0.0724788
0.0737455
0.0749253
0.0760433
0.0771142
0.0781436
0.0791302
0.0800696
0.0809587
0.0818003
0.0826056
0.0833959
0.0841955
0.0850505
0.0859009
0.0872423
0.0863873
0.0854526
0.0845393
0.0835999
0.0826204
0.08159
0.0805096
0.0793904
0.0782514
0.0771161
0.0760086
0.074951
0.0739617
0.0730536
0.0722342
0.0715051
0.0708629
0.0702994
0.0698024
0.0693555
0.0689397
0.0685314
0.0681033
0.0676226
0.0670502
0.06634
0.0654411
0.0643054
0.0629041
0.0612545
0.0594513
0.0576847
0.0562245
0.0553575
0.0552902
0.0560703
0.0575828
0.0596022
0.0618669
0.0641452
0.0662753
0.0681741
0.0698254
0.071257
0.0725185
0.0736637
0.0747388
0.0757781
0.0768015
0.0778166
0.0788214
0.079809
0.0807723
0.0817082
0.0826213
0.0835247
0.0844332
0.0853861
0.0863046
0.0875736
0.0865925
0.0855064
0.0844305
0.0833213
0.0821727
0.0809812
0.0797539
0.0785077
0.0772655
0.0760531
0.074896
0.0738163
0.072831
0.0719514
0.071182
0.0705217
0.0699635
0.0694953
0.0691006
0.0687586
0.0684448
0.0681297
0.0677792
0.0673534
0.0668051
0.0660802
0.0651207
0.0638743
0.0623143
0.06047
0.0584616
0.0565191
0.0549582
0.0541039
0.0541737
0.0551911
0.0569892
0.0592819
0.061758
0.0641594
0.066322
0.0681779
0.0697347
0.0710452
0.0721805
0.073211
0.074195
0.075174
0.0761718
0.077197
0.0782466
0.0793106
0.0803773
0.0814376
0.0824887
0.0835356
0.0845836
0.0856665
0.086688
0.087916
0.0867785
0.0855149
0.0842526
0.082952
0.0816146
0.0802446
0.0788558
0.0774704
0.0761154
0.0748188
0.0736066
0.0725004
0.0715155
0.0706608
0.0699381
0.0693433
0.0688659
0.0684905
0.0681967
0.0679592
0.0677484
0.067529
0.0672603
0.0668944
0.0663759
0.0656423
0.0646285
0.0632786
0.061569
0.0595429
0.0573475
0.0552515
0.0536132
0.0527893
0.0530006
0.0542419
0.0562945
0.0588165
0.0614549
0.0639337
0.0660923
0.0678809
0.069331
0.0705185
0.0715336
0.0724615
0.0733699
0.0743064
0.0752979
0.0763536
0.0774692
0.0786315
0.0798241
0.0810318
0.0822446
0.0834591
0.084672
0.0859121
0.0870679
0.0882809
0.0869608
0.0854972
0.0840285
0.0825186
0.0809773
0.0794158
0.0778553
0.0763233
0.0748503
0.0734662
0.0721969
0.0710625
0.0700762
0.0692439
0.0685645
0.0680307
0.0676292
0.0673412
0.067143
0.0670052
0.0668938
0.0667681
0.0665806
0.0662759
0.0657902
0.0650525
0.063991
0.0625467
0.0607003
0.0585098
0.0561496
0.0539251
0.0522321
0.0514513
0.0518007
0.0532438
0.0555133
0.0582188
0.0609743
0.0634926
0.0656208
0.067328
0.0686679
0.0697372
0.0706425
0.071481
0.0723288
0.0732382
0.0742388
0.0753405
0.0765378
0.0778149
0.0791508
0.0805241
0.0819174
0.0833195
0.0847185
0.0861395
0.0874568
0.0886775
0.0871518
0.0854684
0.0837758
0.0820417
0.080284
0.0785217
0.0767829
0.0751007
0.0735086
0.0720375
0.0707123
0.069551
0.0685636
0.0677528
0.0671142
0.0666373
0.066306
0.0660986
0.0659884
0.065943
0.0659242
0.0658864
0.0657759
0.0655303
0.0650776
0.0643389
0.0632358
0.0617074
0.0597394
0.0574051
0.054905
0.0525778
0.0508505
0.0501205
0.0505978
0.0522149
0.0546608
0.0575052
0.0603375
0.062865
0.0649449
0.0665641
0.0677962
0.0687556
0.0695627
0.0703246
0.0711241
0.0720182
0.073039
0.0741976
0.075488
0.076892
0.0783843
0.0799379
0.0815276
0.0831346
0.0847389
0.0863616
0.0878647
0.0891132
0.0873611
0.0854402
0.0835079
0.0815366
0.0795523
0.0775823
0.0756619
0.073829
0.0721198
0.0705652
0.0691884
0.0680038
0.067018
0.0662294
0.0656303
0.0652069
0.0649402
0.0648063
0.064776
0.064814
0.0648789
0.0649207
0.0648805
0.0646892
0.0642675
0.0635291
0.0623902
0.0607884
0.0587153
0.0562594
0.0536453
0.0512405
0.0494967
0.0488208
0.0494111
0.0511708
0.0537524
0.056694
0.0595683
0.0620815
0.0641014
0.0656312
0.0667612
0.0676205
0.0683403
0.0690363
0.0697971
0.0706839
0.071732
0.0729542
0.0743448
0.0758842
0.0775433
0.0792893
0.0810897
0.0829176
0.0847446
0.0865884
0.0882989
0.0895942
0.0875969
0.0854218
0.0832353
0.0810148
0.0787955
0.0766131
0.0745099
0.0725286
0.070707
0.069075
0.0676527
0.0664506
0.0654703
0.0647062
0.0641464
0.0637739
0.0635671
0.0634999
0.063541
0.063653
0.0637917
0.0639037
0.0639253
0.0637818
0.0633874
0.0626495
0.0614797
0.0598153
0.0576541
0.0550992
0.0523968
0.049938
0.0481925
0.0475702
0.0482555
0.0501253
0.0528031
0.0558042
0.0586911
0.0611719
0.0631248
0.0645669
0.0656021
0.0663707
0.0670131
0.0676516
0.0683801
0.0692643
0.0703431
0.071632
0.0731268
0.074807
0.0766409
0.0785898
0.0806139
0.0826778
0.0847448
0.0868281
0.0887662
0.0901259
0.0878656
0.0854207
0.0829661
0.0804857
0.0780243
0.0756265
0.0733416
0.0712161
0.0692887
0.067587
0.0661271
0.0649142
0.0639447
0.063208
0.0626881
0.0623647
0.0622137
0.0622069
0.0623114
0.0624881
0.0626906
0.0628626
0.0629368
0.0628336
0.0624617
0.0617234
0.0605271
0.0588105
0.0565783
0.0539466
0.0511804
0.0486893
0.0469539
0.0463819
0.0471425
0.0490905
0.0518276
0.0548547
0.0577295
0.0601642
0.0620464
0.0634044
0.0643523
0.0650392
0.0656121
0.0661993
0.0668994
0.0677827
0.0688926
0.0702484
0.0718483
0.0736726
0.075687
0.0778479
0.0801078
0.0824227
0.0847463
0.0870872
0.0892722
0.0907135
0.0881729
0.0854432
0.0827074
0.0799572
0.0772479
0.0746332
0.0721691
0.0699053
0.06788
0.0661175
0.0646285
0.0634122
0.0624592
0.0617534
0.0612744
0.0609988
0.0608999
0.0609479
0.0611083
0.0613409
0.0615974
0.0618196
0.0619369
0.061866
0.0615114
0.0607715
0.0595525
0.0577938
0.0555068
0.0528198
0.0500129
0.0475086
0.0457926
0.0452655
0.0460815
0.0480773
0.0508403
0.053864
0.0567061
0.0590844
0.0608943
0.0621726
0.0630405
0.0636537
0.0641637
0.0647037
0.065377
0.066259
0.0673981
0.0688185
0.0705222
0.0724913
0.0746903
0.0770709
0.0795781
0.0821584
0.0847553
0.0873718
0.0898227
0.0913613
0.088524
0.0854948
0.0824652
0.0794361
0.0764741
0.0736422
0.0710028
0.0686077
0.0664934
0.0646795
0.0631703
0.0619583
0.0610273
0.0603558
0.059919
0.05969
0.05964
0.0597376
0.0599471
0.0602273
0.0605288
0.0607916
0.060943
0.0608967
0.0605541
0.059811
0.058573
0.0567819
0.0544556
0.0517334
0.0489068
0.0464063
0.0447167
0.0442282
0.0450799
0.0470954
0.0498546
0.0528496
0.0556421
0.0579561
0.0596935
0.0608967
0.0616917
0.0622378
0.0626902
0.0631859
0.0638327
0.0647111
0.0658756
0.0673564
0.0691606
0.0712733
0.0736591
0.0762658
0.0790306
0.0818904
0.0847774
0.0876874
0.0904232
0.0920737
0.0889234
0.0855803
0.0822449
0.0789287
0.0757101
0.0726618
0.0698518
0.0673332
0.0651392
0.0632835
0.061763
0.0605625
0.0596588
0.0590247
0.058631
0.0584476
0.0584436
0.058586
0.0588384
0.0591587
0.0594968
0.0597914
0.0599684
0.0599395
0.059604
0.0588565
0.0576029
0.0557885
0.0534378
0.0506991
0.0478719
0.0453897
0.0437317
0.0432748
0.0441441
0.0461541
0.0488832
0.051828
0.0545569
0.0568006
0.0584661
0.059599
0.0603275
0.0608125
0.0612117
0.0616647
0.0622841
0.0631558
0.0643408
0.0658762
0.0677758
0.0700291
0.072602
0.0754396
0.0784716
0.0816243
0.084818
0.0880395
0.0910794
0.0928546
0.0893752
0.0857043
0.0820515
0.0784404
0.0749622
0.071699
0.068724
0.06609
0.0638258
0.0619377
0.0604144
0.059232
0.0583604
0.0577665
0.0574165
0.0572775
0.0573164
0.0574993
0.0577888
0.0581425
0.0585096
0.0588282
0.0590232
0.0590051
0.0586724
0.0579195
0.056654
0.0548251
0.0524639
0.0497257
0.0469151
0.0444638
0.0428414
0.0424092
0.0432795
0.0452618
0.0479383
0.0508146
0.0534684
0.0556372
0.0572319
0.0582991
0.0589668
0.0593961
0.0597457
0.0601575
0.0607481
0.0616091
0.0628087
0.064392
0.0663803
0.0687695
0.0715283
0.0745999
0.0779074
0.081366
0.0848826
0.0884339
0.0917972
0.0937075
0.0898831
0.0858708
0.0818893
0.0779761
0.0742358
0.07076
0.0676259
0.0648849
0.0625598
0.0606485
0.0591301
0.0579721
0.0571366
0.0565848
0.0562788
0.0561827
0.0562618
0.0564809
0.0568022
0.0571831
0.0575724
0.057908
0.0581143
0.0581014
0.057768
0.0570094
0.0557358
0.0539011
0.0515423
0.0488204
0.0460416
0.0436323
0.0420483
0.0416344
0.0424909
0.0444263
0.0470311
0.0498235
0.0523926
0.0544832
0.0560084
0.0570141
0.0576265
0.0580049
0.0583083
0.0586798
0.0592401
0.0600864
0.0612942
0.0629176
0.064987
0.0675059
0.0704476
0.073755
0.0773449
0.0811215
0.084977
0.088876
0.0925824
0.0946357
0.0904508
0.0860833
0.0817622
0.0775403
0.0735359
0.0698499
0.066563
0.0637234
0.0613466
0.0594206
0.0579142
0.0567858
0.0559898
0.0554816
0.0552194
0.0551645
0.0552806
0.055532
0.0558803
0.0562828
0.0566883
0.0570348
0.0572466
0.0572344
0.0568975
0.0561335
0.0548559
0.0530237
0.0506795
0.0479884
0.0452552
0.0428972
0.0413541
0.0409527
0.0417829
0.0436552
0.0461721
0.0488678
0.0513445
0.0533541
0.0548111
0.0557593
0.0563213
0.0566535
0.0569138
0.0572462
0.0577747
0.0586021
0.0598118
0.0614672
0.063609
0.0662501
0.0693702
0.0729134
0.0767913
0.080897
0.085107
0.0893717
0.0934411
0.0956422
0.0910811
0.0863451
0.0816738
0.0771365
0.0728665
0.0689733
0.0655399
0.06261
0.0601902
0.0582574
0.0567695
0.0556751
0.0549212
0.0544574
0.0542381
0.0542225
0.0543727
0.0546525
0.0550232
0.0554423
0.0558587
0.0562107
0.0564234
0.056408
0.0560659
0.0552974
0.0540203
0.0521989
0.049881
0.0472338
0.0445584
0.0422601
0.0407599
0.0403662
0.0411595
0.0429553
0.0453711
0.0479594
0.0503373
0.0522637
0.053654
0.0545482
0.0550644
0.0553547
0.0555751
0.0558696
0.0563651
0.0571699
0.0583751
0.0600542
0.0622593
0.065014
0.0683065
0.0720841
0.0762543
0.0806991
0.0852785
0.0899267
0.0943792
0.0967297
0.0917769
0.0866589
0.0816268
0.0767682
0.0722311
0.0681339
0.0645603
0.0615482
0.0590937
0.0571614
0.0556976
0.054641
0.053931
0.0535118
0.0533343
0.0533556
0.0535369
0.0538412
0.0542302
0.0546612
0.0550839
0.055437
0.0556465
0.0556253
0.055277
0.0545056
0.0532338
0.0514314
0.0491506
0.0465596
0.0439532
0.041722
0.0402667
0.0398769
0.0406249
0.0423332
0.0446371
0.0471094
0.049383
0.0512244
0.052549
0.0533926
0.0538671
0.0541197
0.0543034
0.0545615
0.0550235
0.0558023
0.0569971
0.0586917
0.0609503
0.0638093
0.0672671
0.0712762
0.0757415
0.0805344
0.0854975
0.0905467
0.0954023
0.0979007
0.0925404
0.0870273
0.0816239
0.0764379
0.0716327
0.0673349
0.0636276
0.0605412
0.0580597
0.0561345
0.0546997
0.0536838
0.0530188
0.0526438
0.0525066
0.0525623
0.0527713
0.0530966
0.0534998
0.0539387
0.0543635
0.0547139
0.0549171
0.0548881
0.0545335
0.0537616
0.0525003
0.0507249
0.0484918
0.0459681
0.0434407
0.0412834
0.0398751
0.0394866
0.0401828
0.041795
0.0439784
0.0463277
0.0484925
0.0502473
0.0515071
0.0523028
0.0527395
0.0529584
0.0531087
0.0533324
0.0537605
0.0545107
0.0556896
0.0573917
0.0596942
0.0626475
0.0662624
0.0704988
0.0752608
0.0804096
0.08577
0.0912372
0.096516
0.0991572
0.0933739
0.0874523
0.0816673
0.0761483
0.0710741
0.0665791
0.0627446
0.0595915
0.0570903
0.0551783
0.0537765
0.0528036
0.052184
0.0518523
0.0517532
0.0518405
0.0520741
0.0524167
0.0528303
0.0532734
0.0536968
0.0540412
0.0542358
0.0541979
0.0538377
0.0530681
0.0518228
0.0500826
0.0479071
0.0454613
0.0430221
0.0409449
0.039586
0.0391971
0.0398371
0.0413467
0.0434026
0.0456232
0.0476755
0.049342
0.0505377
0.0512878
0.0516901
0.0518791
0.0519994
0.0521908
0.0525856
0.0533051
0.0544634
0.0561655
0.0585023
0.0615396
0.0653027
0.0697609
0.0748197
0.0803311
0.0861016
0.0920035
0.0977254
0.100501
0.0942791
0.0879357
0.081759
0.0759013
0.0705578
0.0658693
0.0619141
0.0587016
0.0561877
0.0542941
0.0529288
0.0520002
0.0514259
0.0511359
0.0510726
0.0511885
0.0514432
0.0517995
0.0522201
0.0526638
0.0530827
0.0534188
0.053603
0.0535557
0.0531912
0.0524274
0.051204
0.0495071
0.0473987
0.0450407
0.0426982
0.0407071
0.0394
0.0390102
0.0395911
0.0409938
0.0429172
0.0450043
0.0469406
0.0485173
0.0496491
0.0503555
0.0507264
0.0508889
0.0509827
0.0511445
0.0515069
0.0521945
0.0533281
0.0550233
0.0573852
0.0604961
0.0643975
0.0690712
0.0744258
0.0803054
0.0864978
0.0928504
0.0990354
0.101934
0.0952575
0.0884791
0.0819006
0.0756991
0.070086
0.0652082
0.0611387
0.0578742
0.0553539
0.0534835
0.0521573
0.0512738
0.0507439
0.0504935
0.0504632
0.0506044
0.0508767
0.0512434
0.0516674
0.0521088
0.0525204
0.052846
0.0530189
0.0529626
0.0525957
0.0518417
0.0506463
0.0490007
0.0469687
0.0447077
0.0424699
0.0405703
0.039318
0.0389278
0.0394481
0.0407413
0.0425288
0.0444788
0.0462959
0.047781
0.0488487
0.0495125
0.0498545
0.0499939
0.0500645
0.0501995
0.050531
0.0511861
0.052292
0.0539743
0.0563524
0.0595264
0.0635562
0.0684379
0.0740861
0.0803382
0.0869635
0.0937823
0.10045
0.103457
0.0963103
0.0890839
0.0820938
0.0755438
0.0696614
0.0645986
0.0604215
0.057112
0.0545912
0.0527479
0.0514627
0.0506243
0.0501372
0.0499241
0.0499235
0.0500866
0.050373
0.0507465
0.0511709
0.051607
0.0520091
0.0523228
0.0524838
0.0524193
0.0520526
0.051313
0.050152
0.0485657
0.046619
0.0444636
0.0423378
0.0405351
0.0393408
0.0389515
0.0394111
0.0405935
0.0422431
0.0440534
0.0457487
0.0471401
0.0481427
0.0487648
0.0490799
0.049199
0.0492498
0.0493608
0.0496634
0.0502864
0.0513621
0.0530262
0.0554124
0.0586394
0.062787
0.0678686
0.0738072
0.080435
0.0875034
0.0948031
0.101972
0.105072
0.0974383
0.0897512
0.0823402
0.0754374
0.0692865
0.0640436
0.0597657
0.056418
0.0539021
0.0520892
0.0508462
0.0500521
0.0496058
0.0494268
0.0494523
0.0496336
0.0499304
0.0503073
0.050729
0.0511574
0.0515482
0.0518489
0.0519982
0.051927
0.0515636
0.0508431
0.0497232
0.0482043
0.0463514
0.0443098
0.0423029
0.0406023
0.0394692
0.0390828
0.0394828
0.0405546
0.0420654
0.0437341
0.0453054
0.0466008
0.0475371
0.0481172
0.0484068
0.0485082
0.0485422
0.0486326
0.0489086
0.0495002
0.0505443
0.0521857
0.0545727
0.0578429
0.0620977
0.0673705
0.0735951
0.0806007
0.0881211
0.0959157
0.103605
0.106777
0.098642
0.0904819
0.0826412
0.0753822
0.0689644
0.0635465
0.0591748
0.0557955
0.0532893
0.0515094
0.0503087
0.0495574
0.0491491
0.0490006
0.0490485
0.0492439
0.0495475
0.0499245
0.0503407
0.0507591
0.0511371
0.0514243
0.0515625
0.0514866
0.0511301
0.0504342
0.0493623
0.0479186
0.0461678
0.0442478
0.0423661
0.0407722
0.0397039
0.0393231
0.0396655
0.040628
0.0420001
0.0435262
0.0449713
0.0461685
0.0470367
0.0475742
0.0478387
0.0479242
0.0479442
0.0480171
0.0482695
0.0488312
0.0498432
0.0514585
0.0538396
0.0571435
0.0614952
0.0669497
0.0734551
0.0808396
0.08882
0.0971224
0.105351
0.108574
0.0999216
0.0912768
0.0829985
0.0753805
0.068698
0.0631113
0.0586527
0.0552477
0.0527554
0.0510101
0.0498515
0.0491408
0.048767
0.0486449
0.0487108
0.0489163
0.0492228
0.0495967
0.0500047
0.0504112
0.0507753
0.0510491
0.0511773
0.0510994
0.0507541
0.0500884
0.0490714
0.0477108
0.04607
0.0442787
0.0425282
0.0410454
0.0400454
0.0396733
0.039961
0.0408164
0.042051
0.043434
0.0447513
0.0458479
0.0466458
0.0471393
0.0473788
0.0474498
0.047458
0.0475165
0.0477479
0.0482817
0.0492617
0.0508487
0.0532183
0.0565473
0.0609852
0.0666118
0.0733919
0.0811551
0.0896022
0.0984247
0.107209
0.110461
0.101277
0.0921365
0.0834134
0.0754349
0.0684915
0.0627417
0.0582029
0.0547778
0.0523029
0.0505935
0.0494756
0.0488025
0.0484591
0.0483589
0.0484382
0.0486494
0.0489551
0.0493226
0.0497201
0.0501131
0.0504628
0.0507236
0.0508437
0.050767
0.0504375
0.0498082
0.0488533
0.0475833
0.0460599
0.0444037
0.0427896
0.041422
0.0404936
0.0401335
0.04037
0.0411215
0.0422205
0.0434609
0.0446491
0.0456428
0.0463677
0.0468154
0.0470291
0.0470863
0.0470848
0.0471316
0.0473451
0.0478533
0.0488019
0.0503587
0.0527122
0.0560587
0.060573
0.0663612
0.0734091
0.0815497
0.0904693
0.0998227
0.109179
0.112437
0.102706
0.093061
0.0838877
0.0755487
0.0683481
0.0624415
0.0578289
0.0543891
0.0519345
0.0502611
0.0491819
0.0485427
0.0482249
0.0481415
0.0482293
0.0484418
0.0487428
0.049101
0.0494857
0.0498641
0.0501992
0.0504481
0.0505626
0.0504908
0.0501823
0.0495958
0.0487102
0.0475384
0.0461391
0.0446237
0.0431504
0.0419016
0.041048
0.0407034
0.0408925
0.0415438
0.0425102
0.043609
0.0446673
0.0455558
0.046205
0.0466045
0.0467912
0.0468346
0.046825
0.0468626
0.047061
0.0475461
0.0484646
0.0499901
0.0523234
0.0556805
0.060262
0.0662021
0.0735096
0.0820251
0.0914216
0.101316
0.111259
0.114497
0.104208
0.0940502
0.0844231
0.0757247
0.0682711
0.0622141
0.0575343
0.0540845
0.0516522
0.0500142
0.0489707
0.0483608
0.0480635
0.0479914
0.0480825
0.0482917
0.0485843
0.0489302
0.0493004
0.0496634
0.0499844
0.0502231
0.0503349
0.0502725
0.0499907
0.0494537
0.0486446
0.0475779
0.046309
0.0449394
0.0436104
0.0424832
0.041707
0.0413813
0.0415273
0.0420829
0.04292
0.043879
0.0448071
0.0455886
0.0461593
0.0465078
0.0466656
0.0466948
0.0466779
0.0467084
0.0468946
0.0473593
0.0482494
0.0497432
0.0520531
0.0554143
0.0600541
0.0661369
0.0736959
0.0825821
0.0924582
0.102901
0.113447
0.116638
0.105781
0.0951041
0.0850211
0.0759649
0.0682637
0.0620631
0.0573221
0.0538662
0.0514574
0.049853
0.0488415
0.048256
0.0479733
0.0479069
0.047996
0.0481974
0.0484778
0.048809
0.049163
0.0495103
0.0498181
0.0500489
0.0501617
0.0501137
0.0498647
0.049384
0.0486585
0.0477035
0.0465705
0.0453506
0.0441685
0.0431648
0.0424681
0.0421645
0.0422716
0.0427364
0.0434486
0.0442703
0.0450686
0.0457413
0.0462308
0.0465254
0.046652
0.0466659
0.046642
0.0466672
0.0468436
0.0472907
0.0481543
0.0496167
0.0519007
0.0552604
0.0599501
0.0661659
0.0739687
0.083221
0.0935776
0.104576
0.115736
0.118855
0.10742
0.0962215
0.0856821
0.0762717
0.0683288
0.0619913
0.0571945
0.0537355
0.0513501
0.049777
0.0487931
0.0482261
0.0479523
0.0478856
0.0479674
0.0481565
0.0484215
0.0487355
0.0490724
0.0494042
0.0497003
0.049926
0.050044
0.0500158
0.0498062
0.0493886
0.0487536
0.0479163
0.0469236
0.0458562
0.0448224
0.043943
0.0433273
0.0430485
0.0431213
0.0435003
0.0440923
0.0447801
0.0454497
0.0460127
0.0464185
0.0466562
0.046749
0.0467459
0.0467148
0.0467356
0.0469045
0.0473364
0.0481758
0.0496076
0.051864
0.0552175
0.0599496
0.066289
0.074327
0.0839405
0.0947772
0.106336
0.11812
0.121138
0.109121
0.0974002
0.0864066
0.0766469
0.0684688
0.0620006
0.0571525
0.0536922
0.0513294
0.0497841
0.0488227
0.0482685
0.0479973
0.0479246
0.0479941
0.0481668
0.0484132
0.0487082
0.0490273
0.0493442
0.0496307
0.0498549
0.0499828
0.0499803
0.0498165
0.049469
0.0489307
0.0482162
0.0473673
0.0464539
0.0455686
0.0448131
0.0442791
0.0440274
0.0440699
0.0443687
0.044846
0.0454039
0.0459467
0.0463997
0.0467198
0.0468976
0.0469537
0.0469316
0.0468925
0.0469094
0.0470723
0.0474915
0.0483088
0.0497112
0.0519392
0.0552827
0.0600503
0.0665046
0.074769
0.0847375
0.096053
0.108174
0.120592
0.123479
0.110879
0.0986375
0.0871943
0.0770917
0.0686851
0.0620917
0.0571957
0.0537346
0.0513923
0.0498708
0.0489264
0.0483791
0.0481045
0.0480204
0.0480729
0.0482255
0.0484507
0.0487252
0.0490264
0.0493297
0.0496092
0.0498357
0.0499788
0.0500081
0.0498967
0.0496258
0.0491899
0.0486024
0.0478993
0.04714
0.0464019
0.0457688
0.045316
0.045093
0.0451092
0.0453334
0.045702
0.0461349
0.0465538
0.0468973
0.0471302
0.0472456
0.0472621
0.0472186
0.0471699
0.0471829
0.0473408
0.0477491
0.0485465
0.049921
0.0521205
0.0554513
0.0602488
0.0668098
0.0752919
0.0856082
0.097399
0.110084
0.12314
0.125866
0.112685
0.0999298
0.0880443
0.0776065
0.068978
0.0622639
0.0573218
0.053859
0.051534
0.0500315
0.0490987
0.0485525
0.0482691
0.0481687
0.0482002
0.0483296
0.0485316
0.0487848
0.0490685
0.04936
0.0496355
0.0498687
0.0500323
0.0500996
0.0500471
0.0498587
0.04953
0.0490722
0.0485156
0.047909
0.0473151
0.0468017
0.0464286
0.0462351
0.0462287
0.046384
0.0466502
0.0469639
0.0472628
0.0474984
0.0476435
0.0476943
0.0476684
0.0476007
0.0475406
0.0475487
0.0477021
0.0481009
0.0488804
0.0502287
0.0524002
0.0557167
0.0605396
0.0672004
0.0758914
0.0865476
0.0988085
0.112055
0.125752
0.128286
0.114531
0.101272
0.0889549
0.0781907
0.0693468
0.0625151
0.0575268
0.0540597
0.0517477
0.0502589
0.0493322
0.0487819
0.0484851
0.0483645
0.0483718
0.0484757
0.0486532
0.048885
0.0491523
0.0494342
0.0497093
0.0499538
0.0501435
0.0502546
0.0502669
0.0501661
0.049948
0.0496215
0.0492103
0.0487531
0.0482992
0.0479011
0.0476051
0.0474414
0.0474157
0.0475077
0.0476786
0.0478796
0.0480633
0.0481936
0.0482512
0.0482359
0.048165
0.0480704
0.0479964
0.0479982
0.0481467
0.0485368
0.0493
0.0506241
0.0527689
0.0560707
0.060916
0.0676705
0.0765624
0.0875498
0.100273
0.114076
0.128414
0.130722
0.116408
0.102659
0.0899234
0.0788429
0.0697892
0.0628412
0.0578045
0.0543286
0.0520241
0.0505434
0.0496178
0.049059
0.0487454
0.0486019
0.0485831
0.0486603
0.048813
0.049024
0.0492765
0.0495515
0.0498299
0.0500905
0.0503115
0.0504721
0.0505541
0.0505449
0.0504395
0.0502439
0.0499754
0.0496627
0.0493426
0.0490543
0.0488317
0.0486974
0.0486552
0.0486898
0.0487726
0.0488681
0.0489426
0.0489712
0.0489427
0.0488606
0.0487426
0.0486183
0.0485277
0.048521
0.0486634
0.0490449
0.0497931
0.0510951
0.0532154
0.0565034
0.0613697
0.0682134
0.0772986
0.088608
0.101785
0.116136
0.13111
0.133158
0.118304
0.104085
0.0909466
0.0795608
0.070302
0.063237
0.0581472
0.0546559
0.052352
0.0508736
0.0499444
0.0493741
0.0490415
0.0488739
0.0488285
0.0488792
0.049008
0.0491996
0.0494395
0.0497107
0.0499965
0.0502776
0.0505348
0.0507495
0.0509053
0.05099
0.0509979
0.0509309
0.0508003
0.0506255
0.0504317
0.0502463
0.0500926
0.0499863
0.0499302
0.0499131
0.0499154
0.0499134
0.0498856
0.0498175
0.0497052
0.0495565
0.0493898
0.0492331
0.0491229
0.0491049
0.0492395
0.0496119
0.0503461
0.0516282
0.0537269
0.0570036
0.0618914
0.0688213
0.0780931
0.0897143
0.103333
0.118221
0.133821
0.135574
0.120206
0.105541
0.0920204
0.0803412
0.0708813
0.0636961
0.0585456
0.0550299
0.0527183
0.0512359
0.0502993
0.0497155
0.0493636
0.0491726
0.0491019
0.0491278
0.0492346
0.0494093
0.0496395
0.0499105
0.0502073
0.0505131
0.0508107
0.0510832
0.0513152
0.0514947
0.051614
0.0516717
0.0516723
0.0516269
0.0515506
0.0514601
0.0513698
0.0512899
0.051222
0.0511588
0.0510885
0.0509977
0.0508753
0.0507163
0.0505238
0.0503095
0.0500931
0.0499014
0.0497684
0.049736
0.0498603
0.0502225
0.0509435
0.0522085
0.0542896
0.0575591
0.0624709
0.0694861
0.0789386
0.0908608
0.104906
0.120317
0.136528
0.137952
0.122104
0.107021
0.0931405
0.0811812
0.071523
0.0642119
0.05899
0.055438
0.0531086
0.0516153
0.0506677
0.0500699
0.0497004
0.0494887
0.049396
0.0494006
0.0494889
0.0496501
0.049874
0.0501483
0.0504598
0.0507939
0.051135
0.0514674
0.0517764
0.0520494
0.0522767
0.0524528
0.0525763
0.0526504
0.0526813
0.0526768
0.052644
0.0525881
0.0525103
0.0524065
0.0522717
0.052101
0.0518925
0.0516495
0.0513811
0.051103
0.0508364
0.0506076
0.0504485
0.0503982
0.0505096
0.0508603
0.051569
0.0528201
0.0548889
0.0581575
0.0630981
0.0701997
0.0798277
0.0920393
0.106494
0.122406
0.139208
0.140272
0.123982
0.108516
0.0943026
0.0820779
0.0722237
0.0647785
0.0594712
0.0558679
0.0535081
0.0519958
0.0510339
0.0504227
0.0500388
0.0498113
0.0497021
0.0496908
0.0497656
0.0499179
0.0501396
0.0504209
0.0507504
0.0511154
0.0515016
0.0518945
0.0522795
0.0526427
0.0529722
0.0532585
0.0534948
0.0536771
0.0538041
0.0538762
0.0538942
0.0538599
0.0537738
0.0536348
0.0534434
0.0532019
0.0529163
0.0525966
0.0522575
0.0519182
0.0516014
0.0513336
0.0511453
0.0510737
0.0511693
0.0515076
0.0522055
0.053447
0.0555107
0.0587867
0.0637635
0.0709545
0.0807537
0.0932416
0.108085
0.124474
0.14184
0.142514
0.12583
0.110019
0.0955028
0.0830296
0.0729816
0.0653923
0.0599825
0.0563091
0.0539033
0.0523616
0.0513812
0.0507575
0.0503639
0.0501276
0.0500096
0.0499898
0.050058
0.0502072
0.0504316
0.0507235
0.0510737
0.0514711
0.0519029
0.0523549
0.0528124
0.0532604
0.0536844
0.054071
0.0544083
0.0546866
0.0548978
0.0550365
0.0550986
0.0550829
0.0549898
0.0548207
0.0545805
0.0542774
0.0539235
0.0535347
0.0531304
0.0527328
0.0523665
0.0520582
0.0518382
0.0517424
0.0518203
0.0521461
0.0528358
0.054074
0.0561419
0.0594364
0.0644595
0.0717448
0.0817113
0.0944606
0.109668
0.126503
0.144398
0.144661
0.127634
0.111521
0.096738
0.0840365
0.0737982
0.0660538
0.0605213
0.0567552