/*--------------------------------*- C++ -*----------------------------------*\
| =========                 |                                                 |
| \\      /  F ield         | OpenFOAM: The Open Source CFD Toolbox           |
|  \\    /   O peration     | Version:  2406                                  |
|   \\  /    A nd           | Website:  www.openfoam.com                      |
|    \\/     M anipulation  |                                                 |
\*---------------------------------------------------------------------------*/
FoamFile
{
    version     2.0;
    format      ascii;
    arch        "LSB;label=32;scalar=64";
    class       surfaceScalarField;
    location    "15000";
    object      phi;
}
// * * * * * * * * * * * * * * * * * * * * * * * * * * * * * * * * * * * * * //

dimensions      [0 3 -1 0 0 0 0];

oriented        oriented;

internalField   nonuniform List<scalar> 
7080
(
1.33201e-06
-1.33201e-06
2.9072e-06
-1.57519e-06
4.2833e-06
-1.3761e-06
5.50934e-06
-1.22603e-06
6.68814e-06
-1.17881e-06
7.88393e-06
-1.19578e-06
9.11642e-06
-1.2325e-06
1.0373e-05
-1.25655e-06
1.1622e-05
-1.24903e-06
1.28234e-05
-1.2014e-06
1.3936e-05
-1.11256e-06
1.49223e-05
-9.86311e-07
1.57518e-05
-8.2957e-07
1.64027e-05
-6.50821e-07
1.68616e-05
-4.5898e-07
1.71242e-05
-2.62561e-07
1.71933e-05
-6.9133e-08
1.70784e-05
1.14895e-07
1.67939e-05
2.8452e-07
1.63578e-05
4.36078e-07
1.57908e-05
5.67055e-07
1.51149e-05
6.75884e-07
1.4353e-05
7.61921e-07
1.35274e-05
8.25566e-07
1.26588e-05
8.68644e-07
1.17637e-05
8.9505e-07
1.08523e-05
9.11452e-07
9.92467e-06
9.27596e-07
8.96911e-06
9.5556e-07
7.96167e-06
1.00745e-06
6.87002e-06
1.09165e-06
5.66103e-06
1.20898e-06
4.31002e-06
1.35102e-06
2.80741e-06
1.5026e-06
1.15893e-06
1.64848e-06
-6.20973e-07
1.7799e-06
-2.51648e-06
1.8955e-06
-4.51159e-06
1.99511e-06
-6.58456e-06
2.07297e-06
-8.69882e-06
2.11426e-06
-1.07973e-05
2.09844e-06
-1.28041e-05
2.00681e-06
-1.46336e-05
1.82956e-06
-1.62028e-05
1.56917e-06
-1.74423e-05
1.2395e-06
-1.83041e-05
8.61818e-07
-1.8764e-05
4.59875e-07
-1.88199e-05
5.58839e-08
-1.84884e-05
-3.31501e-07
-1.78004e-05
-6.8796e-07
-1.67964e-05
-1.00399e-06
-1.55223e-05
-1.27413e-06
-1.40254e-05
-1.49692e-06
-1.23491e-05
-1.67626e-06
-1.05253e-05
-1.8238e-06
-8.56407e-06
-1.96124e-06
-6.44809e-06
-2.11598e-06
-4.15203e-06
-2.29606e-06
-1.76615e-06
-2.38588e-06
-1.76615e-06
1.60996e-06
-2.94197e-06
4.39972e-06
-4.36495e-06
7.533e-06
-4.50938e-06
1.07466e-05
-4.43964e-06
1.39957e-05
-4.4279e-06
1.72858e-05
-4.48592e-06
2.06086e-05
-4.55524e-06
2.39274e-05
-4.57534e-06
2.71819e-05
-4.50356e-06
3.02981e-05
-4.31759e-06
3.3198e-05
-4.01251e-06
3.58082e-05
-3.59645e-06
3.8065e-05
-3.08641e-06
3.99188e-05
-2.50457e-06
4.13351e-05
-1.87528e-06
4.22952e-05
-1.22271e-06
4.27954e-05
-5.69301e-07
4.28451e-05
6.52303e-08
4.24652e-05
6.64334e-07
4.16862e-05
1.21509e-06
4.05452e-05
1.70808e-06
3.90841e-05
2.13696e-06
3.73475e-05
2.49854e-06
3.53799e-05
2.79321e-06
3.32226e-05
3.02597e-06
3.09096e-05
3.20806e-06
2.84623e-05
3.35868e-06
2.58841e-05
3.50584e-06
2.3155e-05
3.68466e-06
2.02309e-05
3.93152e-06
1.70486e-05
4.27401e-06
1.35383e-05
4.71927e-06
9.64279e-06
5.24649e-06
5.3358e-06
5.8096e-06
6.32338e-07
6.35194e-06
-4.40937e-06
6.82161e-06
-9.69458e-06
7.18072e-06
-1.50997e-05
7.40022e-06
-2.0475e-05
7.44829e-06
-2.56488e-05
7.28802e-06
-3.04376e-05
6.88726e-06
-3.46632e-05
6.23239e-06
-3.81708e-05
5.3372e-06
-4.08442e-05
4.24254e-06
-4.2613e-05
3.00833e-06
-4.34533e-05
1.70213e-06
-4.33821e-05
3.88714e-07
-4.24506e-05
-8.75642e-07
-4.07359e-05
-2.04624e-06
-3.83321e-05
-3.09172e-06
-3.53433e-05
-3.99283e-06
-3.18764e-05
-4.74098e-06
-2.80348e-05
-5.33852e-06
-2.39109e-05
-5.80014e-06
-1.95811e-05
-6.15363e-06
-1.5108e-05
-6.43438e-06
-1.05645e-05
-6.65948e-06
-6.11548e-06
-6.74506e-06
-2.21322e-06
-6.28814e-06
-3.97937e-06
1.25066e-06
-4.19263e-06
4.17645e-06
-7.29074e-06
8.04903e-06
-8.38196e-06
1.24268e-05
-8.81746e-06
1.70889e-05
-9.08992e-06
2.19165e-05
-9.31352e-06
2.68228e-05
-9.46153e-06
3.17219e-05
-9.47452e-06
3.65208e-05
-9.30239e-06
4.11206e-05
-8.91746e-06
4.54234e-05
-8.31526e-06
4.93374e-05
-7.51046e-06
5.27825e-05
-6.53156e-06
5.56936e-05
-5.41558e-06
5.80218e-05
-4.20357e-06
5.9736e-05
-2.9369e-06
6.08214e-05
-1.65472e-06
6.12789e-05
-3.92177e-07
6.1123e-05
8.20221e-07
6.03804e-05
1.95763e-06
5.90875e-05
3.00104e-06
5.72874e-05
3.93701e-06
5.50281e-05
4.75789e-06
5.23586e-05
5.46263e-06
4.9326e-05
6.05862e-06
4.59697e-05
6.56438e-06
4.23157e-05
7.01259e-06
3.83697e-05
7.45187e-06
3.411e-05
7.94441e-06
2.94849e-05
8.55663e-06
2.44175e-05
9.34138e-06
1.88217e-05
1.03151e-05
1.26286e-05
1.14396e-05
5.8174e-06
1.26207e-05
-1.5607e-06
1.373e-05
-9.3717e-06
1.46326e-05
-1.74073e-05
1.52163e-05
-2.54049e-05
1.53978e-05
-3.30721e-05
1.51155e-05
-4.0115e-05
1.4331e-05
-4.62689e-05
1.30411e-05
-5.13237e-05
1.12872e-05
-5.51401e-05
9.15361e-06
-5.7652e-05
6.75444e-06
-5.88587e-05
4.21505e-06
-5.88115e-05
1.65484e-06
-5.75993e-05
-8.23434e-07
-5.53376e-05
-3.1373e-06
-5.21574e-05
-5.22647e-06
-4.81975e-05
-7.05163e-06
-4.36005e-05
-8.58985e-06
-3.85085e-05
-9.83302e-06
-3.30593e-05
-1.07877e-05
-2.73845e-05
-1.14749e-05
-2.16124e-05
-1.19258e-05
-1.58829e-05
-1.21639e-05
-1.03875e-05
-1.21549e-05
-5.45148e-06
-1.1681e-05
-1.6716e-06
-1.0068e-05
-5.65096e-06
8.74718e-07
-5.06735e-06
3.51895e-06
-9.93496e-06
7.48521e-06
-1.23482e-05
1.23412e-05
-1.36735e-05
1.77713e-05
-1.452e-05
2.35506e-05
-1.50928e-05
2.95067e-05
-1.54176e-05
3.54933e-05
-1.54611e-05
4.13773e-05
-1.51864e-05
4.70351e-05
-1.45752e-05
5.23528e-05
-1.3633e-05
5.72287e-05
-1.23864e-05
6.15754e-05
-1.08782e-05
6.53213e-05
-9.16148e-06
6.84112e-05
-7.29352e-06
7.08064e-05
-5.33207e-06
7.24835e-05
-3.33179e-06
7.34334e-05
-1.34215e-06
7.366e-05
5.93625e-07
7.31784e-05
2.43929e-06
7.20133e-05
4.16606e-06
7.01974e-05
5.753e-06
6.7768e-05
7.18726e-06
6.47653e-05
8.46529e-06
6.12285e-05
9.59545e-06
5.7191e-05
1.06019e-05
5.26748e-05
1.15288e-05
4.76829e-05
1.24438e-05
4.21924e-05
1.34349e-05
3.61506e-05
1.45984e-05
2.94799e-05
1.60121e-05
2.20962e-05
1.76989e-05
1.39423e-05
1.95935e-05
5.03042e-06
2.15327e-05
-4.52354e-06
2.3284e-05
-1.44815e-05
2.45906e-05
-2.4504e-05
2.52387e-05
-3.41919e-05
2.50857e-05
-4.31378e-05
2.40614e-05
-5.09787e-05
2.21719e-05
-5.74373e-05
1.94997e-05
-6.23439e-05
1.61939e-05
-6.56363e-05
1.2446e-05
-6.73418e-05
8.45987e-06
-6.75514e-05
4.42463e-06
-6.6395e-05
4.98472e-07
-6.40234e-05
-3.19501e-06
-6.05947e-05
-6.56599e-06
-5.62665e-05
-9.55471e-06
-5.11958e-05
-1.21223e-05
-4.55398e-05
-1.42459e-05
-3.94565e-05
-1.59163e-05
-3.31066e-05
-1.71376e-05
-2.66565e-05
-1.79251e-05
-2.02864e-05
-1.82958e-05
-1.42088e-05
-1.82415e-05
-8.69889e-06
-1.76648e-05
-4.13953e-06
-1.62404e-05
-1.05365e-06
-1.31539e-05
-6.70461e-06
6.27258e-07
-5.69461e-06
2.93966e-06
-1.22474e-05
6.73707e-06
-1.61456e-05
1.16744e-05
-1.86108e-05
1.74176e-05
-2.02632e-05
2.36831e-05
-2.13583e-05
3.02353e-05
-2.19698e-05
3.68753e-05
-2.21012e-05
4.34323e-05
-2.17434e-05
4.9758e-05
-2.0901e-05
5.57248e-05
-1.95997e-05
6.12243e-05
-1.78858e-05
6.61669e-05
-1.58209e-05
7.04809e-05
-1.34755e-05
7.41112e-05
-1.09238e-05
7.70178e-05
-8.23864e-06
7.9174e-05
-5.48797e-06
8.05647e-05
-2.73292e-06
8.11847e-05
-2.63259e-08
8.10369e-05
2.5871e-06
8.01317e-05
5.07127e-06
7.84851e-05
7.39961e-06
7.61171e-05
9.55524e-06
7.30498e-05
1.15325e-05
6.93051e-05
1.33402e-05
6.49005e-05
1.50064e-05
5.98451e-05
1.65842e-05
5.41327e-05
1.81562e-05
4.77358e-05
1.98318e-05
4.06028e-05
2.17314e-05
3.26635e-05
2.39514e-05
2.3851e-05
2.65113e-05
1.41413e-05
2.93032e-05
3.60305e-06
3.20709e-05
-7.56039e-06
3.44474e-05
-1.89947e-05
3.60249e-05
-3.02359e-05
3.648e-05
-4.07779e-05
3.56277e-05
-5.015e-05
3.34336e-05
-5.79846e-05
3.00065e-05
-6.40555e-05
2.55705e-05
-6.82825e-05
2.04208e-05
-7.07074e-05
1.48709e-05
-7.14553e-05
9.20779e-06
-7.06956e-05
3.66493e-06
-6.86126e-05
-1.5845e-06
-6.5387e-05
-6.42066e-06
-6.11871e-05
-1.07659e-05
-5.61711e-05
-1.45707e-05
-5.04924e-05
-1.7801e-05
-4.43062e-05
-2.0432e-05
-3.77751e-05
-2.24474e-05
-3.10743e-05
-2.38384e-05
-2.43978e-05
-2.46016e-05
-1.79663e-05
-2.47273e-05
-1.20388e-05
-2.4169e-05
-6.92564e-06
-2.2778e-05
-2.99122e-06
-2.01748e-05
-6.11373e-07
-1.55338e-05
-7.31598e-06
5.15712e-07
-6.21032e-06
2.60019e-06
-1.43318e-05
6.20307e-06
-1.97485e-05
1.10675e-05
-2.34752e-05
1.68789e-05
-2.60747e-05
2.33332e-05
-2.78126e-05
3.01588e-05
-2.87954e-05
3.7121e-05
-2.90633e-05
4.40198e-05
-2.86423e-05
5.06876e-05
-2.75688e-05
5.69859e-05
-2.5898e-05
6.28029e-05
-2.37028e-05
6.80504e-05
-2.10684e-05
7.26611e-05
-1.80861e-05
7.6585e-05
-1.48477e-05
7.97866e-05
-1.14403e-05
8.22417e-05
-7.9431e-06
8.39348e-05
-4.426e-06
8.48565e-05
-9.48057e-07
8.50018e-05
2.44179e-06
8.43684e-05
5.70467e-06
8.29562e-05
8.81181e-06
8.07661e-05
1.17454e-05
7.77986e-05
1.44999e-05
7.40531e-05
1.70857e-05
6.95251e-05
1.95344e-05
6.42036e-05
2.19058e-05
5.80667e-05
2.42931e-05
5.10781e-05
2.68204e-05
4.3186e-05
2.96235e-05
3.43327e-05
3.28047e-05
2.4479e-05
3.6365e-05
1.36489e-05
4.01333e-05
1.98334e-06
4.37365e-05
-1.02174e-05
4.66481e-05
-2.24882e-05
4.82957e-05
-3.42666e-05
4.82584e-05
-4.49852e-05
4.63462e-05
-5.41676e-05
4.2616e-05
-6.14971e-05
3.7336e-05
-6.68396e-05
3.09131e-05
-7.02229e-05
2.38041e-05
-7.17883e-05
1.64364e-05
-7.17369e-05
9.15638e-06
-7.02844e-05
2.21243e-06
-6.7634e-05
-4.23491e-06
-6.39634e-05
-1.00913e-05
-5.94258e-05
-1.53034e-05
-5.41606e-05
-1.98359e-05
-4.83041e-05
-2.36575e-05
-4.19999e-05
-2.67362e-05
-3.54083e-05
-2.9039e-05
-2.87129e-05
-3.05338e-05
-2.21261e-05
-3.11884e-05
-1.58933e-05
-3.096e-05
-1.02955e-05
-2.97669e-05
-5.64429e-06
-2.74291e-05
-2.25662e-06
-2.35625e-05
-3.76004e-07
-1.74144e-05
-7.69199e-06
5.07133e-07
-6.71745e-06
2.50046e-06
-1.63252e-05
5.98779e-06
-2.32358e-05
1.07695e-05
-2.82569e-05
1.65574e-05
-3.18626e-05
2.30466e-05
-3.43018e-05
2.99497e-05
-3.56986e-05
3.70117e-05
-3.61253e-05
4.40145e-05
-3.56451e-05
5.07782e-05
-3.43324e-05
5.71583e-05
-3.22782e-05
6.30432e-05
-2.95877e-05
6.83494e-05
-2.63746e-05
7.30171e-05
-2.27539e-05
7.70055e-05
-1.88361e-05
8.02876e-05
-1.47224e-05
8.28464e-05
-1.0502e-05
8.46711e-05
-6.25066e-06
8.57535e-05
-2.0305e-06
8.60859e-05
2.10944e-06
8.56585e-05
6.13204e-06
8.44592e-05
1.00111e-05
8.24724e-05
1.37323e-05
7.96784e-05
1.72939e-05
7.60534e-05
2.07107e-05
7.15685e-05
2.40193e-05
6.61889e-05
2.72853e-05
5.98729e-05
3.06091e-05
5.2571e-05
3.41223e-05
4.42299e-05
3.79646e-05
3.48054e-05
4.22291e-05
2.42921e-05
4.68783e-05
1.27696e-05
5.16558e-05
4.56362e-07
5.60497e-05
-1.2254e-05
5.93585e-05
-2.48074e-05
6.08491e-05
-3.65808e-05
6.00318e-05
-4.69946e-05
5.67601e-05
-5.56155e-05
5.12369e-05
-6.22132e-05
4.39337e-05
-6.67595e-05
3.54594e-05
-6.93816e-05
2.64261e-05
-7.02951e-05
1.73499e-05
-6.97426e-05
8.60386e-06
-6.79506e-05
4.20433e-07
-6.51092e-05
-7.07625e-06
-6.13696e-05
-1.38309e-05
-5.68546e-05
-1.98184e-05
-5.16747e-05
-2.50159e-05
-4.59428e-05
-2.93894e-05
-3.97879e-05
-3.28911e-05
-3.33645e-05
-3.54624e-05
-2.68596e-05
-3.70387e-05
-2.0496e-05
-3.7552e-05
-1.45316e-05
-3.69244e-05
-9.2534e-06
-3.50451e-05
-4.96042e-06
-3.17221e-05
-1.9242e-06
-2.65987e-05
-3.03238e-07
-1.90353e-05
-7.99522e-06
5.62719e-07
-7.28017e-06
2.57921e-06
-1.83417e-05
6.05055e-06
-2.67072e-05
1.07992e-05
-3.30056e-05
1.65547e-05
-3.76181e-05
2.3017e-05
-4.0764e-05
2.98936e-05
-4.25752e-05
3.69203e-05
-4.31519e-05
4.38704e-05
-4.25952e-05
5.05587e-05
-4.10208e-05
5.68406e-05
-3.856e-05
6.26082e-05
-3.53553e-05
6.77859e-05
-3.15523e-05
7.2324e-05
-2.7292e-05
7.61927e-05
-2.27047e-05
7.93762e-05
-1.79059e-05
8.18677e-05
-1.29934e-05
8.36641e-05
-8.04713e-06
8.47629e-05
-3.12929e-06
8.51582e-05
1.7142e-06
8.48383e-05
6.45195e-06
8.37844e-05
1.1065e-05
8.19695e-05
1.55471e-05
7.93581e-05
1.99053e-05
7.59062e-05
2.41626e-05
7.15622e-05
2.83634e-05
6.62675e-05
3.258e-05
5.99588e-05
3.69178e-05
5.25717e-05
4.15095e-05
4.40493e-05
4.64869e-05
3.43613e-05
5.19171e-05
2.35368e-05
5.77029e-05
1.17118e-05
6.34808e-05
-8.22428e-07
6.85839e-05
-1.35945e-05
7.21305e-05
-2.59926e-05
7.32473e-05
-3.73747e-05
7.14139e-05
-4.71917e-05
6.6577e-05
-5.50849e-05
5.91302e-05
-6.09234e-05
4.97722e-05
-6.4776e-05
3.9312e-05
-6.68438e-05
2.84939e-05
-6.73827e-05
1.78888e-05
-6.66421e-05
7.86331e-06
-6.48305e-05
-1.3912e-06
-6.2104e-05
-9.80275e-06
-5.85748e-05
-1.73601e-05
-5.43291e-05
-2.40641e-05
-4.94463e-05
-2.98987e-05
-4.40158e-05
-3.48198e-05
-3.81516e-05
-3.87553e-05
-3.20016e-05
-4.16124e-05
-2.5753e-05
-4.32872e-05
-1.96335e-05
-4.36715e-05
-1.39059e-05
-4.2652e-05
-8.85626e-06
-4.00947e-05
-4.77015e-06
-3.58082e-05
-1.88922e-06
-2.94796e-05
-3.34457e-07
-2.05901e-05
-8.32968e-06
6.4978e-07
-7.92995e-06
2.76378e-06
-2.04557e-05
6.29854e-06
-3.02419e-05
1.10708e-05
-3.77778e-05
1.68145e-05
-4.33618e-05
2.32324e-05
-4.71819e-05
3.0031e-05
-4.93738e-05
3.69434e-05
-5.00643e-05
4.37415e-05
-4.93934e-05
5.02415e-05
-4.75207e-05
5.63032e-05
-4.46217e-05
6.18268e-05
-4.08789e-05
6.67469e-05
-3.64724e-05
7.10255e-05
-3.15706e-05
7.4645e-05
-2.63243e-05
7.76017e-05
-2.08626e-05
7.98995e-05
-1.52912e-05
8.1545e-05
-9.69262e-06
8.25429e-05
-4.12716e-06
8.28923e-05
1.36475e-06
8.25838e-05
6.76045e-06
8.15969e-05
1.20519e-05
7.98988e-05
1.72453e-05
7.74435e-05
2.23606e-05
7.41724e-05
2.74337e-05
7.00152e-05
3.25205e-05
6.48928e-05
3.77024e-05
5.87219e-05
4.30887e-05
5.14232e-05
4.88081e-05
4.29362e-05
5.4974e-05
3.32428e-05
6.16105e-05
2.24047e-05
6.8541e-05
1.06088e-05
7.52766e-05
-1.79285e-06
8.09856e-05
-1.4275e-05
8.46127e-05
-2.62026e-05
8.51748e-05
-3.69515e-05
8.21628e-05
-4.60334e-05
7.56589e-05
-5.31786e-05
6.62755e-05
-5.83492e-05
5.49427e-05
-6.16883e-05
4.26511e-05
-6.34388e-05
3.02444e-05
-6.38641e-05
1.83141e-05
-6.31936e-05
7.19287e-06
-6.15987e-05
-2.98613e-06
-5.91922e-05
-1.22093e-05
-5.60449e-05
-2.05074e-05
-5.2207e-05
-2.79019e-05
-4.77293e-05
-3.43764e-05
-4.26804e-05
-3.98687e-05
-3.71608e-05
-4.42749e-05
-3.13116e-05
-4.74616e-05
-2.53185e-05
-4.92803e-05
-1.94104e-05
-4.95797e-05
-1.38514e-05
-4.8211e-05
-8.9257e-06
-4.50205e-05
-4.9105e-06
-3.98234e-05
-2.03537e-06
-3.23548e-05
-4.19628e-07
-2.22058e-05
-8.74931e-06
7.45378e-07
-8.67533e-06
2.99351e-06
-2.27038e-05
6.63894e-06
-3.38874e-05
1.14742e-05
-4.26131e-05
1.72259e-05
-4.91135e-05
2.35944e-05
-5.35504e-05
3.02859e-05
-5.60652e-05
3.70344e-05
-5.68128e-05
4.36156e-05
-5.59746e-05
4.98522e-05
-5.37573e-05
5.56134e-05
-5.03829e-05
6.08109e-05
-4.60764e-05
6.53917e-05
-4.10532e-05
6.93306e-05
-3.55095e-05
7.26224e-05
-2.96161e-05
7.52747e-05
-2.35149e-05
7.73018e-05
-1.73183e-05
7.87193e-05
-1.111e-05
7.95393e-05
-4.9472e-06
7.97672e-05
1.13687e-06
7.93977e-05
7.12998e-06
7.84121e-05
1.30375e-05
7.67763e-05
1.88811e-05
7.44396e-05
2.46973e-05
7.13342e-05
3.05391e-05
6.7377e-05
3.64777e-05
6.24732e-05
4.26062e-05
5.65237e-05
4.90383e-05
4.9437e-05
5.58948e-05
4.11495e-05
6.32615e-05
3.16544e-05
7.11056e-05
2.10414e-05
7.9154e-05
9.53907e-06
8.6779e-05
-2.45726e-06
9.29819e-05
-1.43953e-05
9.65507e-05
-2.56481e-05
9.64276e-05
-3.56387e-05
9.21534e-05
-4.39564e-05
8.39766e-05
-5.04194e-05
7.27384e-05
-5.50645e-05
5.95879e-05
-5.8081e-05
4.56676e-05
-5.97232e-05
3.18866e-05
-6.02364e-05
1.88272e-05
-5.98129e-05
6.76943e-06
-5.85791e-05
-4.21996e-06
-5.66039e-05
-1.41845e-05
-5.39199e-05
-2.31915e-05
-5.05463e-05
-3.12754e-05
-4.65101e-05
-3.84127e-05
-4.18624e-05
-4.45163e-05
-3.66921e-05
-4.94452e-05
-3.1133e-05
-5.30207e-05
-2.53675e-05
-5.50459e-05
-1.96235e-05
-5.53237e-05
-1.41654e-05
-5.36691e-05
-9.27684e-06
-4.99091e-05
-5.23412e-06
-4.38661e-05
-2.26968e-06
-3.53192e-05
-5.24049e-07
-2.39515e-05
-9.27336e-06
8.36053e-07
-9.51138e-06
3.22712e-06
-2.50949e-05
7.00119e-06
-3.76614e-05
1.19162e-05
-4.75282e-05
1.76823e-05
-5.48795e-05
2.39926e-05
-5.98607e-05
3.05522e-05
-6.26248e-05
3.70986e-05
-6.33592e-05
4.34151e-05
-6.22912e-05
4.93356e-05
-5.96778e-05
5.47428e-05
-5.57901e-05
5.95627e-05
-5.08964e-05
6.37569e-05
-4.52474e-05
6.73135e-05
-3.9066e-05
7.02391e-05
-3.25417e-05
7.25514e-05
-2.58273e-05
7.42735e-05
-1.90404e-05
7.54281e-05
-1.22646e-05
7.60337e-05
-5.55281e-06
7.61009e-05
1.0696e-06
7.56292e-05
7.60173e-06
7.46032e-05
1.40636e-05
7.29905e-05
2.04938e-05
7.07395e-05
2.69483e-05
6.77787e-05
3.34998e-05
6.4018e-05
4.02384e-05
5.93529e-05
4.72713e-05
5.36735e-05
5.47176e-05
4.68805e-05
6.26878e-05
3.89092e-05
7.12329e-05
2.97633e-05
8.02515e-05
1.95552e-05
8.93621e-05
8.54317e-06
9.7791e-05
-2.85292e-06
0.000104378
-1.40796e-05
0.000107777
-2.45444e-05
0.000106892
-3.37364e-05
0.000101345
-4.1327e-05
9.15672e-05
-4.72111e-05
7.86225e-05
-5.14779e-05
6.38546e-05
-5.4335e-05
4.85247e-05
-5.60239e-05
3.35755e-05
-5.67554e-05
1.95587e-05
-5.66774e-05
6.69138e-06
-5.58711e-05
-5.02626e-06
-5.43664e-05
-1.56892e-05
-5.21644e-05
-2.53935e-05
-4.92597e-05
-3.41801e-05
-4.56603e-05
-4.20121e-05
-4.14033e-05
-4.87733e-05
-3.65663e-05
-5.42822e-05
-3.12752e-05
-5.83119e-05
-2.57067e-05
-6.06144e-05
-2.0086e-05
-6.09444e-05
-1.46773e-05
-5.90778e-05
-9.76639e-06
-5.482e-05
-5.63556e-06
-4.7997e-05
-2.53121e-06
-3.84236e-05
-6.2771e-07
-2.5855e-05
-9.90107e-06
9.15639e-07
-1.0427e-05
3.44137e-06
-2.76206e-05
7.3407e-06
-4.15608e-05
1.23321e-05
-5.25196e-05
1.81035e-05
-6.06509e-05
2.43373e-05
-6.60946e-05
3.07369e-05
-6.90243e-05
3.70454e-05
-6.96677e-05
4.30573e-05
-6.83031e-05
4.86214e-05
-6.52419e-05
5.36375e-05
-6.08062e-05
5.80487e-05
-5.53076e-05
6.18322e-05
-4.90309e-05
6.49898e-05
-4.22237e-05
6.75391e-05
-3.50909e-05
6.95063e-05
-2.77945e-05
7.09207e-05
-2.04548e-05
7.18102e-05
-1.31541e-05
7.21975e-05
-5.94008e-06
7.20968e-05
1.17034e-06
7.15109e-05
8.1876e-06
7.04281e-05
1.51464e-05
6.88188e-05
2.21031e-05
6.66333e-05
2.91338e-05
6.38002e-05
3.63329e-05
6.02273e-05
4.38113e-05
5.5806e-05
5.16926e-05
5.04217e-05
6.01019e-05
4.3972e-05
6.91375e-05
3.63941e-05
7.88107e-05
2.77017e-05
8.8944e-05
1.80242e-05
9.90395e-05
7.6379e-06
0.000108177
-3.03145e-06
0.000115047
-1.34513e-05
0.000118197
-2.30826e-05
0.000116524
-3.14899e-05
0.000109753
-3.84231e-05
9.85004e-05
-4.38374e-05
8.40368e-05
-4.78511e-05
6.78684e-05
-5.06682e-05
5.13418e-05
-5.25009e-05
3.54082e-05
-5.35173e-05
2.05751e-05
-5.38204e-05
6.99449e-06
-5.34517e-05
-5.39496e-06
-5.24095e-05
-1.67314e-05
-5.06706e-05
-2.71323e-05
-4.82118e-05
-3.6639e-05
-4.50265e-05
-4.51973e-05
-4.11394e-05
-5.26604e-05
-3.66169e-05
-5.88048e-05
-3.15747e-05
-6.33541e-05
-2.61817e-05
-6.60074e-05
-2.06582e-05
-6.64678e-05
-1.52678e-05
-6.44681e-05
-1.0301e-05
-5.97868e-05
-6.05129e-06
-5.22467e-05
-2.7868e-06
-4.16881e-05
-7.21619e-07
-2.79202e-05
-1.06227e-05
9.82555e-07
-1.14096e-05
3.62587e-06
-3.02639e-05
7.63367e-06
-4.55686e-05
1.26836e-05
-5.75695e-05
1.84382e-05
-6.64054e-05
2.45678e-05
-7.22242e-05
3.07743e-05
-7.52308e-05
3.68087e-05
-7.57021e-05
4.24799e-05
-7.39744e-05
4.76554e-05
-7.04173e-05
5.22546e-05
-6.54054e-05
5.62398e-05
-5.92927e-05
5.96046e-05
-5.23957e-05
6.2364e-05
-4.4983e-05
6.45454e-05
-3.72723e-05
6.61818e-05
-2.9431e-05
6.73069e-05
-2.15799e-05
6.7951e-05
-1.37982e-05
6.81385e-05
-6.12756e-06
6.78851e-05
1.42373e-06
6.71955e-05
8.87717e-06
6.60603e-05
1.62816e-05
6.44529e-05
2.37106e-05
6.23263e-05
3.12603e-05
5.9612e-05
3.90473e-05
5.62192e-05
4.7204e-05
5.20404e-05
5.58714e-05
4.69613e-05
6.5181e-05
4.08815e-05
7.52174e-05
3.37434e-05
8.59488e-05
2.55704e-05
9.7117e-05
1.65038e-05
0.000108106
6.82659e-06
0.000117855
-3.04531e-06
0.000124919
-1.26175e-05
0.000127769
-2.14161e-05
0.000125322
-2.90833e-05
0.00011742
-3.54378e-05
0.000104855
-4.04781e-05
8.90771e-05
-4.43321e-05
7.17223e-05
-4.71837e-05
5.41934e-05
-4.92069e-05
3.74313e-05
-5.05255e-05
2.18938e-05
-5.12019e-05
7.67085e-06
-5.12452e-05
-5.35168e-06
-5.06301e-05
-1.73464e-05
-4.93172e-05
-2.84452e-05
-4.72702e-05
-3.86859e-05
-4.44716e-05
-4.7996e-05
-4.09343e-05
-5.61977e-05
-3.67125e-05
-6.30265e-05
-3.19096e-05
-6.8157e-05
-2.66835e-05
-7.12335e-05
-2.12473e-05
-7.1904e-05
-1.58632e-05
-6.98523e-05
-1.08275e-05
-6.48225e-05
-6.4491e-06
-5.66251e-05
-3.02246e-06
-4.51147e-05
-8.03592e-07
-3.0139e-05
-1.14263e-05
1.03749e-06
-1.24471e-05
3.77771e-06
-3.30041e-05
7.86968e-06
-4.96605e-05
1.29507e-05
-6.26506e-05
1.86575e-05
-7.21122e-05
2.46481e-05
-7.82149e-05
3.06248e-05
-8.12075e-05
3.63492e-05
-8.14265e-05
4.16477e-05
-7.9273e-05
4.64093e-05
-7.51788e-05
5.05752e-05
-6.95713e-05
5.41277e-05
-6.28452e-05
5.7077e-05
-5.53451e-05
5.94508e-05
-4.73568e-05
6.12847e-05
-3.91062e-05
6.26167e-05
-3.0763e-05
6.34826e-05
-2.24458e-05
6.39132e-05
-1.42288e-05
6.39324e-05
-6.14669e-06
6.35552e-05
1.80091e-06
6.27863e-05
9.64608e-06
6.1617e-05
1.74508e-05
6.00229e-05
2.53047e-05
5.796e-05
3.33232e-05
5.53634e-05
4.16439e-05
5.21468e-05
5.04206e-05
4.82068e-05
5.98114e-05
4.34346e-05
6.99533e-05
3.77357e-05
8.09163e-05
3.1061e-05
9.26234e-05
2.34435e-05
0.000104735
1.50317e-05
0.000116518
6.1061e-06
0.00012678
-2.94022e-06
0.000133966
-1.16626e-05
0.000136492
-1.96581e-05
0.000133318
-2.66426e-05
0.000124404
-3.24927e-05
0.000110705
-3.72338e-05
9.38182e-05
-4.09886e-05
7.54771e-05
-4.3911e-05
5.71158e-05
-4.61333e-05
3.96536e-05
-4.77379e-05
2.34983e-05
-4.87529e-05
8.68581e-06
-4.91631e-05
-4.94144e-06
-4.89277e-05
-1.75819e-05
-4.79966e-05
-2.93763e-05
-4.63254e-05
-4.03571e-05
-4.38877e-05
-5.04338e-05
-4.0685e-05
-5.94003e-05
-3.67579e-05
-6.69536e-05
-3.21947e-05
-7.27202e-05
-2.71394e-05
-7.62888e-05
-2.17951e-05
-7.72483e-05
-1.64206e-05
-7.52267e-05
-1.13189e-05
-6.99243e-05
-6.81576e-06
-6.11282e-05
-3.23495e-06
-4.86955e-05
-8.74799e-07
-3.24992e-05
-1.23011e-05
1.08187e-06
-1.35289e-05
3.89744e-06
-3.58197e-05
8.04554e-06
-5.38086e-05
1.31249e-05
-6.77299e-05
1.87473e-05
-7.77346e-05
2.45606e-05
-8.40282e-05
3.02699e-05
-8.69168e-05
3.56505e-05
-8.6807e-05
4.05494e-05
-8.41719e-05
4.48791e-05
-7.95085e-05
4.8604e-05
-7.32963e-05
5.17267e-05
-6.59678e-05
5.42731e-05
-5.78916e-05
5.62821e-05
-4.93657e-05
5.77962e-05
-4.06203e-05
5.88565e-05
-3.18233e-05
5.94991e-05
-2.30884e-05
5.97534e-05
-1.44831e-05
5.9641e-05
-6.03428e-06
5.91747e-05
2.26723e-06
5.83572e-05
1.04635e-05
5.71794e-05
1.86286e-05
5.56174e-05
2.68668e-05
5.36299e-05
3.53107e-05
5.11559e-05
4.41178e-05
4.81148e-05
5.34617e-05
4.44103e-05
6.35159e-05
3.99419e-05
7.44218e-05
3.4625e-05
8.62331e-05
2.84214e-05
9.8827e-05
2.13735e-05
0.000111782
1.36334e-05
0.000124258
5.47113e-06
0.000134942
-2.7519e-06
0.000142189
-1.06478e-05
0.000144388
-1.78847e-05
0.000140555
-2.42464e-05
0.000130766
-2.96549e-05
0.000116113
-3.41497e-05
9.8313e-05
-3.78377e-05
7.91651e-05
-4.08381e-05
6.01163e-05
-4.32424e-05
4.20579e-05
-4.50964e-05
2.53523e-05
-4.64012e-05
9.99068e-06
-4.71252e-05
-4.21753e-06
-4.7218e-05
-1.74891e-05
-4.66244e-05
-2.99699e-05
-4.52951e-05
-4.16864e-05
-4.3196e-05
-5.25328e-05
-4.03179e-05
-6.22784e-05
-3.66861e-05
-7.05855e-05
-3.23715e-05
-7.70348e-05
-2.75011e-05
-8.11593e-05
-2.22646e-05
-8.24847e-05
-1.69156e-05
-8.05757e-05
-1.1762e-05
-7.50779e-05
-7.14738e-06
-6.57428e-05
-3.42572e-06
-5.24172e-05
-9.37484e-07
-3.49874e-05
-1.32386e-05
1.11701e-06
-1.46459e-05
3.98666e-06
-3.86893e-05
8.16133e-06
-5.79833e-05
1.32036e-05
-7.27722e-05
1.8703e-05
-8.3234e-05
2.43e-05
-8.96251e-05
2.97059e-05
-9.23228e-05
3.47132e-05
-9.18142e-05
3.91922e-05
-8.86509e-05
4.30802e-05
-8.33966e-05
4.63654e-05
-7.65815e-05
4.90696e-05
-6.8672e-05
5.12333e-05
-6.00553e-05
5.29046e-05
-5.10371e-05
5.41311e-05
-4.18468e-05
5.49551e-05
-3.26473e-05
5.54118e-05
-2.35451e-05
5.55276e-05
-1.4599e-05
5.53207e-05
-5.82733e-06
5.48001e-05
2.78778e-06
5.39657e-05
1.12979e-05
5.28063e-05
1.97881e-05
5.12976e-05
2.83754e-05
4.94001e-05
3.72082e-05
4.70566e-05
4.64613e-05
4.41927e-05
5.63256e-05
4.07207e-05
6.69879e-05
3.65507e-05
7.85917e-05
3.16109e-05
9.11729e-05
2.58755e-05
0.000104562
1.93959e-05
0.000118262
1.23248e-05
0.000131329
4.91649e-06
0.000142351
-2.50569e-06
0.000149611
-9.61317e-06
0.000151495
-1.61426e-05
0.000147084
-2.19369e-05
0.000136561
-2.69531e-05
0.00012113
-3.12346e-05
0.000102595
-3.48666e-05
8.27972e-05
-3.79326e-05
6.31823e-05
-4.04863e-05
4.46116e-05
-4.2543e-05
2.7409e-05
-4.40839e-05
1.15316e-05
-4.50669e-05
-3.23461e-06
-4.54377e-05
-1.71183e-05
-4.51397e-05
-3.02679e-05
-4.41212e-05
-4.27049e-05
-4.23421e-05
-5.43119e-05
-3.97821e-05
-6.48384e-05
-3.64506e-05
-7.3917e-05
-3.23993e-05
-8.10861e-05
-2.7735e-05
-8.58235e-05
-2.26312e-05
-8.75885e-05
-1.73325e-05
-8.58744e-05
-1.21498e-05
-8.02606e-05
-7.44329e-06
-7.04493e-05
-3.59722e-06
-5.62632e-05
-9.93732e-07
-3.75909e-05
-1.42323e-05
1.14392e-06
-1.57899e-05
4.047e-06
-4.15924e-05
8.21843e-06
-6.21547e-05
1.31878e-05
-7.77416e-05
1.85256e-05
-8.85719e-05
2.38689e-05
-9.49683e-05
2.89395e-05
-9.73935e-05
3.35501e-05
-9.64247e-05
3.75964e-05
-9.26972e-05
4.10416e-05
-8.68418e-05
4.38967e-05
-7.94366e-05
4.62014e-05
-7.09767e-05
4.80087e-05
-6.18626e-05
4.93739e-05
-5.24023e-05
5.03475e-05
-4.28203e-05
5.09715e-05
-3.32714e-05
5.12786e-05
-2.38522e-05
5.12917e-05
-1.4612e-05
5.10242e-05
-5.5599e-06
5.04812e-05
3.33081e-06
4.96584e-05
1.21207e-05
4.8542e-05
2.09045e-05
4.71065e-05
2.98109e-05
4.53132e-05
3.90015e-05
4.31085e-05
4.8666e-05
4.04241e-05
5.90101e-05
3.71817e-05
7.02303e-05
3.33038e-05
8.24695e-05
2.87326e-05
9.57441e-05
2.34557e-05
0.000109839
1.75333e-05
0.000124184
1.11159e-05
0.000137747
4.43802e-06
0.000149029
-2.21786e-06
0.000156267
-8.58233e-06
0.00015786
-1.44553e-05
0.000152957
-1.97307e-05
0.000141836
-2.43908e-05
0.00012579
-2.84765e-05
0.00010668
-3.20484e-05
8.63691e-05
-3.51554e-05
6.62892e-05
-3.78183e-05
4.72746e-05
-4.00279e-05
2.96186e-05
-4.17513e-05
1.32549e-05
-4.2941e-05
-2.04491e-06
-4.35429e-05
-1.65163e-05
-4.35019e-05
-3.03089e-05
-4.27659e-05
-4.3441e-05
-4.129e-05
-5.57878e-05
-3.90435e-05
-6.70849e-05
-3.60196e-05
-7.69409e-05
-3.22492e-05
-8.48565e-05
-2.78169e-05
-9.02558e-05
-2.28762e-05
-9.25292e-05
-1.76593e-05
-9.10913e-05
-1.24766e-05
-8.54433e-05
-7.70282e-06
-7.52231e-05
-3.75116e-06
-6.02149e-05
-1.04498e-06
-4.02971e-05
-1.52773e-05
1.16322e-06
-1.69531e-05
4.0798e-06
-4.4509e-05
8.21877e-06
-6.62937e-05
1.30802e-05
-8.2603e-05
1.82198e-05
-9.37115e-05
2.32758e-05
-0.000100024
2.79845e-05
-0.000102102
3.21819e-05
-0.000100622
3.57908e-05
-9.63061e-05
3.88002e-05
-8.98512e-05
4.12425e-05
-8.18789e-05
4.31733e-05
-7.29074e-05
4.46554e-05
-6.33447e-05
4.57489e-05
-5.34957e-05
4.65052e-05
-4.35766e-05
4.69645e-05
-3.37308e-05
4.71561e-05
-2.40437e-05
4.70982e-05
-1.45541e-05
4.67997e-05
-5.26147e-06
4.62609e-05
3.86959e-06
4.54735e-05
1.29081e-05
4.44203e-05
2.19577e-05
4.30743e-05
3.1157e-05
4.13969e-05
4.06789e-05
3.93376e-05
5.07253e-05
3.68343e-05
6.15133e-05
3.38186e-05
7.32461e-05
3.02258e-05
8.60624e-05
2.60128e-05
9.99571e-05
2.1181e-05
0.000114671
1.57985e-05
0.000129567
1.00115e-05
0.000143533
4.03268e-06
0.000155007
-1.8976e-06
0.000162197
-7.56646e-06
0.000163528
-1.2831e-05
0.000158222
-1.76276e-05
0.000146633
-2.1957e-05
0.000130119
-2.58528e-05
0.000110576
-2.93507e-05
8.98669e-05
-3.24681e-05
6.94067e-05
-3.5198e-05
5.00044e-05
-3.75118e-05
3.19324e-05
-3.93674e-05
1.51106e-05
-4.07161e-05
-6.96246e-07
-4.15064e-05
-1.5726e-05
-4.16871e-05
-3.01282e-05
-4.12071e-05
-4.39209e-05
-4.00184e-05
-5.69765e-05
-3.80808e-05
-6.90225e-05
-3.53717e-05
-7.96499e-05
-3.19007e-05
-8.83276e-05
-2.77281e-05
-9.44284e-05
-2.29844e-05
-9.72729e-05
-1.78854e-05
-9.61903e-05
-1.27368e-05
-9.05919e-05
-7.92414e-06
-8.00357e-05
-3.88798e-06
-6.42511e-05
-1.09194e-06
-4.30931e-05
-1.63692e-05
1.17533e-06
-1.81284e-05
4.08623e-06
-4.74199e-05
8.16464e-06
-7.03721e-05
1.2885e-05
-8.73233e-05
1.7793e-05
-9.86196e-05
2.25326e-05
-0.000104764
2.6859e-05
-0.000106429
3.06341e-05
-0.000104397
3.38085e-05
-9.94806e-05
3.63965e-05
-9.24392e-05
3.84499e-05
-8.39323e-05
4.00372e-05
-7.44948e-05
4.12286e-05
-6.45361e-05
4.20862e-05
-5.43534e-05
4.26605e-05
-4.41509e-05
4.29886e-05
-3.40589e-05
4.30952e-05
-2.41503e-05
4.29939e-05
-1.44528e-05
4.26887e-05
-4.95634e-06
4.21753e-05
4.383e-06
4.14413e-05
1.36422e-05
4.04662e-05
2.29328e-05
3.92211e-05
3.24021e-05
3.76677e-05
4.22323e-05
3.5758e-05
5.2635e-05
3.34361e-05
6.38352e-05
3.06433e-05
7.60389e-05
2.7328e-05
8.93777e-05
2.34619e-05
0.000103823
1.90599e-05
0.000119073
1.41968e-05
0.00013443
9.01315e-06
0.000148717
3.6981e-06
0.000160323
-1.54916e-06
0.000167444
-6.56847e-06
0.000168548
-1.12674e-05
0.000162921
-1.56178e-05
0.000150983
-1.96328e-05
0.000134134
-2.33367e-05
0.00011428
-2.67415e-05
9.32717e-05
-2.98369e-05
7.25022e-05
-3.25928e-05
5.27603e-05
-3.49659e-05
3.43055e-05
-3.69087e-05
1.70533e-05
-3.83736e-05
7.68679e-07
-3.93141e-05
-1.47855e-05
-3.9684e-05
-2.97584e-05
-3.9435e-05
-4.41699e-05
-3.85173e-05
-5.78942e-05
-3.68829e-05
-7.0657e-05
-3.44942e-05
-8.20386e-05
-3.13399e-05
-9.14819e-05
-2.74547e-05
-9.83136e-05
-2.29432e-05
-0.000101784
-1.80008e-05
-0.000101133
-1.29237e-05
-9.5669e-05
-8.10418e-06
-8.48552e-05
-4.0069e-06
-6.83483e-05
-1.13472e-06
-4.59653e-05
-1.75039e-05
1.18052e-06
-1.93089e-05
4.06741e-06
-5.03068e-05
8.05868e-06
-7.43634e-05
1.26074e-05
-9.1872e-05
1.72542e-05
-0.000103266
2.16537e-05
-0.000109163
2.55836e-05
-0.000110358
2.89341e-05
-0.000107748
3.1684e-05
-0.00010223
3.3871e-05
-9.46262e-05
3.55641e-05
-8.56254e-05
3.68418e-05
-7.57726e-05
3.77785e-05
-6.54727e-05
3.84362e-05
-5.50111e-05
3.88625e-05
-4.45771e-05
3.909e-05
-3.42864e-05
3.91386e-05
-2.41989e-05
3.90169e-05
-1.43311e-05
3.87243e-05
-4.66368e-06
3.82519e-05
4.85539e-06
3.75836e-05
1.43105e-05
3.66962e-05
2.38203e-05
3.55588e-05
3.35394e-05
3.41334e-05
4.36577e-05
3.23746e-05
5.43938e-05
3.02326e-05
6.59773e-05
2.76581e-05
7.86134e-05
2.46124e-05
9.24233e-05
2.10819e-05
0.000107354
1.70937e-05
0.000123061
1.27284e-05
0.000138795
8.11932e-06
0.000153326
3.43203e-06
0.00016501
-1.17388e-06
0.00017205
-5.58632e-06
0.00017296
-9.75686e-06
0.000167091
-1.36865e-05
0.000154913
-1.73968e-05
0.000137844
-2.09018e-05
0.000117785
-2.41922e-05
9.6562e-05
-2.72341e-05
7.55441e-05
-2.99783e-05
5.55045e-05
-3.2371e-05
3.66982e-05