/*--------------------------------*- C++ -*----------------------------------*\
| =========                 |                                                 |
| \\      /  F ield         | OpenFOAM: The Open Source CFD Toolbox           |
|  \\    /   O peration     | Version:  2406                                  |
|   \\  /    A nd           | Website:  www.openfoam.com                      |
|    \\/     M anipulation  |                                                 |
\*---------------------------------------------------------------------------*/
FoamFile
{
    version     2.0;
    format      ascii;
    arch        "LSB;label=32;scalar=64";
    class       volScalarField;
    location    "15000";
    object      TotalNu;
}
// * * * * * * * * * * * * * * * * * * * * * * * * * * * * * * * * * * * * * //

dimensions      [0 0 0 0 0 0 0];

internalField   uniform 0;

boundaryField
{
    bottomwall
    {
        type            calculated;
        value           nonuniform List<scalar> 
60
(
15.4347
12.3809
10.6587
9.59676
8.89756
8.41268
8.0602
7.79164
7.5768
7.39601
7.23624
7.08913
6.94968
6.8149
6.68273
6.55145
6.41956
6.28585
6.14949
6.00998
5.86713
5.72097
5.57159
5.41881
5.26151
5.09703
4.92113
4.7292
4.51914
4.29496
4.06882
3.85875
3.68036
3.53371
3.39024
3.18714
2.83505
2.24064
1.33768
0.114657
-1.37183
-3.00389
-4.62688
-6.08218
-7.23634
-7.99742
-8.317
-8.18181
-7.60211
-6.60373
-5.22574
-3.52309
-1.56881
0.548874
2.73817
4.92642
7.09363
9.31941
11.8812
15.4822
)
;
    }
    topwall
    {
        type            calculated;
        value           nonuniform List<scalar> 
60
(
-2.06554e-07
-1.16345e-07
1.8061e-07
1.18431e-07
-1.50723e-08
-1.92899e-07
1.50182e-07
1.89137e-07
1.55317e-07
-1.98171e-07
-6.32514e-09
2.08461e-07
2.04642e-07
-3.65408e-08
1.04824e-07
-2.20527e-07
-9.5793e-08
-6.25509e-08
1.67903e-07
-2.00183e-07
-1.5231e-07
-3.49249e-08
1.83125e-07
-7.55518e-09
-1.09694e-09
1.12342e-07
-5.64695e-08
-1.64641e-07
6.98735e-08
-1.26295e-07
-2.22778e-07
-1.35086e-07
-2.16077e-08
-6.38648e-08
-1.32398e-07
8.24835e-08
-2.30146e-07
1.87692e-09
-1.17683e-07
-7.73215e-08
-2.18782e-07
-1.22953e-07
1.44949e-07
2.23768e-07
4.06597e-09
1.32894e-08
-5.80728e-08
-2.98618e-08
1.30225e-07
-9.30158e-08
1.02561e-07
-1.76428e-08
-2.31742e-07
-1.36668e-08
-1.73327e-07
8.97066e-08
2.42492e-06
-1.58085e-06
2.55865e-07
-4.96707e-07
)
;
    }
    coldwall
    {
        type            calculated;
        value           nonuniform List<scalar> 
48
(
-20.8192
-11.2787
-7.31033
-5.25112
-4.06407
-3.39537
-3.04156
-2.81666
-2.59018
-2.34368
-2.14429
-2.05762
-2.08839
-2.18997
-2.30943
-2.41906
-2.51853
-2.6216
-2.74336
-2.89302
-3.07015
-3.26331
-3.45208
-3.61281
-3.7264
-3.78479
-3.79339
-3.76881
-3.73325
-3.70796
-3.70807
-3.74029
-3.8035
-3.8914
-3.99583
-4.10955
-4.22767
-4.34774
-4.46884
-4.59049
-4.71167
-4.83041
-4.9027
-4.74983
-4.59813
-4.45752
-4.36063
-4.41976
)
;
    }
    radinlet
    {
        type            calculated;
        value           nonuniform List<scalar> 
12
(
21.8942
21.7906
21.7018
21.6328
21.5868
21.5626
21.5552
21.5598
21.5772
21.616
21.6874
21.7962
)
;
    }
    hotwall
    {
        type            calculated;
        value           nonuniform List<scalar> 
60
(
-20.6444
-11.4818
-8.04265
-6.0885
-5.00801
-4.36177
-3.9381
-3.58836
-3.27278
-3.0079
-2.82544
-2.74192
-2.74686
-2.80842
-2.89022
-2.96643
-3.02705
-3.07402
-3.11456
-3.15608
-3.204
-3.26132
-3.32875
-3.40515
-3.48809
-3.57432
-3.66051
-3.74397
-3.82341
-3.89937
-3.97407
-4.0505
-4.13123
-4.21721
-4.30739
-4.3991
-4.48912
-4.57474
-4.65454
-4.72857
-4.79801
-4.86453
-4.92954
-4.99337
-5.05466
-5.11077
-5.15958
-5.20203
-5.24278
-5.28667
-5.33244
-5.36974
-5.3845
-5.36957
-5.33041
-5.28006
-5.23341
-5.21653
-5.31033
-5.75927
)
;
    }
    frontAndback
    {
        type            empty;
    }
}


// ************************************************************************* //
