/*--------------------------------*- C++ -*----------------------------------*\
| =========                 |                                                 |
| \\      /  F ield         | OpenFOAM: The Open Source CFD Toolbox           |
|  \\    /   O peration     | Version:  2406                                  |
|   \\  /    A nd           | Website:  www.openfoam.com                      |
|    \\/     M anipulation  |                                                 |
\*---------------------------------------------------------------------------*/
FoamFile
{
    version     2.0;
    format      ascii;
    arch        "LSB;label=32;scalar=64";
    class       volScalarField;
    location    "15000";
    object      totalWallHeatFlux;
}
// * * * * * * * * * * * * * * * * * * * * * * * * * * * * * * * * * * * * * //

dimensions      [1 0 -3 0 0 0 0];

internalField   uniform 0;

boundaryField
{
    bottomwall
    {
        type            calculated;
        value           nonuniform List<scalar> 
60
(
318.082
255.147
219.657
197.772
183.363
173.37
166.106
160.572
156.144
152.419
149.126
146.094
143.22
140.443
137.719
135.014
132.296
129.54
126.73
123.855
120.911
117.899
114.82
111.672
108.43
105.041
101.416
97.4602
93.1313
88.5114
83.8511
79.522
75.8457
72.8234
69.8668
65.6813
58.4252
46.1755
27.5671
2.36287
-28.271
-61.9048
-95.3517
-125.343
-149.128
-164.812
-171.398
-168.612
-156.666
-136.091
-107.693
-72.6046
-32.3304
11.3113
56.4289
101.525
146.187
192.056
244.85
319.06
)
;
    }
    topwall
    {
        type            calculated;
        value           nonuniform List<scalar> 
60
(
-4.25671e-06
-2.39765e-06
3.72205e-06
2.44066e-06
-3.10614e-07
-3.9753e-06
3.09498e-06
3.89778e-06
3.20081e-06
-4.08395e-06
-1.3035e-07
4.29601e-06
4.2173e-06
-7.53041e-07
2.16022e-06
-4.54466e-06
-1.97412e-06
-1.28906e-06
3.46018e-06
-4.12542e-06
-3.13883e-06
-7.19739e-07
3.77388e-06
-1.55699e-07
-2.2606e-08
2.31518e-06
-1.16374e-06
-3.39295e-06
1.43997e-06
-2.60271e-06
-4.59105e-06
-2.78388e-06
-4.45296e-07
-1.31614e-06
-2.72848e-06
1.69984e-06
-4.74288e-06
3.868e-08
-2.42523e-06
-1.59346e-06
-4.50871e-06
-2.53384e-06
2.98714e-06
4.61145e-06
8.37924e-08
2.73871e-07
-1.19678e-06
-6.15399e-07
2.6837e-06
-1.91689e-06
2.1136e-06
-3.63586e-07
-4.77578e-06
-2.81649e-07
-3.57195e-06
1.84869e-06
4.99731e-05
-3.25785e-05
5.27291e-06
-1.02362e-05
)
;
    }
    coldwall
    {
        type            calculated;
        value           nonuniform List<scalar> 
48
(
-429.047
-232.434
-150.653
-108.216
-83.7532
-69.9725
-62.681
-58.0463
-53.379
-48.2989
-44.19
-42.4039
-43.038
-45.1314
-47.5932
-49.8525
-51.9024
-54.0264
-56.5357
-59.6199
-63.2702
-67.251
-71.1412
-74.4535
-76.7943
-77.9978
-78.175
-77.6685
-76.9356
-76.4144
-76.4166
-77.0806
-78.3833
-80.1948
-82.3468
-84.6905
-87.1247
-89.599
-92.0946
-94.6017
-97.099
-99.546
-101.036
-97.8854
-94.7593
-91.8614
-89.8648
-91.0834
)
;
    }
    radinlet
    {
        type            calculated;
        value           nonuniform List<scalar> 
12
(
451.199
449.066
447.236
445.814
444.865
444.366
444.214
444.309
444.668
445.467
446.939
449.181
)
;
    }
    hotwall
    {
        type            calculated;
        value           nonuniform List<scalar> 
60
(
-425.444
-236.618
-165.745
-125.473
-103.206
-89.8883
-81.1572
-73.9496
-67.4462
-61.9874
-58.2273
-56.5061
-56.6078
-57.8765
-59.5622
-61.1328
-62.382
-63.3501
-64.1855
-65.0411
-66.0288
-67.21
-68.5994
-70.1741
-71.8832
-73.6603
-75.4365
-77.1566
-78.7937
-80.3591
-81.8983
-83.4736
-85.1373
-86.9091
-88.7676
-90.6576
-92.5128
-94.2772
-95.9216
-97.4473
-98.8783
-100.249
-101.589
-102.904
-104.168
-105.324
-106.33
-107.205
-108.044
-108.949
-109.892
-110.661
-110.965
-110.657
-109.85
-108.813
-107.851
-107.503
-109.436
-118.688
)
;
    }
    frontAndback
    {
        type            empty;
    }
}


// ************************************************************************* //
