/*--------------------------------*- C++ -*----------------------------------*\
| =========                 |                                                 |
| \\      /  F ield         | OpenFOAM: The Open Source CFD Toolbox           |
|  \\    /   O peration     | Version:  2406                                  |
|   \\  /    A nd           | Website:  www.openfoam.com                      |
|    \\/     M anipulation  |                                                 |
\*---------------------------------------------------------------------------*/
FoamFile
{
    version     2.0;
    format      ascii;
    arch        "LSB;label=32;scalar=64";
    class       volVectorField;
    location    "15000";
    object      U;
}
// * * * * * * * * * * * * * * * * * * * * * * * * * * * * * * * * * * * * * //

dimensions      [0 1 -1 0 0 0 0];

internalField   nonuniform List<vector> 
3600
(
(0.000732056 -0.000719404 0)
(0.0025165 -0.000678516 0)
(0.00437128 -0.000447755 0)
(0.00589859 -0.000315302 0)
(0.00731999 -0.000275952 0)
(0.0087345 -0.000285367 0)
(0.0101913 -0.000310094 0)
(0.0116916 -0.000330499 0)
(0.0132053 -0.000337074 0)
(0.0146872 -0.000326513 0)
(0.0160869 -0.000299148 0)
(0.0173559 -0.000257398 0)
(0.018453 -0.000204774 0)
(0.0193464 -0.000145182 0)
(0.0200149 -8.24329e-05 0)
(0.0204482 -1.99145e-05 0)
(0.0206456 3.9573e-05 0)
(0.0206148 9.38232e-05 0)
(0.0203706 0.000141251 0)
(0.0199328 0.000180923 0)
(0.0193249 0.0002123 0)
(0.0185728 0.000235128 0)
(0.0177036 0.000249401 0)
(0.016745 0.000255387 0)
(0.0157231 0.000253816 0)
(0.0146609 0.000246201 0)
(0.0135754 0.000235196 0)
(0.0124735 0.000224749 0)
(0.0113486 0.000219729 0)
(0.010179 0.000224821 0)
(0.00892921 0.00024284 0)
(0.00755754 0.000273183 0)
(0.00602676 0.000311583 0)
(0.00431509 0.000351959 0)
(0.00242103 0.000390035 0)
(0.000358673 0.000425873 0)
(-0.00185236 0.00046435 0)
(-0.00419351 0.000511685 0)
(-0.00664413 0.000569468 0)
(-0.00917116 0.00063161 0)
(-0.0117187 0.000685815 0)
(-0.0142052 0.00071783 0)
(-0.0165309 0.000716216 0)
(-0.0185911 0.000675559 0)
(-0.0202918 0.000597251 0)
(-0.0215617 0.000488129 0)
(-0.0223572 0.000357877 0)
(-0.0226636 0.000216458 0)
(-0.0224906 7.31556e-05 0)
(-0.0218681 -6.47043e-05 0)
(-0.0208401 -0.000191938 0)
(-0.0194596 -0.000304905 0)
(-0.0177837 -0.000401477 0)
(-0.0158686 -0.000482067 0)
(-0.013762 -0.000552146 0)
(-0.0114908 -0.000626053 0)
(-0.00904974 -0.000729241 0)
(-0.00641139 -0.000891011 0)
(-0.00344468 -0.00108213 0)
(-0.0009221 -0.000937176 0)
(0.000722885 -0.00255165 0)
(0.00333797 -0.00331349 0)
(0.00712099 -0.00308163 0)
(0.0109512 -0.00283645 0)
(0.014831 -0.00274625 0)
(0.0187552 -0.00276852 0)
(0.0227301 -0.00282714 0)
(0.0267301 -0.00286033 0)
(0.0306945 -0.00282938 0)
(0.0345398 -0.00271562 0)
(0.0381721 -0.00251547 0)
(0.0414986 -0.00223589 0)
(0.0444357 -0.00189058 0)
(0.0469147 -0.00149688 0)
(0.0488848 -0.00107337 0)
(0.0503142 -0.000638043 0)
(0.0511897 -0.000207194 0)
(0.0515154 0.000205242 0)
(0.0513099 0.000588101 0)
(0.0506047 0.000933049 0)
(0.0494411 0.00123427 0)
(0.0478671 0.00148804 0)
(0.0459354 0.00169275 0)
(0.0437 0.0018492 0)
(0.0412137 0.00196136 0)
(0.038523 0.00203766 0)
(0.0356629 0.00209236 0)
(0.0326498 0.00214609 0)
(0.0294748 0.00222444 0)
(0.0260992 0.00235323 0)
(0.0224559 0.00255099 0)
(0.0184601 0.00282086 0)
(0.0140298 0.00314659 0)
(0.00911003 0.00349682 0)
(0.00369212 0.00383766 0)
(-0.00217926 0.00414433 0)
(-0.00840936 0.00440517 0)
(-0.0148657 0.0046126 0)
(-0.021383 0.00474938 0)
(-0.0277664 0.00478358 0)
(-0.0337983 0.00467652 0)
(-0.0392564 0.00439719 0)
(-0.0439359 0.00393464 0)
(-0.0476709 0.00330256 0)
(-0.0503486 0.00253585 0)
(-0.0519134 0.00168186 0)
(-0.0523635 0.000790488 0)
(-0.0517414 -9.2617e-05 0)
(-0.0501274 -0.000929776 0)
(-0.0476264 -0.0016927 0)
(-0.0443592 -0.00236306 0)
(-0.0404543 -0.00293117 0)
(-0.03604 -0.00339627 0)
(-0.0312354 -0.0037688 0)
(-0.0261428 -0.00407384 0)
(-0.0208415 -0.00435196 0)
(-0.0154022 -0.00464496 0)
(-0.00994448 -0.00493414 0)
(-0.00460671 -0.00493339 0)
(-0.000983171 -0.00342958 0)
(0.000411272 -0.0043973 0)
(0.0028045 -0.00705125 0)
(0.00714727 -0.00765208 0)
(0.0121734 -0.00774293 0)
(0.017643 -0.00780985 0)
(0.0233656 -0.00792657 0)
(0.0292308 -0.00803223 0)
(0.0351409 -0.00804556 0)
(0.0409885 -0.0079042 0)
(0.0466573 -0.00757385 0)
(0.0520274 -0.00704636 0)
(0.0569833 -0.00633408 0)
(0.0614207 -0.00546375 0)
(0.0652516 -0.00447077 0)
(0.0684074 -0.00339444 0)
(0.07084 -0.00227432 0)
(0.0725221 -0.00114751 0)
(0.0734458 -4.69998e-05 0)
(0.0736208 0.000998896 0)
(0.0730725 0.00196773 0)
(0.0718395 0.00284288 0)
(0.0699702 0.00361295 0)
(0.0675201 0.0042719 0)
(0.0645484 0.00481984 0)
(0.061114 0.0052647 0)
(0.0572705 0.00562478 0)
(0.0530592 0.00593159 0)
(0.0485013 0.00623126 0)
(0.0435888 0.00658196 0)
(0.0382776 0.00704468 0)
(0.0324877 0.00766682 0)
(0.0261147 0.00846237 0)
(0.0190564 0.00939796 0)
(0.0112501 0.010395 0)
(0.00270845 0.0113513 0)
(-0.00645868 0.0121668 0)
(-0.0160396 0.0127623 0)
(-0.0257455 0.0130752 0)
(-0.0352345 0.0130466 0)
(-0.0441458 0.012621 0)
(-0.0521352 0.0117614 0)
(-0.0589118 0.0104679 0)
(-0.0642635 0.00878579 0)
(-0.0680683 0.00679992 0)
(-0.0702896 0.0046188 0)
(-0.0709627 0.00235618 0)
(-0.0701749 0.000116265 0)
(-0.0680526 -0.00201277 0)
(-0.0647468 -0.0039627 0)
(-0.0604205 -0.00568788 0)
(-0.0552438 -0.00716117 0)
(-0.0493886 -0.0083722 0)
(-0.0430239 -0.00932754 0)
(-0.0363113 -0.0100518 0)
(-0.0294047 -0.0105859 0)
(-0.0224567 -0.0109727 0)
(-0.0156512 -0.0112087 0)
(-0.00928275 -0.0111098 0)
(-0.00371106 -0.0099941 0)
(-0.00057598 -0.00596628 0)
(0.000171276 -0.00564072 0)
(0.00210756 -0.0104324 0)
(0.00629402 -0.0124628 0)
(0.0116833 -0.0134249 0)
(0.0179328 -0.0140147 0)
(0.0247154 -0.0144347 0)
(0.0318026 -0.0146835 0)
(0.0390093 -0.0147004 0)
(0.0461698 -0.0144278 0)
(0.0531304 -0.0138337 0)
(0.059748 -0.0129154 0)
(0.0658925 -0.0116956 0)
(0.0714501 -0.0102158 0)
(0.0763248 -0.0085296 0)
(0.0804406 -0.006696 0)
(0.0837413 -0.00477482 0)
(0.0861898 -0.00282292 0)
(0.0877671 -0.000891668 0)
(0.0884707 0.000973992 0)
(0.0883118 0.00273676 0)
(0.0873154 0.00436768 0)
(0.0855165 0.00584593 0)
(0.0829577 0.00715914 0)
(0.0796865 0.00830471 0)
(0.0757518 0.00929246 0)
(0.0711986 0.0101485 0)
(0.0660622 0.0109199 0)
(0.06036 0.0116772 0)
(0.0540819 0.0125115 0)
(0.0471828 0.0135214 0)
(0.0395813 0.0147863 0)
(0.0311724 0.0163318 0)
(0.0218593 0.0180995 0)
(0.0116025 0.0199418 0)
(0.000469122 0.0216508 0)
(-0.0113288 0.0230015 0)
(-0.0234325 0.0238047 0)
(-0.0353847 0.0239232 0)
(-0.0466843 0.0232678 0)
(-0.0568541 0.0218029 0)
(-0.0655 0.0195586 0)
(-0.0723513 0.016635 0)
(-0.0772727 0.0131897 0)
(-0.0802503 0.00941226 0)
(-0.0813635 0.00549487 0)
(-0.080752 0.00161009 0)
(-0.0785867 -0.00209988 0)
(-0.0750594 -0.00552525 0)
(-0.0703581 -0.00859026 0)
(-0.0646719 -0.0112462 0)
(-0.0581891 -0.0134653 0)
(-0.0510983 -0.0152386 0)
(-0.0435902 -0.0165753 0)
(-0.0358595 -0.0175013 0)
(-0.0281109 -0.0180499 0)
(-0.0205722 -0.0182337 0)
(-0.0135249 -0.0179719 0)
(-0.00736692 -0.0169231 0)
(-0.00251608 -0.0141514 0)
(-0.000225252 -0.00756104 0)
(4.44407e-05 -0.00650649 0)
(0.00160207 -0.0133935 0)
(0.00542741 -0.017158 0)
(0.0107601 -0.0193807 0)
(0.0172606 -0.020825 0)
(0.0245416 -0.0217805 0)
(0.0322954 -0.0223113 0)
(0.040265 -0.0223984 0)
(0.0482303 -0.0220116 0)
(0.0560009 -0.021139 0)
(0.0634116 -0.0197964 0)
(0.070321 -0.0180252 0)
(0.0766105 -0.0158867 0)
(0.0821836 -0.0134539 0)
(0.0869647 -0.0108058 0)
(0.0908971 -0.00802086 0)
(0.0939413 -0.00517334 0)
(0.0960727 -0.00233051 0)
(0.0972802 0.000449023 0)
(0.0975617 0.00311534 0)
(0.0969262 0.00562848 0)
(0.0953899 0.00795913 0)
(0.0929749 0.0100888 0)
(0.0897072 0.0120115 0)
(0.085614 0.0137376 0)
(0.0807202 0.0152986 0)
(0.0750435 0.0167539 0)
(0.0685876 0.0181948 0)
(0.0613341 0.0197415 0)
(0.0532355 0.0215264 0)
(0.044215 0.0236568 0)
(0.0341812 0.0261619 0)
(0.0230647 0.0289433 0)
(0.0108778 0.0317566 0)
(-0.00222941 0.0342497 0)
(-0.0159175 0.0360306 0)
(-0.029676 0.0367776 0)
(-0.0428996 0.0362851 0)
(-0.0549781 0.0344751 0)
(-0.0653918 0.0313983 0)
(-0.0737782 0.027224 0)
(-0.079958 0.0222104 0)
(-0.0839192 0.0166598 0)
(-0.0857747 0.0108715 0)
(-0.0857121 0.00510679 0)
(-0.0839496 -0.00042744 0)
(-0.0807116 -0.00557769 0)
(-0.0762077 -0.0102386 0)
(-0.0706319 -0.0143428 0)
(-0.0641694 -0.017846 0)
(-0.0570036 -0.0207211 0)
(-0.0493234 -0.022955 0)
(-0.04133 -0.0245483 0)
(-0.033243 -0.0255115 0)
(-0.0253086 -0.0258516 0)
(-0.0178102 -0.0255355 0)
(-0.0110851 -0.0244094 0)
(-0.00555622 -0.0220338 0)
(-0.00159795 -0.0173931 0)
(-1.83895e-05 -0.008507 0)
(3.82189e-06 -0.00715928 0)
(0.00134849 -0.0159932 0)
(0.00487438 -0.0215844 0)
(0.0100339 -0.02528 0)
(0.0165337 -0.0278033 0)
(0.0239781 -0.0294769 0)
(0.0320203 -0.0304141 0)
(0.0403569 -0.0306423 0)
(0.0487277 -0.0301707 0)
(0.056913 -0.0290217 0)
(0.0647299 -0.0272416 0)
(0.0720289 -0.0249 0)
(0.0786908 -0.0220833 0)
(0.0846234 -0.0188878 0)
(0.0897572 -0.0154127 0)
(0.0940417 -0.0117539 0)
(0.0974419 -0.00800044 0)
(0.0999349 -0.00423163 0)
(0.101506 -0.00051567 0)
(0.102148 0.00309 0)
(0.101856 0.00653889 0)
(0.100629 0.00979653 0)
(0.098467 0.0128409 0)
(0.0953726 0.0156645 0)
(0.0913457 0.018278 0)
(0.0863839 0.0207172 0)
(0.080479 0.0230502 0)
(0.0736128 0.0253838 0)
(0.0657513 0.0278602 0)
(0.0568409 0.0306362 0)
(0.0468112 0.0338353 0)
(0.0355936 0.0374751 0)
(0.0231625 0.0413946 0)
(0.00960173 0.0452231 0)
(-0.00483855 0.0484303 0)
(-0.0196851 0.0504299 0)
(-0.0342945 0.0507696 0)
(-0.0479577 0.049211 0)
(-0.0600208 0.0457502 0)
(-0.0699939 0.0405982 0)
(-0.0776079 0.0341243 0)
(-0.0828114 0.0267786 0)
(-0.0857233 0.0190111 0)
(-0.0865651 0.0112106 0)
(-0.0855977 0.00367574 0)
(-0.083077 -0.00338548 0)
(-0.0792356 -0.00983893 0)
(-0.0742674 -0.015604 0)
(-0.0683453 -0.0206296 0)
(-0.0616311 -0.0248776 0)
(-0.05429 -0.0283162 0)
(-0.046502 -0.0309187 0)
(-0.0384717 -0.0326634 0)
(-0.0304352 -0.0335314 0)
(-0.0226662 -0.0334921 0)
(-0.0154804 -0.0324669 0)
(-0.00923487 -0.0302519 0)
(-0.00433263 -0.0263771 0)
(-0.00107266 -0.0198783 0)
(6.61548e-05 -0.00904742 0)
(1.6103e-05 -0.00774994 0)
(0.0013029 -0.018402 0)
(0.00468152 -0.0258091 0)
(0.00971044 -0.0310576 0)
(0.0161437 -0.0347739 0)
(0.0235981 -0.0372719 0)
(0.0317136 -0.0386939 0)
(0.0401624 -0.0391089 0)
(0.04866 -0.0385702 0)
(0.0569678 -0.037143 0)
(0.064892 -0.0349135 0)
(0.07228 -0.0319871 0)
(0.079016 -0.0284816 0)
(0.0850155 -0.0245203 0)
(0.0902195 -0.0202239 0)
(0.0945885 -0.0157054 0)
(0.0980975 -0.0110664 0)
(0.100731 -0.00639473 0)
(0.102478 -0.00176416 0)
(0.10333 0.0027655 0)
(0.103276 0.00714721 0)
(0.102305 0.0113466 0)
(0.100398 0.0153429 0)
(0.0975366 0.0191305 0)
(0.0936932 0.0227234 0)
(0.088837 0.0261618 0)
(0.0829301 0.029521 0)
(0.075927 0.032918 0)
(0.0677728 0.0365082 0)
(0.0584037 0.0404604 0)
(0.0477555 0.0448969 0)
(0.0357865 0.0498019 0)
(0.0225242 0.0549254 0)
(0.00813299 0.0597423 0)
(-0.00703307 0.063519 0)
(-0.0223797 0.0654688 0)
(-0.0371686 0.0650352 0)
(-0.0506412 0.0620008 0)
(-0.0621633 0.0565064 0)
(-0.071329 0.0489854 0)
(-0.0779929 0.040045 0)
(-0.0822346 0.0303312 0)
(-0.084281 0.0204194 0)
(-0.0844236 0.0107515 0)
(-0.0829525 0.00162444 0)
(-0.0801208 -0.00678505 0)
(-0.0761325 -0.0143844 0)
(-0.0711457 -0.0211266 0)
(-0.0652963 -0.0269777 0)
(-0.0587139 -0.0319008 0)
(-0.0515403 -0.0358506 0)
(-0.0439431 -0.0387746 0)
(-0.0361258 -0.0406173 0)
(-0.0283339 -0.0413201 0)
(-0.0208566 -0.0408108 0)
(-0.0140237 -0.0389716 0)
(-0.0081924 -0.0355749 0)
(-0.00373318 -0.0301693 0)
(-0.000878465 -0.0219142 0)
(7.09899e-05 -0.00941793 0)
(5.5212e-05 -0.00837863 0)
(0.00139536 -0.0207804 0)
(0.00477462 -0.0299567 0)
(0.00976745 -0.036758 0)
(0.0161585 -0.0416955 0)
(0.0235778 -0.045052 0)
(0.0316636 -0.0469828 0)
(0.0400782 -0.0475922 0)
(0.0485249 -0.0469788 0)
(0.0567567 -0.0452557 0)
(0.0645761 -0.0425552 0)
(0.071833 -0.0390248 0)
(0.0784188 -0.0348192 0)
(0.0842602 -0.0300913 0)
(0.0893112 -0.0249854 0)
(0.093546 -0.0196314 0)
(0.0969527 -0.014142 0)
(0.0995265 -0.00861097 0)
(0.101265 -0.00311364 0)
(0.102165 0.00229219 0)
(0.102215 0.00756429 0)
(0.101398 0.0126743 0)
(0.0996858 0.0176085 0)
(0.0970422 0.0223687 0)
(0.0934189 0.0269762 0)
(0.0887583 0.0314784 0)
(0.082994 0.0359578 0)
(0.0760522 0.0405381 0)
(0.0678546 0.0453798 0)
(0.0583249 0.050649 0)
(0.0474031 0.056447 0)
(0.0350757 0.062699 0)
(0.0214253 0.0690394 0)
(0.00669544 0.0747647 0)
(-0.00866399 0.0789252 0)
(-0.023968 0.0805496 0)
(-0.0384281 0.0790192 0)
(-0.0512908 0.0741998 0)
(-0.0619896 0.0664385 0)
(-0.0702311 0.0564332 0)
(-0.0759959 0.0450379 0)
(-0.0794711 0.0330753 0)
(-0.0809536 0.021208 0)
(-0.0807612 0.00988892 0)
(-0.0791737 -0.000621225 0)
(-0.0764114 -0.0102014 0)
(-0.0726297 -0.0188116 0)
(-0.0679412 -0.0264386 0)
(-0.0624399 -0.0330607 0)
(-0.0562223 -0.0386338 0)
(-0.0494072 -0.0430882 0)
(-0.0421493 -0.0463352 0)
(-0.0346489 -0.0482756 0)
(-0.0271555 -0.0488046 0)
(-0.0199657 -0.0478075 0)
(-0.0134136 -0.0451359 0)
(-0.00784966 -0.0405572 0)
(-0.00361786 -0.0336674 0)
(-0.000907562 -0.0237729 0)
(3.32815e-05 -0.00977866 0)
(0.000103615 -0.0091006 0)
(0.00156107 -0.0232429 0)
(0.00504644 -0.0341416 0)
(0.01009 -0.0424555 0)
(0.0164872 -0.0485878 0)
(0.0238727 -0.0527819 0)
(0.0318858 -0.0551984 0)
(0.0401857 -0.0559734 0)
(0.0484729 -0.0552511 0)
(0.0564995 -0.0531958 0)
(0.0640718 -0.0499907 0)
(0.0710474 -0.0458301 0)
(0.0773289 -0.0409088 0)
(0.0828564 -0.0354121 0)
(0.0875985 -0.029509 0)
(0.0915444 -0.023346 0)
(0.0946957 -0.0170458 0)
(0.0970601 -0.0107061 0)
(0.0986457 -0.00440099 0)
(0.0994561 0.00181719 0)
(0.0994855 0.00791527 0)
(0.0987163 0.0138761 0)
(0.0971172 0.0196986 0)
(0.0946411 0.0253976 0)
(0.0912251 0.0310072 0)
(0.0867912 0.0365863 0)
(0.0812488 0.0422264 0)
(0.0744987 0.0480562 0)
(0.0664403 0.0542341 0)
(0.0569842 0.06091 0)
(0.046074 0.0681433 0)
(0.0337226 0.0757752 0)
(0.0200638 0.0832994 0)
(0.00541119 0.0898182 0)
(-0.009709 0.0941666 0)
(-0.0245588 0.0952209 0)
(-0.0383444 0.0923505 0)
(-0.0503617 0.0855617 0)
(-0.0601408 0.0754524 0)
(-0.0675056 0.0630014 0)
(-0.0725433 0.0492959 0)
(-0.0755129 0.0352988 0)
(-0.0767396 0.0217174 0)
(-0.0765305 0.00897829 0)
(-0.0751281 -0.00272033 0)
(-0.0727011 -0.0133264 0)
(-0.0693522 -0.022853 0)
(-0.0651472 -0.0313152 0)
(-0.060141 -0.038696 0)
(-0.0544006 -0.0449337 0)
(-0.0480241 -0.0499246 0)
(-0.0411546 -0.0535347 0)
(-0.033988 -0.0556139 0)
(-0.026774 -0.0560071 0)
(-0.019812 -0.0545573 0)
(-0.0134367 -0.0510913 0)
(-0.00799259 -0.0453826 0)
(-0.0038103 -0.0370851 0)
(-0.00106029 -0.0256473 0)
(-2.09382e-05 -0.010221 0)
(0.000151012 -0.00993721 0)
(0.0017519 -0.0258542 0)
(0.00540105 -0.0384406 0)
(0.0105517 -0.0482118 0)
(0.0169929 -0.0554808 0)
(0.0243541 -0.0604552 0)
(0.0322733 -0.0632997 0)
(0.0404098 -0.0641823 0)
(0.048467 -0.0632948 0)
(0.056203 -0.060856 0)
(0.0634339 -0.0571038 0)
(0.0700299 -0.0522821 0)
(0.0759083 -0.0466279 0)
(0.0810246 -0.0403603 0)
(0.0853627 -0.0336725 0)
(0.0889261 -0.0267276 0)
(0.0917294 -0.0196567 0)
(0.0937921 -0.01256 0)
(0.0951321 -0.00550823 0)
(0.0957612 0.00145392 0)
(0.0956802 0.00830518 0)
(0.094875 0.0150434 0)
(0.093315 0.0216845 0)
(0.0909495 0.0282616 0)
(0.0877073 0.0348268 0)
(0.0834972 0.0414554 0)
(0.0782111 0.0482509 0)
(0.0717297 0.0553472 0)
(0.0639343 0.0628949 0)
(0.0547244 0.0710157 0)
(0.0440472 0.0797084 0)
(0.031939 0.0887075 0)
(0.0185774 0.0973463 0)
(0.00433081 0.104526 0)
(-0.0102241 0.108881 0)
(-0.0243345 0.109176 0)
(-0.0372405 0.104818 0)
(-0.0483172 0.0959992 0)
(-0.0572017 0.0835912 0)
(-0.0638224 0.0688471 0)
(-0.0683426 0.0530565 0)
(-0.0710555 0.0372809 0)
(-0.0722794 0.0222324 0)
(-0.0722843 0.00828273 0)
(-0.0712609 -0.00444691 0)
(-0.0693217 -0.0159757 0)
(-0.06652 -0.0263645 0)
(-0.0628798 -0.035649 0)
(-0.0584231 -0.0438071 0)
(-0.0531925 -0.050751 0)
(-0.0472691 -0.0563351 0)
(-0.0407847 -0.0603732 0)
(-0.0339292 -0.062659 0)
(-0.0269503 -0.0629842 0)
(-0.0201472 -0.061149 0)
(-0.0138547 -0.0569579 0)
(-0.0084162 -0.0501941 0)
(-0.00416222 -0.0405681 0)
(-0.00126403 -0.0276508 0)
(-7.61877e-05 -0.0107846 0)
(0.000192519 -0.0108883 0)
(0.00193805 -0.0286381 0)
(0.00577012 -0.0428907 0)
(0.0110516 -0.0540605 0)
(0.0175527 -0.0623921 0)
(0.0248888 -0.0680665 0)
(0.0326937 -0.071258 0)
(0.0406282 -0.0721701 0)
(0.0484024 -0.0710464 0)
(0.0557862 -0.0681639 0)
(0.0626108 -0.063818 0)
(0.0687634 -0.0583045 0)
(0.0741792 -0.051903 0)
(0.0788304 -0.0448659 0)
(0.0827161 -0.0374096 0)
(0.0858529 -0.0297118 0)
(0.0882669 -0.0219109 0)
(0.0899868 -0.0141078 0)
(0.0910387 -0.00636887 0)
(0.0914413 0.0012706 0)
(0.0912013 0.00880261 0)
(0.0903097 0.0162421 0)
(0.0887391 0.023625 0)
(0.0864395 0.0310064 0)
(0.0833372 0.0384607 0)
(0.0793344 0.0460839 0)
(0.0743126 0.0539956 0)
(0.0681397 0.0623351 0)
(0.0606844 0.0712418 0)
(0.0518395 0.0807995 0)
(0.0415567 0.0909307 0)
(0.0298922 0.101246 0)
(0.0170582 0.110904 0)
(0.00345973 0.11861 0)
(-0.0103038 0.122819 0)
(-0.023499 0.12223 0)
(-0.035429 0.116331 0)
(-0.0455642 0.105528 0)
(-0.0536443 0.0909678 0)
(-0.0596796 0.0741542 0)
(-0.0638768 0.0565395 0)
(-0.0665303 0.0392434 0)
(-0.0679262 0.0229515 0)
(-0.0682835 0.00796374 0)
(-0.0677368 -0.00568048 0)
(-0.0663471 -0.0180664 0)
(-0.0641252 -0.0292944 0)
(-0.0610618 -0.0394117 0)
(-0.0571534 -0.0483832 0)
(-0.052423 -0.0560881 0)
(-0.0469368 -0.0623335 0)
(-0.0408152 -0.0668765 0)
(-0.0342398 -0.0694511 0)
(-0.0274535 -0.0697926 0)
(-0.0207536 -0.0676567 0)
(-0.0144761 -0.062824 0)
(-0.00896847 -0.0550852 0)
(-0.00457263 -0.0441997 0)
(-0.0014748 -0.0298363 0)
(-0.000125065 -0.0114771 0)
(0.000226793 -0.0119426 0)
(0.0021046 -0.0315923 0)
(0.00611312 -0.0474983 0)
(0.0115232 -0.060008 0)
(0.0180782 -0.0693196 0)
(0.0253733 -0.0756002 0)
(0.0330358 -0.0790428 0)
(0.040729 -0.0798939 0)
(0.0481736 -0.0784548 0)
(0.055156 -0.0750655 0)
(0.0615269 -0.0700813 0)
(0.0671947 -0.0638502 0)
(0.0721144 -0.0566942 0)
(0.0762762 -0.0488964 0)
(0.0796938 -0.0406942 0)
(0.0823955 -0.0322775 0)
(0.0844161 -0.0237898 0)
(0.0857912 -0.0153309 0)
(0.0865518 -0.00696157 0)
(0.0867215 0.0012927 0)
(0.0863113 0.00943774 0)
(0.0853161 0.0175064 0)
(0.0837126 0.0255557 0)
(0.081454 0.0336647 0)
(0.0784678 0.0419333 0)
(0.0746552 0.0504817 0)
(0.0698939 0.059448 0)
(0.0640458 0.0689784 0)
(0.0569741 0.0791987 0)
(0.0485697 0.0901474 0)
(0.0387909 0.101659 0)
(0.0277109 0.113208 0)
(0.0155656 0.123776 0)
(0.00277905 0.131879 0)
(-0.0100529 0.135828 0)
(-0.0222433 0.134294 0)
(-0.0331773 0.126882 0)
(-0.0424246 0.114221 0)
(-0.049814 0.097717 0)
(-0.055412 0.0790908 0)
(-0.0594394 0.0599163 0)
(-0.0621671 0.0413364 0)
(-0.0638344 0.0239893 0)
(-0.0646045 0.00809614 0)
(-0.0645598 -0.00638177 0)
(-0.0637183 -0.0195869 0)
(-0.0620579 -0.0316496 0)
(-0.0595446 -0.0426205 0)
(-0.056156 -0.0524459 0)
(-0.0518995 -0.0609681 0)
(-0.046827 -0.0679441 0)
(-0.0410462 -0.0730721 0)
(-0.0347274 -0.0760235 0)
(-0.0281055 -0.0764738 0)
(-0.0214743 -0.0741299 0)
(-0.0151719 -0.0687441 0)
(-0.00955447 -0.0601081 0)
(-0.004984 -0.0480184 0)
(-0.00167114 -0.0322186 0)
(-0.00016543 -0.0122897 0)
(0.000254398 -0.013085 0)
(0.00224645 -0.0346995 0)
(0.00641029 -0.0522491 0)
(0.011929 -0.0660401 0)
(0.0185147 -0.0762435 0)
(0.0257392 -0.083028 0)
(0.0332221 -0.0866171 0)
(0.0406316 -0.0873106 0)
(0.0477024 -0.0854751 0)
(0.0542414 -0.0815179 0)
(0.0601231 -0.0758568 0)
(0.0652798 -0.0688915 0)
(0.0696882 -0.0609838 0)
(0.0733564 -0.0524443 0)
(0.0763119 -0.0435279 0)
(0.0785929 -0.0344331 0)
(0.0802405 -0.0253056 0)
(0.081294 -0.0162427 0)
(0.0817871 -0.00729823 0)
(0.0817449 0.00151254 0)
(0.0811802 0.010209 0)
(0.0800905 0.0188413 0)
(0.0784557 0.0274879 0)
(0.0762327 0.0362522 0)
(0.0733524 0.0452608 0)
(0.0697188 0.0546598 0)
(0.0652109 0.0646076 0)
(0.0596913 0.0752584 0)
(0.0530237 0.0867223 0)
(0.045103 0.0989877 0)
(0.0358962 0.111794 0)
(0.0254906 0.124473 0)
(0.0141365 0.135834 0)
(0.00226004 0.144219 0)
(-0.00956836 0.14783 0)
(-0.0207275 0.145348 0)
(-0.0306938 0.136512 0)
(-0.0391316 0.122171 0)
(-0.0459412 0.103965 0)
(-0.0512213 0.0837896 0)
(-0.0551836 0.0633022 0)
(-0.0580599 0.0436428 0)
(-0.0600362 0.0253914 0)
(-0.061223 0.0086912 0)
(-0.0616576 -0.00656566 0)
(-0.0613253 -0.0205683 0)
(-0.060181 -0.033468 0)
(-0.0581736 -0.0453133 0)
(-0.0552674 -0.0560282 0)
(-0.0514563 -0.0654175 0)
(-0.0467779 -0.0731879 0)
(-0.0413247 -0.0789781 0)
(-0.0352524 -0.0823945 0)
(-0.0287844 -0.0830491 0)
(-0.0222086 -0.0805937 0)
(-0.0158656 -0.0747445 0)
(-0.0101233 -0.0652845 0)
(-0.0053698 -0.0520343 0)
(-0.00184611 -0.0347922 0)
(-0.000197971 -0.0132079 0)
(0.000276611 -0.0143002 0)
(0.00236368 -0.0379359 0)
(0.00665453 -0.057117 0)
(0.0122511 -0.072128 0)
(0.0188326 -0.0831307 0)
(0.0259466 -0.0903115 0)
(0.0332066 -0.0939385 0)
(0.0402878 -0.0943766 0)
(0.046943 -0.092066 0)
(0.0530034 -0.0874867 0)
(0.0583704 -0.0811195 0)
(0.0630021 -0.0734146 0)
(0.0668973 -0.0647697 0)
(0.0700817 -0.0555189 0)
(0.0725954 -0.0459295 0)
(0.0744842 -0.036205 0)
(0.0757933 -0.0264899 0)
(0.0765632 -0.0168767 0)
(0.0768274 -0.00741141 0)
(0.0766101 0.00190099 0)
(0.0759233 0.0110929 0)
(0.0747652 0.0202312 0)
(0.0731172 0.0294141 0)
(0.0709393 0.0387689 0)
(0.0681666 0.0484485 0)
(0.064708 0.0586252 0)
(0.0604477 0.0694783 0)
(0.0552539 0.0811694 0)
(0.0489969 0.0937917 0)
(0.04158 0.10728 0)
(0.0329814 0.121276 0)
(0.0233005 0.13497 0)
(0.012793 0.147004 0)
(0.00187327 0.155574 0)
(-0.00893032 0.158804 0)
(-0.0190741 0.155414 0)
(-0.0281274 0.145287 0)
(-0.0358394 0.129474 0)
(-0.0421639 0.109816 0)
(-0.0472114 0.0883419 0)
(-0.0511687 0.0667611 0)
(-0.0542204 0.0461923 0)
(-0.0564997 0.0271539 0)
(-0.05807 0.00971901 0)
(-0.0589337 -0.00627848 0)
(-0.0590529 -0.0210636 0)
(-0.0583679 -0.0348012 0)
(-0.0568176 -0.0475338 0)
(-0.0543563 -0.0591631 0)
(-0.0509662 -0.0694579 0)
(-0.0466697 -0.0780767 0)
(-0.0415416 -0.0845995 0)
(-0.0357194 -0.0885664 0)
(-0.029411 -0.0895208 0)
(-0.0228957 -0.0870521 0)
(-0.0165155 -0.0808299 0)
(-0.0106516 -0.0706163 0)
(-0.00572155 -0.0562422 0)
(-0.00200036 -0.0375435 0)
(-0.000224491 -0.0142175 0)
(0.000294728 -0.0155746 0)
(0.00245833 -0.0412758 0)
(0.00684493 -0.0620698 0)
(0.0124826 -0.0782347 0)
(0.019018 -0.0899398 0)
(0.0259759 -0.0974057 0)
(0.0329664 -0.100961 0)
(0.0396756 -0.101049 0)
(0.0458779 -0.0981917 0)
(0.0514323 -0.0929455 0)
(0.0562692 -0.0858549 0)
(0.0603729 -0.0774174 0)
(0.0637645 -0.0680621 0)
(0.0664856 -0.058141 0)
(0.0685872 -0.0479291 0)
(0.0701205 -0.0376298 0)
(0.0711328 -0.0273837 0)
(0.0716635 -0.0172759 0)
(0.0717437 -0.00734395 0)
(0.0713947 0.00241799 0)
(0.0706257 0.0120546 0)
(0.0694332 0.0216478 0)
(0.0677989 0.0313143 0)
(0.0656844 0.0412036 0)
(0.0630291 0.0514933 0)
(0.0597475 0.0623805 0)
(0.0557315 0.0740645 0)
(0.0508584 0.0867131 0)
(0.0450097 0.100401 0)
(0.0381014 0.115008 0)
(0.0301247 0.130078 0)
(0.0211887 0.144664 0)
(0.0115478 0.157258 0)
(0.00159345 0.165933 0)
(-0.00819924 0.168767 0)
(-0.0173694 0.16454 0)
(-0.0255753 0.153278 0)
(-0.0326392 0.136213 0)
(-0.0385518 0.115345 0)
(-0.0434203 0.0928018 0)
(-0.047397 0.0703163 0)
(-0.0506172 0.0489762 0)
(-0.0531651 0.0292418 0)
(-0.0550656 0.0111265 0)
(-0.0562951 -0.00558177 0)
(-0.0568011 -0.021134 0)
(-0.0565169 -0.0357033 0)
(-0.0553758 -0.0493246 0)
(-0.0533255 -0.0618794 0)
(-0.0503373 -0.0731042 0)
(-0.0464177 -0.0826133 0)
(-0.0416211 -0.08993 0)
(-0.0360637 -0.0945275 0)
(-0.0299339 -0.0958757 0)
(-0.0234989 -0.0934926 0)
(-0.0170995 -0.086989 0)
(-0.0111302 -0.0760921 0)
(-0.00603909 -0.0606283 0)
(-0.00213735 -0.0404564 0)
(-0.000246891 -0.015307 0)
(0.000309751 -0.0168965 0)
(0.00253266 -0.0446932 0)
(0.00698298 -0.0670724 0)
(0.0126223 -0.0843185 0)
(0.0190662 -0.0966247 0)
(0.0258204 -0.104263 0)
(0.0324953 -0.107641 0)
(0.0387924 -0.10729 0)
(0.0445114 -0.103823 0)
(0.0495415 -0.0978777 0)
(0.053843 -0.0900592 0)
(0.0574268 -0.0809087 0)
(0.060334 -0.070881 0)
(0.0626209 -0.0603401 0)
(0.0643463 -0.049563 0)
(0.0655654 -0.0387493 0)
(0.066325 -0.0280318 0)
(0.0666621 -0.0174867 0)
(0.0666036 -0.00714134 0)
(0.0661663 0.00302047 0)
(0.0653553 0.0130551 0)
(0.064164 0.0230583 0)
(0.0625725 0.0331633 0)
(0.0605433 0.0435394 0)
(0.0580187 0.0543866 0)
(0.0549194 0.0659245 0)
(0.0511462 0.07837 0)
(0.0465882 0.0918949 0)
(0.0411409 0.106553 0)
(0.0347361 0.122171 0)
(0.0273792 0.138193 0)
(0.0191873 0.153548 0)
(0.0104077 0.166596 0)
(0.00140131 0.175312 0)
(-0.0074167 0.177757 0)
(-0.0156684 0.172785 0)
(-0.023094 0.160557 0)
(-0.0295762 0.142456 0)
(-0.035129 0.120604 0)
(-0.039846 0.0971934 0)
(-0.0438406 0.0739621 0)
(-0.0472006 0.0519622 0)
(-0.0499675 0.0316028 0)
(-0.0521358 0.01285 0)
(-0.0536641 -0.00454179 0)
(-0.0544927 -0.0208415 0)
(-0.054553 -0.0362264 0)
(-0.0537768 -0.0507246 0)
(-0.0521075 -0.0642012 0)
(-0.0495061 -0.0763658 0)
(-0.0459629 -0.0867934 0)
(-0.0415106 -0.0949548 0)
(-0.0362404 -0.100256 0)
(-0.030318 -0.102088 0)
(-0.0239937 -0.09989 0)
(-0.0176043 -0.0931988 0)
(-0.0115552 -0.0816916 0)
(-0.00632458 -0.0651742 0)
(-0.00226064 -0.0435151 0)
(-0.000266701 -0.0164673 0)
(0.000322335 -0.0182553 0)
(0.00258842 -0.0481629 0)
(0.00707068 -0.072089 0)
(0.0126713 -0.0903362 0)
(0.018978 -0.103138 0)
(0.0254817 -0.110838 0)
(0.0317985 -0.113936 0)
(0.0376492 -0.113066 0)
(0.0428628 -0.108941 0)
(0.0473602 -0.102277 0)
(0.0511319 -0.0937391 0)
(0.0542134 -0.083907 0)
(0.0566643 -0.0732546 0)
(0.0585522 -0.0621518 0)
(0.0599419 -0.0508721 0)
(0.0608896 -0.0396071 0)
(0.0614405 -0.0284792 0)
(0.0616273 -0.0175535 0)
(0.0614722 -0.00684689 0)
(0.0609864 0.00366768 0)
(0.0601699 0.0140576 0)
(0.059012 0.0244309 0)
(0.0574903 0.0349355 0)
(0.0555669 0.0457581 0)
(0.0531866 0.0571181 0)
(0.0502759 0.0692545 0)
(0.0467449 0.0823982 0)
(0.0424958 0.096722 0)
(0.0374405 0.112258 0)
(0.0315281 0.128775 0)
(0.0247791 0.145631 0)
(0.0173163 0.161636 0)
(0.00937608 0.17504 0)
(0.00128361 0.183748 0)
(-0.00660853 0.185827 0)
(-0.0140018 0.180213 0)
(-0.0207098 0.167186 0)
(-0.0266638 0.148253 0)
(-0.0318907 0.125621 0)
(-0.0364642 0.101519 0)
(-0.0404584 0.0776744 0)
(-0.0439177 0.0551047 0)
(-0.0468477 0.0341774 0)
(-0.04922 0.014824 0)
(-0.0509823 -0.00322342 0)
(-0.052073 -0.0202447 0)
(-0.0524258 -0.0364189 0)
(-0.0519739 -0.0517694 0)
(-0.0506581 -0.0661495 0)
(-0.0484307 -0.0792486 0)
(-0.0452657 -0.0906091 0)
(-0.0411731 -0.0996536 0)
(-0.0362172 -0.105722 0)
(-0.0305369 -0.108125 0)
(-0.0243618 -0.10621 0)
(-0.0180196 -0.0994278 0)
(-0.0119234 -0.0873878 0)
(-0.00657947 -0.0698589 0)
(-0.00237273 -0.0467047 0)
(-0.000284963 -0.0176919 0)
(0.000332854 -0.0196418 0)
(0.00262684 -0.0516605 0)
(0.00711001 -0.0770838 0)
(0.0126324 -0.0962449 0)
(0.0187575 -0.109436 0)
(0.0249673 -0.117087 0)
(0.0308886 -0.11981 0)
(0.0362665 -0.118355 0)
(0.0409617 -0.113534 0)
(0.044928 -0.106146 0)
(0.048185 -0.0969111 0)
(0.0507908 -0.0864395 0)
(0.0528201 -0.0752181 0)
(0.054349 -0.0636161 0)
(0.0554455 -0.051899 0)
(0.0561649 -0.0402465 0)
(0.0565487 -0.0287684 0)
(0.0566251 -0.0175174 0)
(0.0564103 -0.00649904 0)
(0.0559097 0.00432419 0)
(0.055118 0.0150302 0)
(0.0540201 0.0257381 0)
(0.0525902 0.0366089 0)
(0.0507895 0.0478437 0)
(0.0485647 0.0596785 0)
(0.0458475 0.0723677 0)
(0.0425578 0.0861524 0)
(0.0386113 0.101203 0)
(0.0339374 0.117525 0)
(0.0285032 0.134836 0)
(0.022344 0.152408 0)
(0.0155869 0.168952 0)
(0.00845394 0.182625 0)
(0.00123204 0.191288 0)
(-0.00578849 0.193033 0)
(-0.012383 0.186882 0)
(-0.0184289 0.173218 0)
(-0.0238959 0.153641 0)
(-0.0288163 0.13041 0)
(-0.0332411 0.105766 0)
(-0.0372068 0.0814186 0)
(-0.04072 0.0583528 0)
(-0.043757 0.0369053 0)
(-0.0462726 0.0169855 0)
(-0.0482091 -0.00168704 0)
(-0.0495069 -0.0193973 0)
(-0.0501048 -0.0363251 0)
(-0.0499396 -0.0524915 0)
(-0.0489516 -0.0677437 0)
(-0.0470856 -0.0817577 0)
(-0.0443004 -0.0940511 0)
(-0.0405833 -0.104004 0)
(-0.0359702 -0.110894 0)
(-0.0305702 -0.113946 0)
(-0.0245874 -0.112411 0)
(-0.0183356 -0.105637 0)
(-0.0122307 -0.0931489 0)
(-0.00680356 -0.0746583 0)
(-0.0024748 -0.05001 0)
(-0.000302269 -0.0189753 0)
(0.000341497 -0.021047 0)
(0.00264875 -0.0551626 0)
(0.00710286 -0.0820224 0)
(0.0125092 -0.102004 0)
(0.0184113 -0.115474 0)
(0.0242883 -0.122973 0)
(0.0297833 -0.125237 0)
(0.0346701 -0.12314 0)
(0.0388432 -0.117602 0)
(0.0422893 -0.109499 0)
(0.0450553 -0.0996004 0)
(0.0472187 -0.0885404 0)
(0.0488662 -0.0768112 0)
(0.050079 -0.0647756 0)
(0.0509255 -0.0526866 0)
(0.0514581 -0.0407091 0)
(0.0517136 -0.0289383 0)
(0.0517144 -0.0174141 0)
(0.0514709 -0.00613016 0)
(0.0509829 0.00496123 0)
(0.0502395 0.0159478 0)
(0.0492212 0.0269589 0)
(0.0478991 0.0381665 0)
(0.0462329 0.0497842 0)
(0.044171 0.0620609 0)
(0.0416501 0.0752629 0)
(0.0385994 0.0896366 0)
(0.0349488 0.105345 0)
(0.0306449 0.12237 0)
(0.0256732 0.140372 0)
(0.0200827 0.15855 0)
(0.0140032 0.175526 0)
(0.00764039 0.189391 0)
(0.0012418 0.197982 0)
(-0.00496206 0.199433 0)
(-0.0108134 0.192848 0)
(-0.0162445 0.178698 0)
(-0.0212553 0.158644 0)
(-0.0258779 0.134971 0)
(-0.0301404 0.109914 0)
(-0.0340454 0.085156 0)
(-0.0375669 0.061656 0)
(-0.0406579 0.0397301 0)
(-0.043262 0.0192771 0)
(-0.0453194 1.29629e-05 0)
(-0.0467752 -0.0183481 0)
(-0.0475753 -0.0359857 0)
(-0.047662 -0.0529217 0)
(-0.0469766 -0.0690027 0)
(-0.0454584 -0.083899 0)
(-0.0430527 -0.0971112 0)
(-0.0397249 -0.107984 0)
(-0.0354822 -0.115737 0)
(-0.0304012 -0.11951 0)
(-0.0246566 -0.118448 0)
(-0.0185425 -0.111785 0)
(-0.0124715 -0.0989382 0)
(-0.00699492 -0.0795458 0)
(-0.00256688 -0.0534153 0)
(-0.000318875 -0.0203126 0)
(0.000348354 -0.0224625 0)
(0.00265481 -0.0586466 0)
(0.00705125 -0.0868719 0)
(0.0123058 -0.107574 0)
(0.0179474 -0.121215 0)
(0.0234582 -0.128462 0)
(0.0285034 -0.130193 0)
(0.0328889 -0.127415 0)
(0.0365446 -0.121153 0)
(0.0394893 -0.112357 0)
(0.0417945 -0.101839 0)
(0.043554 -0.0902487 0)
(0.0448624 -0.0780768 0)
(0.0458031 -0.0656739 0)
(0.0464419 -0.0532768 0)
(0.0468268 -0.0410335 0)
(0.0469886 -0.0290237 0)
(0.0469438 -0.0172739 0)
(0.0466969 -0.00576626 0)