/*--------------------------------*- C++ -*----------------------------------*\
| =========                 |                                                 |
| \\      /  F ield         | OpenFOAM: The Open Source CFD Toolbox           |
|  \\    /   O peration     | Version:  2406                                  |
|   \\  /    A nd           | Website:  www.openfoam.com                      |
|    \\/     M anipulation  |                                                 |
\*---------------------------------------------------------------------------*/
FoamFile
{
    version     2.0;
    format      ascii;
    arch        "LSB;label=32;scalar=64";
    class       volScalarField;
    location    "15000";
    object      wallHeatFlux;
}
// * * * * * * * * * * * * * * * * * * * * * * * * * * * * * * * * * * * * * //

dimensions      [1 0 -3 0 0 0 0];

internalField   uniform 0;

boundaryField
{
    bottomwall
    {
        type            calculated;
        value           nonuniform List<scalar> 
60
(
310.998
241.341
202.06
177.881
161.97
150.918
142.878
136.762
131.894
127.851
124.361
121.227
118.291
115.43
112.571
109.683
106.76
103.803
100.809
97.7693
94.6643
91.4634
88.1201
84.5763
80.7806
76.7187
72.4358
68.0224
63.5403
58.9074
53.8065
47.7116
40.0995
30.8243
20.5245
10.8644
4.43141
4.2436
12.9709
32.1148
61.4613
99.0212
141.48
184.978
225.911
261.476
289.822
309.881
321.082
323.182
316.322
301.29
279.828
254.784
230.011
210.032
199.664
204.433
231.523
293.668
)
;
    }
    topwall
    {
        type            calculated;
        value           nonuniform List<scalar> 
60
(
9.95468
6.511
3.80414
1.33109
-0.649412
-2.14907
-3.13886
-3.54048
-3.2393
-2.21874
-0.653667
1.13655
2.83552
4.24884
5.3161
6.04492
6.44507
6.50846
6.22535
5.60497
4.68087
3.50274
2.12655
0.613964
-0.955769
-2.46744
-3.75909
-4.63417
-4.90318
-4.44456
-3.25922
-1.49012
0.607096
2.73233
4.61848
6.08568
7.05465
7.52344
7.52834
7.11147
6.30955
5.16467
3.74656
2.16868
0.582122
-0.854379
-2.00766
-2.77665
-3.06649
-2.76848
-1.79308
-0.14572
2.0328
4.52309
7.14364
9.81367
12.5567
15.331
18.3917
20.7888
)
;
    }
    coldwall
    {
        type            calculated;
        value           nonuniform List<scalar> 
48
(
-416.842
-217.444
-134.196
-90.7317
-64.8124
-48.4943
-38.2099
-31.987
-28.5595
-27.0459
-26.8162
-27.4229
-28.5564
-30.0102
-31.6517
-33.3992
-35.2044
-37.0397
-38.8899
-40.7465
-42.6054
-44.4642
-46.322
-48.1785
-50.0337
-51.8881
-53.742
-55.596
-57.4502
-59.3048
-61.1591
-63.0119
-64.8612
-66.7038
-68.5351
-70.3494
-72.1388
-73.8939
-75.6029
-77.2521
-78.8251
-80.3039
-82.3038
-80.9478
-79.601
-78.5896
-78.8215
-83.2584
)
;
    }
    radinlet
    {
        type            calculated;
        value           nonuniform List<scalar> 
12
(
-81.6688
-82.8981
-83.9695
-84.8601
-85.5479
-86.0123
-86.2363
-86.2068
-85.9168
-85.3665
-84.5649
-83.5318
)
;
    }
    hotwall
    {
        type            calculated;
        value           nonuniform List<scalar> 
60
(
-428.775
-235.359
-150.685
-104.056
-74.9261
-55.8552
-43.3749
-35.4647
-30.7662
-28.3036
-27.3667
-27.4456
-28.1846
-29.3438
-30.7674
-32.3578
-34.0563
-35.8284
-37.6544
-39.5233
-41.4284
-43.3655
-45.3314
-47.3236
-49.3392
-51.3755
-53.4297
-55.4988
-57.5795
-59.6685
-61.7621
-63.8566
-65.9477
-68.0307
-70.1008
-72.1521
-74.1785
-76.1727
-78.1265
-80.0307
-81.8743
-83.6449
-85.3289
-86.9107
-88.3732
-89.6974
-90.8627
-91.8476
-92.6301
-93.1897
-93.5096
-93.5804
-93.4063
-93.0147
-92.474
-91.9294
-91.6849
-92.4297
-95.967
-107.949
)
;
    }
    frontAndback
    {
        type            empty;
    }
}


// ************************************************************************* //
