/*--------------------------------*- C++ -*----------------------------------*\
| =========                 |                                                 |
| \\      /  F ield         | OpenFOAM: The Open Source CFD Toolbox           |
|  \\    /   O peration     | Version:  2306                                  |
|   \\  /    A nd           | Website:  www.openfoam.com                      |
|    \\/     M anipulation  |                                                 |
\*---------------------------------------------------------------------------*/
FoamFile
{
    version     2.0;
    format      ascii;
    arch        "LSB;label=32;scalar=64";
    class       volScalarField;
    location    "1";
    object      Keff;
}
// * * * * * * * * * * * * * * * * * * * * * * * * * * * * * * * * * * * * * //

dimensions      [1 1 -3 -1 0 0 0];

internalField   nonuniform List<scalar> 
32768
(
67.2037
67.2019
67.1983
67.1928
67.1855
67.1763
67.1653
67.1525
67.1378
67.1212
67.1028
67.0825
67.0604
67.0363
67.0103
66.9824
66.9525
66.9206
66.8867
66.8507
66.8126
66.7723
66.7297
66.6847
66.637
66.5865
66.5327
66.4756
66.4148
66.3504
66.2822
66.2106
66.1357
66.0579
65.9777
65.8955
65.8117
65.7269
65.6413
65.5553
65.4693
65.3834
65.298
65.2131
65.129
65.0458
64.9637
64.8828
64.8032
64.7252
64.6489
64.5744
64.5019
64.4315
64.3633
64.2977
64.2346
64.1743
64.1169
64.0626
64.0114
63.9635
63.9191
63.8782
63.8409
63.8074
63.7777
63.7518
63.7299
63.7119
63.698
63.688
63.6821
63.6801
63.6821
63.6879
63.6977
63.7112
63.7284
63.7492
63.7734
63.8011
63.832
63.866
63.903
63.9428
63.9852
64.0302
64.0775
64.127
64.1784
64.2318
64.2867
64.3432
64.401
64.46
64.52
64.5808
64.6422
64.7043
64.7667
64.8293
64.892
64.9548
65.0173
65.0797
65.1416
65.2031
65.2639
65.3242
65.3836
65.4423
65.5001
65.5569
65.6127
65.6674
65.721
65.7735
65.8248
65.8749
65.9238
65.9715
66.0179
66.063
66.1068
66.1494
66.1907
66.2308
66.2696
66.3072
66.3435
66.3786
66.4126
66.4453
66.477
66.5075
66.5368
66.5652
66.5924
66.6187
66.6439
66.6682
66.6915
66.7139
66.7354
66.756
66.7758
66.7949
66.8131
66.8306
66.8473
66.8633
66.8787
66.8934
66.9075
66.921
66.9339
66.9462
66.958
66.9693
66.9801
66.9904
67.0002
67.0096
67.0186
67.0272
67.0354
67.0433
67.0507
67.0579
67.0647
67.0712
67.0774
67.0833
67.089
67.0944
67.0995
67.1044
67.1091
67.1136
67.1178
67.1219
67.1257
67.1294
67.1329
67.1363
67.1395
67.1425
67.1455
67.1482
67.1509
67.1534
67.1558
67.158
67.1602
67.1623
67.1643
67.1662
67.1679
67.1697
67.1713
67.1728
67.1743
67.1757
67.1771
67.1783
67.1796
67.1807
67.1818
67.1829
67.1839
67.1848
67.1857
67.1866
67.1874
67.1882
67.189
67.1897
67.1904
67.191
67.1916
67.1922
67.1928
67.1933
67.1938
67.1943
67.1947
67.1952
67.1956
67.196
67.1964
67.1967
67.1971
67.1974
67.1977
67.198
67.1983
67.1986
67.1988
67.1991
67.1993
67.1995
67.1998
67.2
67.2002
67.2003
67.2005
67.2007
67.2009
67.201
67.2012
67.2013
67.2014
67.2016
67.2017
67.2019
67.2037
67.2019
67.1983
67.1928
67.1855
67.1763
67.1653
67.1525
67.1378
67.1213
67.1028
67.0826
67.0604
67.0363
67.0103
66.9824
66.9525
66.9206
66.8867
66.8507
66.8126
66.7723
66.7297
66.6846
66.6369
66.5863
66.5325
66.4753
66.4145
66.35
66.2818
66.2101
66.1351
66.0573
65.977
65.8947
65.8109
65.726
65.6403
65.5543
65.4682
65.3822
65.2967
65.2117
65.1275
65.0442
64.962
64.881
64.8013
64.7232
64.6467
64.5721
64.4994
64.4289
64.3606
64.2948
64.2316
64.1712
64.1137
64.0592
64.0079
63.96
63.9154
63.8744
63.8371
63.8035
63.7737
63.7479
63.7259
63.7079
63.694
63.684
63.6781
63.6762
63.6782
63.6841
63.6939
63.7075
63.7248
63.7456
63.77
63.7978
63.8288
63.8629
63.9001
63.94
63.9826
64.0277
64.0752
64.1248
64.1764
64.2299
64.285
64.3417
64.3996
64.4588
64.5189
64.5798
64.6415
64.7036
64.7661
64.8289
64.8918
64.9546
65.0173
65.0798
65.1418
65.2034
65.2643
65.3247
65.3842
65.443
65.5008
65.5577
65.6135
65.6683
65.722
65.7745
65.8259
65.876
65.9249
65.9726
66.019
66.0641
66.108
66.1505
66.1919
66.2319
66.2707
66.3083
66.3446
66.3797
66.4137
66.4464
66.478
66.5085
66.5379
66.5661
66.5934
66.6196
66.6448
66.669
66.6923
66.7147
66.7362
66.7568
66.7766
66.7956
66.8138
66.8313
66.848
66.864
66.8793
66.894
66.9081
66.9215
66.9344
66.9467
66.9585
66.9698
66.9805
66.9908
67.0007
67.01
67.019
67.0276
67.0358
67.0436
67.0511
67.0582
67.065
67.0715
67.0777
67.0836
67.0892
67.0946
67.0997
67.1046
67.1093
67.1138
67.118
67.1221
67.1259
67.1296
67.1331
67.1365
67.1396
67.1427
67.1456
67.1483
67.151
67.1535
67.1559
67.1582
67.1603
67.1624
67.1644
67.1662
67.168
67.1697
67.1714
67.1729
67.1744
67.1758
67.1771
67.1784
67.1796
67.1808
67.1819
67.1829
67.1839
67.1849
67.1858
67.1866
67.1875
67.1882
67.189
67.1897
67.1904
67.191
67.1916
67.1922
67.1928
67.1933
67.1938
67.1943
67.1948
67.1952
67.1956
67.196
67.1964
67.1968
67.1971
67.1974
67.1977
67.198
67.1983
67.1986
67.1989
67.1991
67.1993
67.1996
67.1998
67.2
67.2002
67.2004
67.2005
67.2007
67.2009
67.201
67.2012
67.2013
67.2014
67.2016
67.2017
67.2019
67.2037
67.2019
67.1983
67.1928
67.1855
67.1763
67.1653
67.1525
67.1378
67.1213
67.1029
67.0826
67.0605
67.0364
67.0104
66.9824
66.9525
66.9206
66.8867
66.8507
66.8125
66.7722
66.7295
66.6844
66.6367
66.586
66.5321
66.4748
66.4139
66.3493
66.281
66.2091
66.134
66.0561
65.9756
65.8932
65.8093
65.7242
65.6384
65.5523
65.466
65.3799
65.2941
65.209
65.1246
65.041
64.9586
64.8773
64.7974
64.719
64.6423
64.5674
64.4944
64.4236
64.3551
64.2891
64.2256
64.165
64.1072
64.0525
64.001
63.9528
63.9081
63.867
63.8295
63.7958
63.7659
63.7399
63.7179
63.6999
63.686
63.676
63.6701
63.6683
63.6704
63.6764
63.6863
63.7001
63.7175
63.7386
63.7632
63.7912
63.8225
63.8569
63.8942
63.9345
63.9774
64.0228
64.0705
64.1205
64.1724
64.2262
64.2817
64.3386
64.3969
64.4563
64.5167
64.578
64.6399
64.7023
64.7651
64.8282
64.8913
64.9544
65.0173
65.08
65.1422
65.204
65.2652
65.3257
65.3854
65.4443
65.5022
65.5592
65.6152
65.6701
65.7239
65.7765
65.8279
65.8781
65.927
65.9747
66.0212
66.0663
66.1102
66.1528
66.1941
66.2342
66.273
66.3105
66.3468
66.3819
66.4158
66.4485
66.4801
66.5106
66.5399
66.5681
66.5953
66.6215
66.6467
66.6708
66.6941
66.7164
66.7379
66.7584
66.7782
66.7971
66.8153
66.8327
66.8493
66.8653
66.8806
66.8952
66.9093
66.9227
66.9355
66.9478
66.9595
66.9707
66.9815
66.9917
67.0015
67.0109
67.0198
67.0284
67.0365
67.0443
67.0517
67.0588
67.0656
67.0721
67.0782
67.0841
67.0897
67.0951
67.1002
67.1051
67.1097
67.1142
67.1184
67.1224
67.1263
67.1299
67.1334
67.1368
67.1399
67.143
67.1459
67.1486
67.1512
67.1537
67.1561
67.1584
67.1605
67.1626
67.1646
67.1664
67.1682
67.1699
67.1715
67.1731
67.1745
67.1759
67.1773
67.1785
67.1797
67.1809
67.182
67.183
67.184
67.185
67.1859
67.1867
67.1875
67.1883
67.1891
67.1898
67.1904
67.1911
67.1917
67.1923
67.1928
67.1934
67.1939
67.1944
67.1948
67.1952
67.1957
67.1961
67.1964
67.1968
67.1971
67.1975
67.1978
67.1981
67.1983
67.1986
67.1989
67.1991
67.1994
67.1996
67.1998
67.2
67.2002
67.2004
67.2005
67.2007
67.2009
67.201
67.2012
67.2013
67.2014
67.2016
67.2017
67.2019
67.2037
67.2019
67.1983
67.1929
67.1855
67.1764
67.1654
67.1525
67.1379
67.1213
67.103
67.0827
67.0605
67.0365
67.0105
66.9825
66.9526
66.9207
66.8867
66.8506
66.8125
66.7721
66.7294
66.6842
66.6363
66.5855
66.5315
66.4741
66.413
66.3482
66.2797
66.2077
66.1324
66.0542
65.9736
65.891
65.8069
65.7216
65.6356
65.5492
65.4627
65.3763
65.2903
65.2049
65.1201
65.0363
64.9535
64.8719
64.7916
64.7128
64.6357
64.5604
64.487
64.4158
64.3469
64.2805
64.2166
64.1556
64.0975
64.0424
63.9906
63.9421
63.8971
63.8557
63.818
63.7841
63.7541
63.728
63.7059
63.6879
63.6739
63.664
63.6582
63.6564
63.6586
63.6648
63.675
63.6889
63.7066
63.728
63.7529
63.7813
63.8129
63.8477
63.8855
63.9261
63.9695
64.0153
64.0636
64.114
64.1664
64.2206
64.2766
64.334
64.3927
64.4526
64.5135
64.5752
64.6376
64.7004
64.7637
64.8271
64.8906
64.9541
65.0174
65.0803
65.1429
65.205
65.2664
65.3272
65.3871
65.4463
65.5044
65.5616
65.6178
65.6728
65.7267
65.7794
65.831
65.8813
65.9303
65.978
66.0245
66.0697
66.1136
66.1562
66.1976
66.2376
66.2764
66.3139
66.3502
66.3852
66.4191
66.4518
66.4833
66.5137
66.5429
66.5711
66.5982
66.6243
66.6494
66.6736
66.6967
66.719
66.7403
66.7608
66.7805
66.7994
66.8174
66.8348
66.8514
66.8673
66.8825
66.8971
66.911
66.9244
66.9371
66.9493
66.961
66.9722
66.9829
66.9931
67.0028
67.0121
67.021
67.0295
67.0376
67.0453
67.0527
67.0598
67.0665
67.0729
67.0791
67.0849
67.0905
67.0958
67.1009
67.1058
67.1104
67.1148
67.119
67.123
67.1268
67.1305
67.1339
67.1372
67.1404
67.1434
67.1463
67.149
67.1516
67.1541
67.1564
67.1587
67.1608
67.1629
67.1648
67.1667
67.1685
67.1701
67.1717
67.1733
67.1747
67.1761
67.1774
67.1787
67.1799
67.181
67.1821
67.1832
67.1842
67.1851
67.186
67.1868
67.1877
67.1884
67.1892
67.1899
67.1905
67.1912
67.1918
67.1924
67.1929
67.1934
67.1939
67.1944
67.1949
67.1953
67.1957
67.1961
67.1965
67.1968
67.1972
67.1975
67.1978
67.1981
67.1984
67.1987
67.1989
67.1992
67.1994
67.1996
67.1998
67.2
67.2002
67.2004
67.2006
67.2007
67.2009
67.201
67.2012
67.2013
67.2015
67.2016
67.2017
67.2019
67.2037
67.2019
67.1983
67.1929
67.1855
67.1764
67.1654
67.1526
67.1379
67.1214
67.103
67.0828
67.0606
67.0366
67.0106
66.9826
66.9527
66.9207
66.8867
66.8506
66.8124
66.7719
66.7291
66.6839
66.6359
66.5849
66.5308
66.4731
66.4118
66.3468
66.278
66.2057
66.1302
66.0518
65.9709
65.8881
65.8037
65.7181
65.6319
65.5452
65.4583
65.3716
65.2853
65.1994
65.1143
65.03
64.9467
64.8646
64.7838
64.7045
64.6269
64.551
64.4771
64.4054
64.3359
64.269
64.2046
64.143
64.0844
64.0289
63.9767
63.9278
63.8824
63.8407
63.8027
63.7685
63.7383
63.7121
63.6899
63.6717
63.6577
63.6479
63.6421
63.6405
63.6429
63.6493
63.6597
63.674
63.6921
63.7139
63.7392
63.768
63.8001
63.8355
63.8738
63.915
63.9589
64.0054
64.0542
64.1053
64.1583
64.2132
64.2698
64.3278
64.3872
64.4477
64.5092
64.5715
64.6345
64.6979
64.7617
64.8257
64.8897
64.9536
65.0174
65.0808
65.1438
65.2063
65.2681
65.3292
65.3895
65.4489
65.5074
65.5648
65.6212
65.6764
65.7305
65.7834
65.8351
65.8855
65.9346
65.9825
66.029
66.0743
66.1182
66.1608
66.2021
66.2422
66.2809
66.3184
66.3547
66.3897
66.4235
66.4561
66.4875
66.5178
66.547
66.5751
66.6021
66.6281
66.6531
66.6772
66.7002
66.7224
66.7437
66.7641
66.7836
66.8024
66.8204
66.8376
66.8541
66.8699
66.885
66.8995
66.9134
66.9266
66.9393
66.9514
66.963
66.9741
66.9847
66.9948
67.0045
67.0138
67.0226
67.031
67.0391
67.0467
67.0541
67.0611
67.0677
67.0741
67.0802
67.086
67.0915
67.0968
67.1019
67.1067
67.1112
67.1156
67.1198
67.1237
67.1275
67.1311
67.1346
67.1379
67.141
67.144
67.1468
67.1495
67.1521
67.1545
67.1569
67.1591
67.1612
67.1633
67.1652
67.167
67.1688
67.1705
67.172
67.1736
67.175
67.1764
67.1777
67.1789
67.1801
67.1813
67.1823
67.1834
67.1843
67.1853
67.1862
67.187
67.1878
67.1886
67.1893
67.19
67.1907
67.1913
67.1919
67.1925
67.193
67.1935
67.194
67.1945
67.195
67.1954
67.1958
67.1962
67.1966
67.1969
67.1972
67.1976
67.1979
67.1982
67.1984
67.1987
67.199
67.1992
67.1994
67.1996
67.1999
67.2001
67.2002
67.2004
67.2006
67.2008
67.2009
67.2011
67.2012
67.2014
67.2015
67.2016
67.2017
67.2019
67.2037
67.2019
67.1983
67.1929
67.1856
67.1764
67.1655
67.1527
67.138
67.1215
67.1032
67.0829
67.0608
67.0367
67.0107
66.9828
66.9528
66.9208
66.8868
66.8506
66.8123
66.7718
66.7289
66.6835
66.6353
66.5842
66.5298
66.472
66.4104
66.3451
66.276
66.2034
66.1276
66.0488
65.9676
65.8845
65.7997
65.7139
65.6273
65.5402
65.453
65.3658
65.279
65.1927
65.107
65.0222
64.9383
64.8556
64.7742
64.6942
64.6159
64.5394
64.4648
64.3923
64.3222
64.2545
64.1895
64.1273
64.0681
64.012
63.9592
63.9098
63.8639
63.8218
63.7834
63.749
63.7185
63.692
63.6697
63.6515
63.6374
63.6276
63.622
63.6205
63.6231
63.6298
63.6406
63.6553
63.6738
63.6961
63.722
63.7514
63.7841
63.8201
63.8591
63.9011
63.9457
63.993
64.0426
64.0944
64.1482
64.2039
64.2613
64.3202
64.3803
64.4416
64.5039
64.5669
64.6306
64.6948
64.7593
64.8239
64.8886
64.9532
65.0175
65.0815
65.145
65.208
65.2703
65.3318
65.3925
65.4523
65.5111
65.5689
65.6255
65.681
65.7354
65.7884
65.8403
65.8908
65.9401
65.988
66.0347
66.0799
66.1239
66.1666
66.2079
66.2479
66.2866
66.3241
66.3603
66.3952
66.4289
66.4615
66.4928
66.523
66.5521
66.5801
66.607
66.6329
66.6578
66.6817
66.7046
66.7267
66.7478
66.7681
66.7875
66.8061
66.824
66.8411
66.8575
66.8732
66.8882
66.9026
66.9163
66.9295
66.942
66.9541
66.9656
66.9766
66.9871
66.9971
67.0067
67.0158
67.0246
67.0329
67.0409
67.0485
67.0557
67.0627
67.0693
67.0756
67.0816
67.0873
67.0928
67.098
67.103
67.1078
67.1123
67.1166
67.1207
67.1247
67.1284
67.132
67.1354
67.1386
67.1417
67.1447
67.1475
67.1501
67.1527
67.1551
67.1574
67.1596
67.1617
67.1637
67.1657
67.1675
67.1692
67.1709
67.1724
67.1739
67.1754
67.1767
67.178
67.1792
67.1804
67.1815
67.1826
67.1836
67.1846
67.1855
67.1864
67.1872
67.188
67.1888
67.1895
67.1902
67.1908
67.1915
67.192
67.1926
67.1932
67.1937
67.1942
67.1946
67.1951
67.1955
67.1959
67.1963
67.1966
67.197
67.1973
67.1976
67.1979
67.1982
67.1985
67.1988
67.199
67.1993
67.1995
67.1997
67.1999
67.2001
67.2003
67.2005
67.2006
67.2008
67.201
67.2011
67.2013
67.2014
67.2015
67.2017
67.2017
67.2019
67.2037
67.2019
67.1984
67.1929
67.1856
67.1765
67.1655
67.1528
67.1381
67.1217
67.1033
67.0831
67.061
67.0369
67.0109
66.983
66.953
66.921
66.8869
66.8507
66.8123
66.7717
66.7287
66.6831
66.6348
66.5834
66.5288
66.4706
66.4087
66.3431
66.2737
66.2007
66.1245
66.0454
65.9638
65.8802
65.7951
65.7089
65.6218
65.5343
65.4466
65.359
65.2716
65.1847
65.0983
65.0128
64.9283
64.8448
64.7626
64.6818
64.6027
64.5253
64.4499
64.3766
64.3057
64.2372
64.1713
64.1084
64.0484
63.9916
63.9381
63.8881
63.8417
63.799
63.7602
63.7253
63.6945
63.6678
63.6453
63.627
63.6129
63.6031
63.5976
63.5963
63.5993
63.6063
63.6175
63.6327
63.6517
63.6746
63.7012
63.7313
63.7648
63.8016
63.8414
63.8842
63.9298
63.978
64.0285
64.0813
64.1361
64.1928
64.2511
64.3109
64.3721
64.4343
64.4975
64.5615
64.626
64.6911
64.7564
64.8218
64.8873
64.9526
65.0177
65.0823
65.1465
65.2101
65.2729
65.335
65.3962
65.4564
65.5157
65.5738
65.6308
65.6866
65.7412
65.7945
65.8466
65.8973
65.9467
65.9947
66.0415
66.0868
66.1308
66.1735
66.2148
66.2548
66.2935
66.3309
66.367
66.4019
66.4355
66.4679
66.4992
66.5293
66.5582
66.5861
66.6129
66.6386
66.6633
66.6871
66.7099
66.7318
66.7528
66.7729
66.7922
66.8107
66.8284
66.8453
66.8616
66.8771
66.892
66.9062
66.9198
66.9329
66.9453
66.9572
66.9686
66.9795
66.9898
66.9998
67.0092
67.0183
67.0269
67.0352
67.043
67.0506
67.0577
67.0646
67.0711
67.0773
67.0833
67.0889
67.0943
67.0995
67.1044
67.1091
67.1136
67.1178
67.1219
67.1258
67.1295
67.133
67.1364
67.1396
67.1426
67.1455
67.1483
67.1509
67.1534
67.1558
67.1581
67.1603
67.1624
67.1643
67.1662
67.168
67.1697
67.1713
67.1729
67.1744
67.1758
67.1771
67.1784
67.1796
67.1808
67.1819
67.1829
67.1839
67.1849
67.1858
67.1866
67.1875
67.1882
67.189
67.1897
67.1904
67.191
67.1916
67.1922
67.1928
67.1933
67.1938
67.1943
67.1948
67.1952
67.1956
67.196
67.1964
67.1968
67.1971
67.1974
67.1977
67.198
67.1983
67.1986
67.1988
67.1991
67.1993
67.1995
67.1998
67.2
67.2002
67.2003
67.2005
67.2007
67.2008
67.201
67.2011
67.2013
67.2014
67.2015
67.2017
67.2018
67.202
67.2037
67.202
67.1984
67.1929
67.1857
67.1766
67.1656
67.1529
67.1383
67.1218
67.1035
67.0833
67.0612
67.0372
67.0112
66.9832
66.9532
66.9212
66.8871
66.8508
66.8124
66.7716
66.7285
66.6827
66.6342
66.5826
66.5277
66.4692
66.4069
66.3409
66.271
66.1976
66.121
66.0414
65.9594
65.8754
65.7899
65.7031
65.6156
65.5275
65.4393
65.351
65.263
65.1754
65.0883
65.002
64.9166
64.8322
64.7491
64.6674
64.5873
64.5089
64.4325
64.3583
64.2863
64.2168
64.1501
64.0861
64.0253
63.9676
63.9133
63.8626
63.8155
63.7722
63.7329
63.6975
63.6663
63.6393
63.6166
63.5982
63.5841
63.5744
63.569
63.568
63.5712
63.5787
63.5903
63.6061
63.6258
63.6494
63.6767
63.7077
63.7421
63.7798
63.8207
63.8645
63.9112
63.9604
64.0121
64.066
64.1219
64.1798
64.2392
64.3002
64.3624
64.4258
64.4901
64.5551
64.6207
64.6868
64.7531
64.8195
64.8858
64.952
65.0179
65.0834
65.1483
65.2126
65.2761
65.3388
65.4006
65.4614
65.5211
65.5796
65.637
65.6932
65.7481
65.8017
65.854
65.9049
65.9545
66.0026
66.0495
66.0949
66.139
66.1816
66.223
66.2629
66.3016
66.3389
66.3749
66.4097
66.4432
66.4755
66.5066
66.5366
66.5654
66.5931
66.6197
66.6453
66.6698
66.6934
66.7161
66.7378
66.7586
66.7785
66.7976
66.8159
66.8335
66.8503
66.8663
66.8817
66.8964
66.9105
66.924
66.9368
66.9491
66.9609
66.9721
66.9828
66.9931
67.0029
67.0122
67.0211
67.0297
67.0378
67.0456
67.053
67.06
67.0668
67.0732
67.0794
67.0852
67.0908
67.0961
67.1012
67.106
67.1107
67.1151
67.1193
67.1233
67.1271
67.1307
67.1342
67.1375
67.1406
67.1436
67.1465
67.1492
67.1518
67.1543
67.1566
67.1589
67.161
67.1631
67.165
67.1668
67.1686
67.1703
67.1719
67.1734
67.1749
67.1762
67.1776
67.1788
67.18
67.1811
67.1822
67.1833
67.1842
67.1852
67.1861
67.1869
67.1877
67.1885
67.1892
67.1899
67.1906
67.1912
67.1918
67.1924
67.193
67.1935
67.194
67.1945
67.1949
67.1953
67.1958
67.1961
67.1965
67.1969
67.1972
67.1975
67.1978
67.1981
67.1984
67.1987
67.1989
67.1992
67.1994
67.1996
67.1998
67.2
67.2002
67.2004
67.2006
67.2007
67.2009
67.2011
67.2012
67.2013
67.2015
67.2016
67.2017
67.2018
67.202
67.2037
67.202
67.1984
67.193
67.1857
67.1766
67.1657
67.153
67.1385
67.1221
67.1038
67.0836
67.0615
67.0375
67.0115
66.9836
66.9536
66.9215
66.8874
66.851
66.8125
66.7716
66.7283
66.6824
66.6337
66.5818
66.5265
66.4677
66.405
66.3385
66.2682
66.1943
66.1171
66.0371
65.9546
65.8701
65.784
65.6967
65.6086
65.52
65.4311
65.3421
65.2533
65.1649
65.077
64.9897
64.9033
64.8179
64.7338
64.651
64.5697
64.4902
64.4126
64.3372
64.2641
64.1935
64.1256
64.0606
63.9987
63.9401
63.8848
63.8332
63.7853
63.7414
63.7014
63.6655
63.6339
63.6065
63.5836
63.565
63.5509
63.5412
63.536
63.5353
63.5389
63.5468
63.5591
63.5755
63.5959
63.6204
63.6486
63.6806
63.716
63.7548
63.7969
63.8419
63.8897
63.9403
63.9932
64.0484
64.1057
64.1648
64.2256
64.2879
64.3514
64.4161
64.4816
64.5479
64.6147
64.6819
64.7494
64.8169
64.8843
64.9515
65.0184
65.0847
65.1505
65.2156
65.2799
65.3433
65.4057
65.4671
65.5273
65.5864
65.6442
65.7008
65.7561
65.81
65.8625
65.9137
65.9634
66.0118
66.0587
66.1042
66.1483
66.191
66.2323
66.2723
66.3108
66.3481
66.384
66.4187
66.4521
66.4842
66.5152
66.545
66.5736
66.6011
66.6275
66.6529
66.6773
66.7007
66.7231
66.7446
66.7652
66.7849
66.8038
66.822
66.8393
66.8559
66.8718
66.887
66.9015
66.9154
66.9286
66.9413
66.9535
66.965
66.9761
66.9867
66.9968
67.0064
67.0156
67.0244
67.0328
67.0408
67.0484
67.0557
67.0627
67.0693
67.0756
67.0817
67.0874
67.0929
67.0981
67.1031
67.1079
67.1124
67.1168
67.1209
67.1248
67.1285
67.1321
67.1355
67.1388
67.1418
67.1448
67.1476
67.1503
67.1528
67.1552
67.1576
67.1598
67.1619
67.1639
67.1658
67.1676
67.1693
67.1709
67.1725
67.174
67.1754
67.1768
67.1781
67.1793
67.1805
67.1816
67.1827
67.1837
67.1846
67.1856
67.1864
67.1873
67.1881
67.1888
67.1895
67.1902
67.1909
67.1915
67.1921
67.1927
67.1932
67.1937
67.1942
67.1947
67.1951
67.1955
67.1959
67.1963
67.1967
67.197
67.1973
67.1977
67.198
67.1982
67.1985
67.1988
67.199
67.1993
67.1995
67.1997
67.1999
67.2001
67.2003
67.2005
67.2006
67.2008
67.201
67.2011
67.2012
67.2014
67.2015
67.2016
67.2018
67.2019
67.202
67.2037
67.202
67.1984
67.193
67.1858
67.1767
67.1659
67.1532
67.1387
67.1223
67.1041
67.084
67.0619
67.0379
67.012
66.984
66.954
66.922
66.8877
66.8514
66.8127
66.7717
66.7283
66.6822
66.6332
66.581
66.5254
66.4661
66.403
66.336
66.2652
66.1908
66.113
66.0324
65.9494
65.8643
65.7776
65.6898
65.601
65.5117
65.4221
65.3323
65.2426
65.1533
65.0643
64.976
64.8885
64.802
64.7166
64.6325
64.5499
64.4691
64.3902
64.3134
64.239
64.1671
64.0979
64.0317
63.9686
63.9088
63.8525
63.7999
63.7511
63.7063
63.6656
63.6291
63.597
63.5693
63.546
63.5273
63.5131
63.5036
63.4985
63.4981
63.5022
63.5107
63.5235
63.5407
63.562
63.5874
63.6167
63.6498
63.6864
63.7265
63.7698
63.8162
63.8655
63.9175
63.9719
64.0286
64.0873
64.148
64.2103
64.274
64.3391
64.4052
64.4721
64.5398
64.608
64.6766
64.7453
64.814
64.8827
64.951
65.0189
65.0864
65.1531
65.2191
65.2843
65.3484
65.4116
65.4736
65.5345
65.5941
65.6525
65.7095
65.7652
65.8194
65.8723
65.9237
65.9736
66.0221
66.0692
66.1148
66.1589
66.2016
66.2429
66.2828
66.3213
66.3585
66.3943
66.4288
66.4621
66.4941
66.5248
66.5544
66.5828
66.6102
66.6364
66.6615
66.6857
66.7088
66.731
66.7523
66.7727
66.7922
66.8108
66.8287
66.8458
66.8622
66.8779
66.8928
66.9071
66.9208
66.9339
66.9464
66.9583
66.9697
66.9806
66.991
67.0009
67.0104
67.0194
67.0281
67.0363
67.0442
67.0517
67.0588
67.0656
67.0721
67.0783
67.0843
67.0899
67.0953
67.1004
67.1053
67.11
67.1144
67.1186
67.1227
67.1265
67.1302
67.1337
67.137
67.1402
67.1432
67.1461
67.1488
67.1515
67.1539
67.1563
67.1586
67.1607
67.1628
67.1647
67.1666
67.1684
67.1701
67.1717
67.1732
67.1747
67.1761
67.1774
67.1787
67.1799
67.181
67.1821
67.1831
67.1841
67.1851
67.186
67.1868
67.1876
67.1884
67.1892
67.1899
67.1905
67.1912
67.1918
67.1924
67.1929
67.1934
67.1939
67.1944
67.1949
67.1953
67.1957
67.1961
67.1965
67.1968
67.1972
67.1975
67.1978
67.1981
67.1984
67.1986
67.1989
67.1991
67.1994
67.1996
67.1998
67.2
67.2002
67.2004
67.2005
67.2007
67.2009
67.201
67.2012
67.2013
67.2014
67.2016
67.2017
67.2018
67.2019
67.2021
67.2037
67.202
67.1984
67.1931
67.1859
67.1769
67.1661
67.1534
67.139
67.1227
67.1045
67.0844
67.0624
67.0385
67.0125
66.9846
66.9546
66.9225
66.8883
66.8518
66.8131
66.772
66.7284
66.6821
66.6328
66.5803
66.5243
66.4646
66.401
66.3335
66.2621
66.1871
66.1087
66.0275
65.9439
65.8582
65.7709
65.6823
65.5928
65.5028
65.4123
65.3216
65.231
65.1406
65.0505
64.961
64.8722
64.7843
64.6975
64.612
64.528
64.4457
64.3652
64.2869
64.211
64.1376
64.067
63.9993
63.9349
63.8738
63.8163
63.7626
63.7127
63.667
63.6255
63.5883
63.5556
63.5274
63.5038
63.4849
63.4707
63.4612
63.4564
63.4563
63.4609
63.47
63.4837
63.5017
63.524
63.5505
63.5809
63.6153
63.6533
63.6948
63.7396
63.7875
63.8384
63.892
63.9481
64.0064
64.0669
64.1292
64.1932
64.2587
64.3253
64.3931
64.4617
64.5309
64.6007
64.6707
64.7409
64.811
64.881
64.9506
65.0198
65.0883
65.1562
65.2232
65.2893
65.3544
65.4183
65.4811
65.5427
65.6029
65.6618
65.7194
65.7754
65.8301
65.8832
65.9349
65.9851
66.0338
66.0809
66.1266
66.1708
66.2135
66.2548
66.2946
66.3331
66.3701
66.4058
66.4402
66.4732
66.505
66.5356
66.565
66.5932
66.6202
66.6462
66.6711
66.695
66.7179
66.7398
66.7608
66.7809
66.8002
66.8186
66.8362
66.8531
66.8692
66.8846
66.8994
66.9134
66.9269
66.9397
66.952
66.9637
66.9749
66.9856
66.9958
67.0055
67.0148
67.0237
67.0321
67.0402
67.0479
67.0552
67.0622
67.0689
67.0753
67.0813
67.0871
67.0926
67.0979
67.1029
67.1077
67.1122
67.1166
67.1207
67.1247
67.1284
67.132
67.1354
67.1387
67.1418
67.1447
67.1475
67.1502
67.1528
67.1552
67.1575
67.1597
67.1618
67.1638
67.1657
67.1676
67.1693
67.1709
67.1725
67.174
67.1754
67.1768
67.1781
67.1793
67.1805
67.1816
67.1827
67.1837
67.1846
67.1856
67.1864
67.1873
67.1881
67.1888
67.1895
67.1902
67.1909
67.1915
67.1921
67.1927
67.1932
67.1937
67.1942
67.1947
67.1951
67.1955
67.1959
67.1963
67.1967
67.197
67.1973
67.1977
67.198
67.1982
67.1985
67.1988
67.199
67.1993
67.1995
67.1997
67.1999
67.2001
67.2003
67.2005
67.2006
67.2008
67.2009
67.2011
67.2012
67.2014
67.2015
67.2016
67.2017
67.2019
67.2019
67.2021
67.2037
67.202
67.1985
67.1931
67.186
67.177
67.1663
67.1537
67.1393
67.123
67.1049
67.0849
67.063
67.0391
67.0132
66.9853
66.9553
66.9233
66.889
66.8525
66.8137
66.7725
66.7287
66.6822
66.6326
66.5798
66.5234
66.4632
66.3991
66.331
66.259
66.1833
66.1043
66.0225
65.9381
65.8517
65.7637
65.6744
65.5842
65.4932
65.4018
65.3102
65.2184
65.1268
65.0355
64.9446
64.8544
64.765
64.6766
64.5895
64.5038
64.4198
64.3377
64.2577
64.18
64.105
64.0327
63.9634
63.8974
63.8349
63.776
63.721
63.67
63.6232
63.5808
63.5428
63.5094
63.4807
63.4568
63.4377
63.4234
63.414
63.4095
63.4098
63.415
63.4248
63.4393
63.4583
63.4817
63.5094
63.5412
63.5769
63.6164
63.6595
63.706
63.7557
63.8084
63.8638
63.9217
63.982
64.0443
64.1085
64.1744
64.2417
64.3103
64.3798
64.4502
64.5213
64.5927
64.6644
64.7362
64.8079
64.8793
64.9503
65.0208
65.0907
65.1597
65.2279
65.295
65.3611
65.426
65.4896
65.5519
65.6128
65.6723
65.7304
65.787
65.842
65.8955
65.9475
65.9979
66.0467
66.094
66.1398
66.184
66.2267
66.268
66.3077
66.3461
66.383
66.4185
66.4527
66.4856
66.5171
66.5475
66.5766
66.6045
66.6313
66.657
66.6817
66.7053
66.7279
66.7495
66.7702
66.79
66.809
66.8271
66.8445
66.8611
66.8769
66.892
66.9065
66.9203
66.9335
66.9461
66.9581
66.9696
66.9806
66.991
67.001
67.0105
67.0196
67.0283
67.0365
67.0444
67.0519
67.0591
67.0659
67.0725
67.0787
67.0846
67.0902
67.0956
67.1008
67.1056
67.1103
67.1147
67.119
67.123
67.1268
67.1305
67.134
67.1373
67.1405
67.1435
67.1464
67.1491
67.1517
67.1542
67.1566
67.1588
67.161
67.163
67.165
67.1668
67.1686
67.1703
67.1719
67.1734
67.1748
67.1762
67.1776
67.1788
67.18
67.1811
67.1822
67.1833
67.1842
67.1852
67.1861
67.1869
67.1877
67.1885
67.1892
67.1899
67.1906
67.1912
67.1918
67.1924
67.193
67.1935
67.194
67.1945
67.1949
67.1953
67.1958
67.1961
67.1965
67.1969
67.1972
67.1975
67.1978
67.1981
67.1984
67.1987
67.1989
67.1992
67.1994
67.1996
67.1998
67.2
67.2002
67.2004
67.2006
67.2007
67.2009
67.201
67.2012
67.2013
67.2014
67.2016
67.2017
67.2018
67.2019
67.202
67.2022
67.2037
67.202
67.1985
67.1932
67.1861
67.1772
67.1665
67.154
67.1397
67.1235
67.1055
67.0855
67.0637
67.0399
67.0141
66.9862
66.9563
66.9242
66.8899
66.8534
66.8145
66.7732
66.7292
66.6825
66.6327
66.5795
66.5227
66.462
66.3973
66.3286
66.2559
66.1796
66.0999
66.0174
65.9323
65.8452
65.7564
65.6663
65.5752
65.4833
65.3908
65.2981
65.2051
65.1122
65.0194
64.927
64.8352
64.7441
64.654
64.565
64.4775
64.3916
64.3075
64.2256
64.146
64.0691
63.995
63.9239
63.8562
63.792
63.7316
63.6752
63.6229
63.5749
63.5314
63.4925
63.4584
63.4292
63.4048
63.3855
63.3712
63.3619
63.3576
63.3584
63.3642
63.3748
63.3902
63.4103
63.4349
63.464
63.4973
63.5346
63.5758
63.6207
63.6691
63.7207
63.7753
63.8328
63.8928
63.9551
64.0196
64.0859
64.1539
64.2233
64.2939
64.3655
64.4378
64.5108
64.5841
64.6577
64.7312
64.8046
64.8777
64.9503
65.0223
65.0935
65.1639
65.2333
65.3016
65.3687
65.4345
65.4991
65.5622
65.6239
65.684
65.7427
65.7998
65.8552
65.9091
65.9614
66.012
66.0611
66.1085
66.1543
66.1986
66.2413
66.2825
66.3222
66.3604
66.3971
66.4325
66.4665
66.4991
66.5304
66.5605
66.5893
66.617
66.6435
66.6689
66.6932
66.7165
66.7388
66.7601
66.7805
66.8
66.8186
66.8364
66.8535
66.8697
66.8853
66.9001
66.9143
66.9278
66.9407
66.9531
66.9648
66.976
66.9867
66.997
67.0067
67.016
67.0248
67.0333
67.0414
67.049
67.0564
67.0633
67.07
67.0763
67.0824
67.0881
67.0936
67.0989
67.1039
67.1086
67.1131
67.1174
67.1216
67.1255
67.1292
67.1328
67.1361
67.1394
67.1424
67.1454
67.1482
67.1508
67.1533
67.1557
67.158
67.1602
67.1623
67.1643
67.1662
67.168
67.1697
67.1713
67.1729
67.1744
67.1758
67.1771
67.1784
67.1796
67.1808
67.1819
67.1829
67.1839
67.1849
67.1858
67.1866
67.1875
67.1883
67.189
67.1897
67.1904
67.191
67.1916
67.1922
67.1928
67.1933
67.1938
67.1943
67.1948
67.1952
67.1956
67.196
67.1964
67.1968
67.1971
67.1974
67.1977
67.198
67.1983
67.1986
67.1988
67.1991
67.1993
67.1995
67.1997
67.1999
67.2001
67.2003
67.2005
67.2007
67.2008
67.201
67.2011
67.2013
67.2014
67.2015
67.2016
67.2018
67.2019
67.202
67.2021
67.2022
67.2037
67.202
67.1985
67.1933
67.1862
67.1774
67.1668
67.1544
67.1401
67.1241
67.1061
67.0863
67.0645
67.0408
67.0151
66.9873
66.9574
66.9254
66.8911
66.8546
66.8156
66.7742
66.7301
66.6831
66.633
66.5795
66.5223
66.4611
66.3958
66.3264
66.2531
66.176
66.0956
66.0123
65.9265
65.8386
65.7489
65.658
65.5659
65.473
65.3794
65.2854
65.1911
65.0967
65.0024
64.9083
64.8147
64.7217
64.6296
64.5386
64.449
64.361
64.2748
64.1907
64.109
64.0299
63.9537
63.8807
63.8111
63.7451
63.6829
63.6249
63.5711
63.5218
63.4772
63.4373
63.4023
63.3724
63.3477
63.328
63.3137
63.3045
63.3006
63.3019
63.3083
63.3198
63.3363
63.3576
63.3836
63.4142
63.4491
63.4883
63.5314
63.5782
63.6287
63.6824
63.7393
63.7989
63.8612
63.9259
63.9926
64.0613
64.1316
64.2032
64.2761
64.3499
64.4245
64.4996
64.575
64.6506
64.7261
64.8013
64.8762
64.9505
65.0241
65.0969
65.1687
65.2394
65.309
65.3772
65.4442
65.5097
65.5737
65.6361
65.697
65.7563
65.8139
65.8698
65.9241
65.9767
66.0276
66.0768
66.1244
66.1703
66.2146
66.2573
66.2984
66.3379
66.376
66.4126
66.4477
66.4815
66.5138
66.5449
66.5747
66.6032
66.6305
66.6567
66.6818
66.7057
66.7287
66.7506
66.7716
66.7916
66.8107
66.829
66.8465
66.8632
66.8791
66.8943
66.9088
66.9227
66.9359
66.9485
66.9605
66.972
66.983
66.9934
67.0033
67.0128
67.0219
67.0305
67.0387
67.0465
67.054
67.0611
67.0679
67.0743
67.0805
67.0864
67.092
67.0973
67.1024
67.1072
67.1118
67.1162
67.1204
67.1243
67.1281
67.1317
67.1352
67.1384
67.1416
67.1445
67.1474
67.1501
67.1526
67.1551
67.1574
67.1596
67.1617
67.1638
67.1657
67.1675
67.1692
67.1709
67.1725
67.174
67.1754
67.1767
67.178
67.1793
67.1805
67.1816
67.1826
67.1837
67.1846
67.1855
67.1864
67.1873
67.188
67.1888
67.1895
67.1902
67.1909
67.1915
67.1921
67.1926
67.1932
67.1937
67.1942
67.1946
67.1951
67.1955
67.1959
67.1963
67.1967
67.197
67.1973
67.1976
67.1979
67.1982
67.1985
67.1988
67.199
67.1992
67.1995
67.1997
67.1999
67.2001
67.2003
67.2004
67.2006
67.2008
67.2009
67.2011
67.2012
67.2014
67.2015
67.2016
67.2017
67.2018
67.2019
67.202
67.2021
67.2023
67.2037
67.202
67.1986
67.1934
67.1864
67.1776
67.1671
67.1548
67.1407
67.1247
67.1069
67.0872
67.0655
67.0419
67.0163
66.9886
66.9588
66.9268
66.8926
66.8561
66.8171
66.7756
66.7313
66.6842
66.6338
66.5799
66.5222
66.4605
66.3947
66.3246
66.2506
66.1728
66.0916
66.0074
65.9208
65.832
65.7415
65.6496
65.5565
65.4624
65.3676
65.2723
65.1765
65.0805
64.9844
64.8884
64.7928
64.6978
64.6035
64.5103
64.4183
64.3279
64.2394
64.1529
64.0688
63.9874
63.9089
63.8336
63.7619
63.6938
63.6298
63.5699
63.5145
63.4638
63.4178
63.3768
63.341
63.3104
63.2851
63.2652
63.2507
63.2417
63.2382
63.24
63.2472
63.2597
63.2773
63.3
63.3275
63.3598
63.3966
63.4377
63.4829
63.5319
63.5847
63.6408
63.7
63.7622
63.827
63.8942
63.9635
64.0347
64.1075
64.1817
64.2571
64.3333
64.4103
64.4877
64.5654
64.6432
64.7208
64.7981
64.8749
64.951
65.0264
65.1008
65.1742
65.2464