/*--------------------------------*- C++ -*----------------------------------*\
| =========                 |                                                 |
| \\      /  F ield         | OpenFOAM: The Open Source CFD Toolbox           |
|  \\    /   O peration     | Version:  2306                                  |
|   \\  /    A nd           | Website:  www.openfoam.com                      |
|    \\/     M anipulation  |                                                 |
\*---------------------------------------------------------------------------*/
FoamFile
{
    version     2.0;
    format      ascii;
    arch        "LSB;label=32;scalar=64";
    class       volScalarField;
    location    "1";
    object      p;
}
// * * * * * * * * * * * * * * * * * * * * * * * * * * * * * * * * * * * * * //

dimensions      [0 2 -2 0 0 0 0];

internalField   nonuniform List<scalar> 
32768
(
0.280556
0.280437
0.280179
0.279771
0.279216
0.278515
0.277668
0.276675
0.275532
0.274241
0.272798
0.271202
0.269453
0.267548
0.265485
0.263263
0.26088
0.258335
0.255624
0.252746
0.2497
0.246483
0.243094
0.239531
0.235791
0.231873
0.227775
0.223493
0.219026
0.214371
0.209524
0.204485
0.19925
0.193819
0.188193
0.182373
0.176361
0.170163
0.163784
0.157231
0.150513
0.143639
0.13662
0.129468
0.122195
0.114815
0.107342
0.0997921
0.0921801
0.0845229
0.0768373
0.069141
0.0614519
0.0537881
0.0461681
0.0386105
0.0311338
0.0237563
0.0164964
0.00937178
0.00239993
-0.00440238
-0.011019
-0.0174347
-0.023635
-0.0296065
-0.0353368
-0.0408149
-0.0460307
-0.0509756
-0.0556422
-0.0600246
-0.0641181
-0.0679195
-0.0714269
-0.0746398
-0.077559
-0.0801866
-0.0825259
-0.0845814
-0.0863586
-0.087864
-0.0891053
-0.0900907
-0.0908294
-0.0913312
-0.0916064
-0.091666
-0.0915211
-0.0911833
-0.0906644
-0.0899762
-0.0891308
-0.0881399
-0.0870156
-0.0857694
-0.0844128
-0.082957
-0.0814129
-0.0797911
-0.0781017
-0.0763544
-0.0745585
-0.0727228
-0.0708556
-0.0689649
-0.0670578
-0.0651414
-0.063222
-0.0613053
-0.0593969
-0.0575017
-0.055624
-0.0537681
-0.0519374
-0.0501351
-0.0483642
-0.0466271
-0.0449258
-0.0432622
-0.0416377
-0.0400537
-0.038511
-0.0370104
-0.0355524
-0.0341372
-0.0327651
-0.031436
-0.0301496
-0.0289057
-0.0277039
-0.0265435
-0.0254241
-0.0243448
-0.0233049
-0.0223036
-0.02134
-0.0204132
-0.0195223
-0.0186662
-0.017844
-0.0170548
-0.0162974
-0.0155709
-0.0148744
-0.0142067
-0.013567
-0.0129542
-0.0123674
-0.0118057
-0.0112681
-0.0107537
-0.0102616
-0.00979104
-0.0093411
-0.00891098
-0.00849989
-0.00810707
-0.00773176
-0.00737324
-0.00703083
-0.00670384
-0.00639162
-0.00609356
-0.00580903
-0.00553747
-0.00527831
-0.00503101
-0.00479505
-0.00456994
-0.00435519
-0.00415035
-0.00395498
-0.00376865
-0.00359096
-0.00342152
-0.00325996
-0.00310592
-0.00295906
-0.00281905
-0.00268558
-0.00255835
-0.00243707
-0.00232148
-0.0022113
-0.0021063
-0.00200622
-0.00191084
-0.00181995
-0.00173333
-0.00165078
-0.00157212
-0.00149716
-0.00142573
-0.00135766
-0.0012928
-0.00123099
-0.00117209
-0.00111597
-0.00106248
-0.00101152
-0.000962951
-0.000916666
-0.000872555
-0.000830516
-0.000790449
-0.000752259
-0.000715857
-0.000681157
-0.000648077
-0.000616538
-0.000586466
-0.00055779
-0.000530442
-0.000504357
-0.000479473
-0.000455732
-0.000433076
-0.000411453
-0.00039081
-0.000371098
-0.000352272
-0.000334285
-0.000317096
-0.000300663
-0.000284947
-0.00026991
-0.000255518
-0.000241735
-0.000228529
-0.000215868
-0.000203722
-0.000192062
-0.000180861
-0.000170091
-0.000159727
-0.000149744
-0.000140118
-0.000130827
-0.000121848
-0.00011316
-0.000104742
-9.65734e-05
-8.86357e-05
-8.09095e-05
-7.33765e-05
-6.60183e-05
-5.88185e-05
-5.17573e-05
-4.48242e-05
-3.79868e-05
-3.12684e-05
-2.45547e-05
-1.80693e-05
-1.11755e-05
-5.19125e-06
0.2807
0.280581
0.280323
0.279915
0.27936
0.27866
0.277814
0.276821
0.275679
0.274388
0.272945
0.271351
0.269602
0.267697
0.265635
0.263414
0.261032
0.258486
0.255775
0.252898
0.249851
0.246634
0.243245
0.23968
0.235939
0.23202
0.22792
0.223636
0.219166
0.214507
0.209657
0.204613
0.199374
0.193938
0.188306
0.182479
0.176461
0.170255
0.163868
0.157306
0.150578
0.143694
0.136665
0.129501
0.122217
0.114824
0.107339
0.0997753
0.0921497
0.0844784
0.0767787
0.069068
0.0613643
0.0536859
0.0460514
0.0384793
0.0309883
0.0235969
0.0163233
0.00918552
0.00220096
-0.00461348
-0.0112416
-0.0176681
-0.0238784
-0.0298591
-0.0355978
-0.0410833
-0.0463057
-0.0512561
-0.0559274
-0.0603134
-0.0644095
-0.0682126
-0.0717207
-0.0749334
-0.0778515
-0.0804771
-0.0828134
-0.0848651
-0.0866378
-0.088138
-0.0893733
-0.0903521
-0.0910837
-0.0915778
-0.0918449
-0.0918959
-0.0917421
-0.0913951
-0.0908668
-0.0901689
-0.0893137
-0.088313
-0.0871787
-0.0859226
-0.0845562
-0.0830907
-0.081537
-0.0799058
-0.0782071
-0.0764508
-0.0746462
-0.0728021
-0.0709268
-0.0690282
-0.0671137
-0.0651901
-0.0632639
-0.0613408
-0.0594264
-0.0575254
-0.0556425
-0.0537815
-0.0519462
-0.0501397
-0.0483649
-0.0466241
-0.0449195
-0.0432529
-0.0416258
-0.0400394
-0.0384945
-0.036992
-0.0355323
-0.0341158
-0.0327424
-0.0314122
-0.030125
-0.0288804
-0.027678
-0.0265173
-0.0253976
-0.0243181
-0.0232782
-0.0222769
-0.0213135
-0.0203869
-0.0194962
-0.0186404
-0.0178187
-0.0170298
-0.0162729
-0.015547
-0.0148509
-0.0141838
-0.0135447
-0.0129325
-0.0123463
-0.0117852
-0.0112482
-0.0107344
-0.0102429
-0.00977296
-0.00932362
-0.0088941
-0.0084836
-0.00809135
-0.00771661
-0.00735865
-0.00701678
-0.00669032
-0.00637863
-0.00608106
-0.00579703
-0.00552595
-0.00526725
-0.00502039
-0.00478487
-0.00456018
-0.00434584
-0.00414139
-0.0039464
-0.00376043
-0.00358309
-0.00341399
-0.00325276
-0.00309903
-0.00295247
-0.00281275
-0.00267955
-0.00255259
-0.00243157
-0.00231623
-0.00220629
-0.0021015
-0.00200164
-0.00190647
-0.00181578
-0.00172935
-0.00164698
-0.00156849
-0.0014937
-0.00142243
-0.00135451
-0.0012898
-0.00122813
-0.00116936
-0.00111337
-0.00106001
-0.00100916
-0.000960698
-0.000914519
-0.00087051
-0.000828568
-0.000788593
-0.000750491
-0.000714173
-0.000679554
-0.00064655
-0.000615084
-0.000585083
-0.000556473
-0.000529189
-0.000503165
-0.00047834
-0.000454654
-0.000432051
-0.000410479
-0.000389884
-0.000370219
-0.000351437
-0.000333493
-0.000316344
-0.00029995
-0.000284271
-0.00026927
-0.000254912
-0.000241161
-0.000227986
-0.000215355
-0.000203238
-0.000191606
-0.000180431
-0.000169687
-0.000159347
-0.000149388
-0.000139785
-0.000130516
-0.000121558
-0.000112891
-0.000104493
-9.63439e-05
-8.8425e-05
-8.07172e-05
-7.32021e-05
-6.58614e-05
-5.86787e-05
-5.16342e-05
-4.47178e-05
-3.78961e-05
-3.11945e-05
-2.44935e-05
-1.80283e-05
-1.1134e-05
-5.20279e-06
0.280988
0.280869
0.280611
0.280204
0.27965
0.27895
0.278105
0.277113
0.275972
0.274682
0.273241
0.271648
0.2699
0.267997
0.265936
0.263716
0.261334
0.258789
0.256079
0.253202
0.250155
0.246937
0.243546
0.23998
0.236237
0.232315
0.22821
0.223922
0.219447
0.214782
0.209924
0.204872
0.199623
0.194177
0.188533
0.182693
0.176661
0.17044
0.164036
0.157456
0.15071
0.143806
0.136754
0.129568
0.12226
0.114843
0.107332
0.0997417
0.0920888
0.0843895
0.0766613
0.0689216
0.0611887
0.0534811
0.0458173
0.0382162
0.0306966
0.0232771
0.0159761
0.00881176
0.00180168
-0.00503714
-0.0116884
-0.0181365
-0.024367
-0.0303662
-0.0361217
-0.0416222
-0.0468576
-0.0518193
-0.0564998
-0.0608931
-0.0649946
-0.0688011
-0.0723106
-0.0755228
-0.0784386
-0.08106
-0.0833905
-0.0854347
-0.0871982
-0.0886878
-0.0899112
-0.0908768
-0.091594
-0.0920727
-0.0923234
-0.0923572
-0.0921855
-0.09182
-0.0912727
-0.0905555
-0.0896806
-0.0886601
-0.087506
-0.08623
-0.0848438
-0.0833588
-0.0817858
-0.0801356
-0.0784185
-0.0766441
-0.074822
-0.0729609
-0.0710692
-0.069155
-0.0672255
-0.0652876
-0.0633477
-0.0614118
-0.0594852
-0.0575729
-0.0556792
-0.0538084
-0.0519638
-0.0501487
-0.048366
-0.046618
-0.0449069
-0.0432343
-0.0416018
-0.0400105
-0.0384614
-0.0369551
-0.0354921
-0.0340726
-0.0326968
-0.0313645
-0.0300756
-0.0288296
-0.0276261
-0.0264646
-0.0253443
-0.0242645
-0.0232245
-0.0222233
-0.0212601
-0.020334
-0.0194438
-0.0185888
-0.0177677
-0.0169798
-0.0162238
-0.0154989
-0.0148039
-0.014138
-0.0134999
-0.0128889
-0.0123039
-0.011744
-0.0112082
-0.0106957
-0.0102055
-0.00973672
-0.00928859
-0.00886027
-0.00845095
-0.00805986
-0.00768626
-0.00732942
-0.00698864
-0.00666325
-0.00635259
-0.00605604
-0.00577299
-0.00550286
-0.00524509
-0.00499913
-0.00476448
-0.00454063
-0.0043271
-0.00412344
-0.0039292
-0.00374397
-0.00356734
-0.00339891
-0.00323833
-0.00308523
-0.00293927
-0.00280013
-0.00266749
-0.00254107
-0.00242056
-0.0023057
-0.00219624
-0.00209191
-0.00199248
-0.00189772
-0.00180743
-0.00172137
-0.00163937
-0.00156123
-0.00148677
-0.00141582
-0.00134821
-0.00128379
-0.0012224
-0.0011639
-0.00110816
-0.00105504
-0.00100442
-0.000956188
-0.000910221
-0.000866415
-0.000824666
-0.000784876
-0.000746951
-0.000710802
-0.000676343
-0.000643493
-0.000612174
-0.000582313
-0.000553837
-0.000526681
-0.000500779
-0.00047607
-0.000452496
-0.00043
-0.000408528
-0.000388031
-0.000368459
-0.000349766
-0.000331906
-0.000314839
-0.000298522
-0.000282917
-0.000267988
-0.000253697
-0.000240012
-0.0002269
-0.000214329
-0.000202269
-0.000190693
-0.000179571
-0.000168877
-0.000158587
-0.000148675
-0.000139118
-0.000129893
-0.000120978
-0.000112352
-0.000103994
-9.58841e-05
-8.8003e-05
-8.03319e-05
-7.28527e-05
-6.5547e-05
-5.83986e-05
-5.13876e-05
-4.45042e-05
-3.77149e-05
-3.10452e-05
-2.43756e-05
-1.7942e-05
-1.10796e-05
-5.1849e-06
0.28142
0.281301
0.281044
0.280637
0.280084
0.279386
0.278542
0.277551
0.276412
0.275124
0.273685
0.272094
0.270348
0.268447
0.266388
0.264169
0.261789
0.259245
0.256535
0.253658
0.250611
0.247392
0.243999
0.240431
0.236684
0.232757
0.228647
0.224352
0.219869
0.215194
0.210326
0.205261
0.199998
0.194536
0.188874
0.183015
0.176962
0.170718
0.164289
0.157683
0.150908
0.143973
0.13689
0.12967
0.122326
0.114871
0.107322
0.0996916
0.0919974
0.084256
0.0764847
0.0687015
0.0609246
0.0531728
0.045465
0.0378202
0.0302574
0.0227955
0.0154533
0.00824894
0.00120039
-0.00567515
-0.0123612
-0.0188419
-0.0251027
-0.0311298
-0.0369106
-0.0424336
-0.0476888
-0.0526673
-0.0573617
-0.061766
-0.0658755
-0.0696869
-0.0731985
-0.07641
-0.0793221
-0.0819372
-0.0842588
-0.0862916
-0.0880414
-0.089515
-0.0907203
-0.091666
-0.0923614
-0.0928168
-0.0930429
-0.0930507
-0.092852
-0.0924586
-0.0918826
-0.0911362
-0.0902317
-0.0891814
-0.0879973
-0.0866914
-0.0852755
-0.083761
-0.082159
-0.0804804
-0.0787353
-0.0769338
-0.0750853
-0.0731987
-0.0712825
-0.0693447
-0.0673926
-0.0654332
-0.0634729
-0.0615177
-0.0595728
-0.0576434
-0.0557337
-0.0538479
-0.0519895
-0.0501616
-0.0483671
-0.0466083
-0.0448873
-0.0432058
-0.0415652
-0.0399667
-0.0384112
-0.0368992
-0.0354312
-0.0340075
-0.032628
-0.0312926
-0.0300011
-0.0287531
-0.027548
-0.0263853
-0.0252642
-0.024184
-0.0231438
-0.0221428
-0.02118
-0.0202545
-0.0193652
-0.0185111
-0.0176913
-0.0169047
-0.0161502
-0.0154268
-0.0147334
-0.0140691
-0.0134328
-0.0128236
-0.0122404
-0.0116823
-0.0111484
-0.0106377
-0.0101493
-0.0096824
-0.00923609
-0.00880956
-0.00840201
-0.00801266
-0.00764077
-0.00728561
-0.00694646
-0.00662267
-0.00631358
-0.00601854
-0.00573697
-0.00546827
-0.00521189
-0.00496729
-0.00473394
-0.00451135
-0.00429904
-0.00409656
-0.00390346
-0.00371932
-0.00354374
-0.00337633
-0.00321672
-0.00306456
-0.00291951
-0.00278124
-0.00264944
-0.00252381
-0.00240407
-0.00228995
-0.00218119
-0.00207754
-0.00197876
-0.00188463
-0.00179492
-0.00170944
-0.00162799
-0.00155037
-0.00147641
-0.00140593
-0.00133878
-0.00127479
-0.00121382
-0.00115572
-0.00110036
-0.00104761
-0.00099734
-0.000949437
-0.000903788
-0.000860285
-0.000818826
-0.000779312
-0.000741652
-0.000705755
-0.000671537
-0.000638917
-0.000607818
-0.000578167
-0.000549892
-0.000522927
-0.000497207
-0.000472673
-0.000449265
-0.000426929
-0.00040561
-0.000385258
-0.000365825
-0.000347264
-0.000329532
-0.000312585
-0.000296385
-0.000280891
-0.000266068
-0.00025188
-0.000238292
-0.000225274
-0.000212793
-0.000200819
-0.000189325
-0.000178283
-0.000167666
-0.00015745
-0.000147609
-0.00013812
-0.000128962
-0.00012011
-0.000111546
-0.000103248
-9.5196e-05
-8.73714e-05
-7.97554e-05
-7.23298e-05
-6.50765e-05
-5.79794e-05
-5.10187e-05
-4.41846e-05
-3.74439e-05
-3.08221e-05
-2.42003e-05
-1.78133e-05
-1.10005e-05
-5.14883e-06
0.281995
0.281877
0.28162
0.281215
0.280662
0.279966
0.279124
0.278135
0.276999
0.275713
0.274277
0.272688
0.270945
0.269046
0.26699
0.264773
0.262395
0.259852
0.257144
0.254267
0.25122
0.248
0.244605
0.241033
0.237282
0.233349
0.229232
0.224928
0.220433
0.215746
0.210863
0.205782
0.2005
0.195016
0.189332
0.183447
0.177365
0.171091
0.164629
0.157987
0.151174
0.144198
0.137072
0.129806
0.122415
0.11491
0.107309
0.099625
0.0918756
0.0840776
0.0762486
0.0684068
0.0605709
0.0527598
0.0449929
0.0372893
0.0296686
0.0221499
0.0147522
0.0074942
0.000394025
-0.00653079
-0.0132635
-0.019788
-0.0260895
-0.0321539
-0.0379685
-0.0435218
-0.0488034
-0.0538044
-0.0585174
-0.0629362
-0.0670563
-0.0708743
-0.0743886
-0.0775989
-0.0805061
-0.0831126
-0.0854221
-0.0874395
-0.0891706
-0.0906227
-0.0918037
-0.0927224
-0.0933887
-0.0938127
-0.0940055
-0.0939785
-0.0937435
-0.0933126
-0.0926981
-0.0919125
-0.0909683
-0.0898779
-0.0886536
-0.0873076
-0.0858518
-0.0842978
-0.082657
-0.0809401
-0.0791577
-0.0773198
-0.075436
-0.0735153
-0.0715662
-0.0695968
-0.0676145
-0.0656264
-0.0636388
-0.0616577
-0.0596885
-0.0577362
-0.0558052
-0.0538994
-0.0520225
-0.0501776
-0.0483674
-0.0465942
-0.0448601
-0.0431667
-0.0415154
-0.0399074
-0.0383433
-0.0368238
-0.0353492
-0.0339198
-0.0325355
-0.031196
-0.0299011
-0.0286504
-0.0274433
-0.026279
-0.0251569
-0.0240761
-0.0230358
-0.0220351
-0.0210729
-0.0201482
-0.0192601
-0.0184075
-0.0175892
-0.0168044
-0.0160518
-0.0153305
-0.0146393
-0.0139773
-0.0133433
-0.0127365
-0.0121557
-0.0116001
-0.0110686
-0.0105604
-0.0100745
-0.00961001
-0.00916612
-0.00874199
-0.00833681
-0.00794979
-0.00758018
-0.00722725
-0.0068903
-0.00656864
-0.00626163
-0.00596862
-0.00568902
-0.00542223
-0.00516771
-0.0049249
-0.00469329
-0.00447238
-0.0042617
-0.00406078
-0.00386919
-0.00368651
-0.00351234
-0.00334628
-0.00318798
-0.00303707
-0.00289322
-0.0027561
-0.00262541
-0.00250085
-0.00238214
-0.002269
-0.00216118
-0.00205843
-0.00196051
-0.00186721
-0.00177829
-0.00169357
-0.00161284
-0.00153592
-0.00146262
-0.00139278
-0.00132624
-0.00126283
-0.00120241
-0.00114485
-0.00108999
-0.00103772
-0.000987919
-0.000940459
-0.000895232
-0.000852133
-0.000811059
-0.000771914
-0.000734605
-0.000699044
-0.000665147
-0.000632833
-0.000602026
-0.000572654
-0.000544645
-0.000517935
-0.000492459
-0.000468156
-0.00044497
-0.000422845
-0.000401728
-0.00038157
-0.000362322
-0.000343938
-0.000326374
-0.000309589
-0.000293543
-0.000278198
-0.000263516
-0.000249463
-0.000236006
-0.000223112
-0.00021075
-0.000198891
-0.000187507
-0.000176571
-0.000166056
-0.000155937
-0.000146191
-0.000136793
-0.000127722
-0.000118956
-0.000110474
-0.000102256
-9.42811e-05
-8.65317e-05
-7.89888e-05
-7.16345e-05
-6.44509e-05
-5.7422e-05
-5.05282e-05
-4.37598e-05
-3.70838e-05
-3.05257e-05
-2.39675e-05
-1.76422e-05
-1.08947e-05
-5.09947e-06
0.282713
0.282596
0.282339
0.281935
0.281385
0.28069
0.279851
0.278865
0.277732
0.276449
0.275016
0.273431
0.271691
0.269796
0.267743
0.265529
0.263153
0.260613
0.257906
0.25503
0.251982
0.248761
0.245364
0.241788
0.238031
0.234091
0.229965
0.22565
0.221142
0.216439
0.211538
0.206436
0.201131
0.195621
0.189907
0.183991
0.177874
0.171561
0.165057
0.158371
0.151509
0.144483
0.137302
0.12998
0.122528
0.114961
0.107294
0.0995423
0.0917233
0.0838539
0.0759521
0.0680366
0.0601262
0.0522404
0.0443988
0.0366213
0.0289274
0.021337
0.0138695
0.00654378
-0.000621472
-0.0076084
-0.0143999
-0.0209796
-0.0273322
-0.0334437
-0.0393009
-0.0448921
-0.0502068
-0.0552361
-0.0599724
-0.0644094
-0.0685426
-0.0723688
-0.0758863
-0.0790949
-0.0819957
-0.0845912
-0.0868852
-0.088883
-0.0905905
-0.0920152
-0.0931653
-0.09405
-0.0946792
-0.0950636
-0.0952144
-0.0951433
-0.0948625
-0.0943842
-0.0937212
-0.0928862
-0.0918918
-0.0907509
-0.0894759
-0.0880794
-0.0865733
-0.0849696
-0.0832798
-0.0815149
-0.0796855
-0.0778019
-0.0758737
-0.0739101
-0.0719197
-0.0699106
-0.0678905
-0.0658663
-0.0638444
-0.061831
-0.0598313
-0.0578504
-0.0558926
-0.0539619
-0.0520619
-0.0501956
-0.0483658
-0.0465747
-0.0448243
-0.0431161
-0.0414515
-0.0398315
-0.0382569
-0.0367281
-0.0352454
-0.0338089
-0.0324186
-0.0310741
-0.0297752
-0.0285211
-0.0273114
-0.0261453
-0.025022
-0.0239407
-0.0229003
-0.0218999
-0.0209385
-0.020015
-0.0191284
-0.0182775
-0.0174613
-0.0166787
-0.0159286
-0.0152099
-0.0145215
-0.0138623
-0.0132313
-0.0126275
-0.0120498
-0.0114973
-0.0109689
-0.0104638
-0.00998095
-0.00951956
-0.00907872
-0.0086576
-0.00825539
-0.00787128
-0.00750454
-0.00715441
-0.00682019
-0.00650121
-0.0061968
-0.00590632
-0.00562918
-0.00536479
-0.00511258
-0.00487202
-0.00464258
-0.00442377
-0.00421512
-0.00401616
-0.00382646
-0.00364561
-0.00347319
-0.00330882
-0.00315214
-0.00300279
-0.00286045
-0.00272477
-0.00259547
-0.00247224
-0.0023548
-0.00224288
-0.00213623
-0.00203461
-0.00193777
-0.00184549
-0.00175757
-0.00167379
-0.00159397
-0.00151791
-0.00144545
-0.0013764
-0.00131061
-0.00124793
-0.0011882
-0.0011313
-0.00107708
-0.00102541
-0.000976182
-0.000929274
-0.000884574
-0.000841977
-0.000801384
-0.000762698
-0.000725827
-0.000690684
-0.000657186
-0.000625254
-0.000594811
-0.000565786
-0.00053811
-0.000511716
-0.000486543
-0.00046253
-0.00043962
-0.000417759
-0.000396894
-0.000376976
-0.000357958
-0.000339794
-0.000322441
-0.000305858
-0.000290004
-0.000274843
-0.000260337
-0.000246453
-0.000233158
-0.000220419
-0.000208206
-0.00019649
-0.000185243
-0.000174438
-0.00016405
-0.000154054
-0.000144425
-0.000135141
-0.000126179
-0.000117519
-0.000109139
-0.00010102
-9.31416e-05
-8.54858e-05
-7.8034e-05
-7.07686e-05
-6.36718e-05
-5.67278e-05
-4.99173e-05
-4.32307e-05
-3.66354e-05
-3.01566e-05
-2.36777e-05
-1.74288e-05
-1.0763e-05
-5.03781e-06
0.283574
0.283457
0.283202
0.282799
0.282251
0.281559
0.280722
0.27974
0.27861
0.277332
0.275903
0.274322
0.272587
0.270696
0.268647
0.266437
0.264065
0.261527
0.258822
0.255947
0.252899
0.249677
0.246277
0.242697
0.238934
0.234986
0.230849
0.226521
0.221998
0.217276
0.212354
0.207227
0.201894
0.196353
0.190604
0.184649
0.178489
0.17213
0.165577
0.158836
0.151917
0.144829
0.137583
0.130191
0.122666
0.115023
0.107277
0.0994439
0.0915405
0.0835846
0.0755946
0.0675895
0.0595888
0.0516124
0.0436803
0.0358129
0.0280304
0.020353
0.0128007
0.00539292
-0.00185125
-0.00891347
-0.0157762
-0.0224227
-0.0288374
-0.0350057
-0.0409144
-0.0465514
-0.0519062
-0.0569695
-0.0617338
-0.0661927
-0.0703416
-0.0741774
-0.0776985
-0.0809047
-0.0837974
-0.0863793
-0.0886543
-0.0906279
-0.0923066
-0.0936978
-0.0948103
-0.0956534
-0.0962376
-0.0965737
-0.0966734
-0.0965487
-0.0962121
-0.0956763
-0.0949544
-0.0940593
-0.0930041
-0.0918019
-0.0904656
-0.0890077
-0.0874408
-0.0857769
-0.0840278
-0.0822048
-0.0803186
-0.0783797
-0.0763978
-0.0743824
-0.0723422
-0.0702853
-0.0682195
-0.0661518
-0.0640887
-0.0620363
-0.0599999
-0.0579845
-0.0559946
-0.054034
-0.0521063
-0.0502145
-0.0483612
-0.0465486
-0.0447786
-0.0430528
-0.0413724
-0.0397382
-0.038151
-0.0366111
-0.0351188
-0.033674
-0.0322766
-0.0309262
-0.0296224
-0.0283646
-0.0271519
-0.0259838
-0.0248591
-0.0237771
-0.0227367
-0.0217368
-0.0207764
-0.0198545
-0.0189697
-0.0181211
-0.0173074
-0.0165276
-0.0157805
-0.015065
-0.0143799
-0.0137242
-0.0130968
-0.0124967
-0.0119227
-0.0113739
-0.0108492
-0.0103479
-0.00986878
-0.0094111
-0.00897394
-0.00855644
-0.0081578
-0.0077772
-0.0074139
-0.00706714
-0.00673621
-0.00642044
-0.00611916
-0.00583173
-0.00555754
-0.00529602
-0.00504659
-0.00480872
-0.00458189
-0.0043656
-0.00415938
-0.00396277
-0.00377534
-0.00359667
-0.00342635
-0.00326401
-0.00310927
-0.0029618
-0.00282125
-0.0026873
-0.00255966
-0.00243802
-0.0023221
-0.00221165
-0.00210641
-0.00200613
-0.00191058
-0.00181954
-0.0017328
-0.00165015
-0.00157141
-0.00149639
-0.00142491
-0.00135681
-0.00129193
-0.00123011
-0.00117122
-0.0011151
-0.00106164
-0.00101069
-0.000962155
-0.000915906
-0.000871836
-0.000829841
-0.000789821
-0.000751683
-0.000715336
-0.000680693
-0.000647673
-0.000616196
-0.000586189
-0.00055758
-0.0005303
-0.000504286
-0.000479474
-0.000455807
-0.000433227
-0.000411681
-0.000391117
-0.000371488
-0.000352745
-0.000334843
-0.000317742
-0.000301399
-0.000285775
-0.000270834
-0.000256539
-0.000242857
-0.000229755
-0.000217201
-0.000205166
-0.000193621
-0.000182538
-0.000171891
-0.000161654
-0.000151803
-0.000142315
-0.000133166
-0.000124335
-0.000115801
-0.000107544
-9.95432e-05
-9.17802e-05
-8.42362e-05
-7.68933e-05
-6.9734e-05
-6.2741e-05
-5.58984e-05
-4.91874e-05
-4.25986e-05
-3.60997e-05
-2.97156e-05
-2.33314e-05
-1.7174e-05
-1.06056e-05
-4.96406e-06
0.284578
0.284461
0.284207
0.283806
0.28326
0.282571
0.281738
0.28076
0.279635
0.278362
0.276938
0.275362
0.273632
0.271747
0.269703
0.267498
0.26513
0.262596
0.259893
0.25702
0.253973
0.250749
0.247346
0.243762
0.239992
0.236035
0.231886
0.227543
0.223002
0.21826
0.213312
0.208157
0.202791
0.197214
0.191424
0.185424
0.179215
0.172802
0.16619
0.159386
0.152399
0.145239
0.137916
0.130442
0.122832
0.1151
0.10726
0.0993302
0.0913271
0.0832691
0.0751749
0.0670641
0.0589567
0.0508731
0.042834
0.0348604
0.0269731
0.019193
0.0115405
0.00403577
-0.00330159
-0.0104527
-0.0173995
-0.0241248
-0.0306126
-0.0368479
-0.0428172
-0.0485082
-0.05391
-0.0590133
-0.0638102
-0.0682946
-0.0724617
-0.0763085
-0.0798334
-0.0830365
-0.0859192
-0.0884845
-0.0907368
-0.0926815
-0.0943256
-0.095677
-0.0967446
-0.0975384
-0.098069
-0.0983478
-0.0983869
-0.0981987
-0.0977961
-0.0971922
-0.0964006
-0.0954345
-0.0943075
-0.0930329
-0.091624
-0.0900939
-0.0884552
-0.0867204
-0.0849014
-0.0830098
-0.0810568
-0.0790528
-0.0770079
-0.0749316
-0.0728328
-0.0707198
-0.0686003
-0.0664816
-0.0643702
-0.0622721
-0.0601928
-0.0581372
-0.0561097
-0.0541142
-0.0521542
-0.0502326
-0.0483519
-0.0465144
-0.0447217
-0.0429754
-0.0412766
-0.039626
-0.0380243
-0.0364717
-0.0349683
-0.033514
-0.0321085
-0.0307514
-0.0294421
-0.02818
-0.0269641
-0.0257936
-0.0246675
-0.0235849
-0.0225446
-0.0215455
-0.0205865
-0.0196663
-0.0187839
-0.0179379
-0.0171273
-0.0163509
-0.0156073
-0.0148956
-0.0142145
-0.013563
-0.0129398
-0.0123439
-0.0117743
-0.0112299
-0.0107097
-0.0102127
-0.009738
-0.00928467
-0.00885181
-0.00843857
-0.00804411
-0.00766762
-0.00730834
-0.00696552
-0.00663845
-0.00632642
-0.00602879
-0.00574492
-0.00547419
-0.00521601
-0.00496983
-0.0047351
-0.00451131
-0.00429796
-0.00409457
-0.0039007
-0.00371591
-0.00353977
-0.0033719
-0.00321192
-0.00305945
-0.00291415
-0.0027757
-0.00264376
-0.00251805
-0.00239826
-0.00228412
-0.00217537
-0.00207176
-0.00197305
-0.00187899
-0.00178939
-0.00170402
-0.00162269
-0.00154521
-0.00147139
-0.00140106
-0.00133407
-0.00127024
-0.00120943
-0.00115149
-0.0010963
-0.00104371
-0.000993606
-0.000945869
-0.000900385
-0.000857046
-0.00081575
-0.000776398
-0.000738896
-0.000703157
-0.000669095
-0.000636629
-0.000605682
-0.00057618
-0.000548053
-0.000521234
-0.00049566
-0.000471269
-0.000448002
-0.000425806
-0.000404626
-0.000384412
-0.000365116
-0.000346693
-0.000329097
-0.000312287
-0.000296223
-0.000280867
-0.000266181
-0.000252131
-0.000238683
-0.000225805
-0.000213466
-0.000201638
-0.000190291
-0.000179398
-0.000168933
-0.000158872
-0.000149191
-0.000139865
-0.000130874
-0.000122195
-0.000113808
-0.000105693
-9.78296e-05
-9.02e-05
-8.27859e-05
-7.55693e-05
-6.85333e-05
-6.16606e-05
-5.49358e-05
-4.83404e-05
-4.1865e-05
-3.5478e-05
-2.92039e-05
-2.29296e-05
-1.68781e-05
-1.04229e-05
-4.87843e-06
0.285722
0.285606
0.285354
0.284955
0.284412
0.283727
0.282898
0.281925
0.280805
0.279538
0.27812
0.276551
0.274828
0.272948
0.27091
0.268711
0.266348
0.263819
0.26112
0.258249
0.255203
0.251979
0.248574
0.244985
0.241208
0.23724
0.233079
0.22872
0.224159
0.219393
0.214417
0.20923
0.203827
0.198209
0.192373
0.186321
0.180055
0.17358
0.166901
0.160025
0.152959
0.145715
0.138303
0.130736
0.123027
0.115191
0.107244
0.0992018
0.0910834
0.082907
0.074692
0.0664586
0.0582273
0.0500194
0.0418563
0.0337594
0.0257506
0.0178512
0.0100826
0.0024654
-0.00498
-0.0122341
-0.0192783
-0.0260948
-0.0326672
-0.03898
-0.0450193
-0.0507724
-0.0562284
-0.0613776
-0.066212
-0.0707255
-0.0749132
-0.0787722
-0.082301
-0.0854999
-0.0883706
-0.0909162
-0.0931414
-0.0950521
-0.0966557
-0.0979603
-0.0989755
-0.0997116
-0.10018
-0.100392
-0.10036
-0.100098
-0.0996189
-0.098936
-0.0980634
-0.0970149
-0.0958046
-0.0944461
-0.0929532
-0.0913394
-0.0896176
-0.0878007
-0.0859009
-0.0839302
-0.0818999
-0.0798208
-0.0777031
-0.0755566
-0.0733903
-0.0712127
-0.0690316
-0.0668542
-0.0646873
-0.0625368
-0.0604082
-0.0583065
-0.0562361
-0.0542006
-0.0522037
-0.050248
-0.0483362
-0.0464703
-0.0446519
-0.0428823
-0.0411627
-0.0394935
-0.0378754
-0.0363084
-0.0347926
-0.0333276
-0.0319132
-0.0305486
-0.0292333
-0.0279664
-0.026747
-0.0255741
-0.0244466
-0.0233635
-0.0223235
-0.0213254
-0.020368
-0.0194501
-0.0185705
-0.0177278
-0.0169207
-0.0161482
-0.0154089
-0.0147016
-0.0140252
-0.0133784
-0.0127601
-0.0121692
-0.0116046
-0.0110653
-0.0105502
-0.0100583
-0.00958864
-0.00914033
-0.00871242
-0.00830406
-0.0079144
-0.00754262
-0.00718796
-0.00684965
-0.00652699
-0.00621926
-0.00592581
-0.005646
-0.00537922
-0.00512487
-0.00488239
-0.00465125
-0.00443093
-0.00422094
-0.00402079
-0.00383004
-0.00364826
-0.00347502
-0.00330995
-0.00315265
-0.00300276
-0.00285995
-0.00272388
-0.00259423
-0.00247071
-0.00235304
-0.00224092
-0.00213411
-0.00203236
-0.00193543
-0.00184308
-0.00175511
-0.0016713
-0.00159147
-0.00151542
-0.00144297
-0.00137396
-0.00130821
-0.00124558
-0.00118591
-0.00112907
-0.00107492
-0.00102333
-0.000974185
-0.000927359
-0.000882746
-0.000840239
-0.000799736
-0.000761142
-0.000724365
-0.000689318
-0.000655916
-0.00062408
-0.000593734
-0.000564807
-0.000537229
-0.000510933
-0.000485859
-0.000461945
-0.000439135
-0.000417374
-0.00039661
-0.000376794
-0.000357878
-0.000339817
-0.000322568
-0.00030609
-0.000290343
-0.00027529
-0.000260894
-0.000247122
-0.000233941
-0.000221318
-0.000209224
-0.000197629
-0.000186507
-0.000175831
-0.000165574
-0.000155713
-0.000146223
-0.000137083
-0.00012827
-0.000119764
-0.000111544
-0.000103589
-9.58828e-05
-8.8405e-05
-8.11383e-05
-7.40653e-05
-6.71692e-05
-6.04333e-05
-5.38424e-05
-4.73782e-05
-4.10316e-05
-3.47718e-05
-2.86225e-05
-2.24731e-05
-1.65421e-05
-1.02155e-05
-4.78114e-06
0.287008
0.286892
0.286642
0.286246
0.285706
0.285025
0.284202
0.283234
0.282121
0.28086
0.279449
0.277888
0.276172
0.274301
0.27227
0.270078
0.267722
0.265198
0.262504
0.259637
0.256593
0.253369
0.249962
0.246368
0.242584
0.238606
0.234431
0.230054
0.225471
0.220679
0.215673
0.21045
0.205006
0.199341
0.193453
0.187343
0.181014
0.174469
0.167714
0.160755
0.153601
0.146262
0.13875
0.131075
0.123254
0.115299
0.107229
0.0990595
0.0908092
0.0824975
0.0741444
0.0657707
0.0573979
0.0490477
0.0407425
0.0325047
0.0243567
0.0163209
0.00841938
0.000673643
-0.00689526
-0.0142671
-0.0214225
-0.0283431
-0.0350119
-0.041413
-0.047532
-0.0533559
-0.0588733
-0.0640744
-0.0689512
-0.0734973
-0.077708
-0.0815803
-0.0851129
-0.0883063
-0.0911624
-0.0936848
-0.0958784
-0.0977496
-0.0993062
-0.100557
-0.101511
-0.102181
-0.102577
-0.102713
-0.1026
-0.102253
-0.101686
-0.100912
-0.0999469
-0.0988041
-0.0974984
-0.0960441
-0.0944552
-0.0927457
-0.0909291
-0.0890186
-0.0870268
-0.0849659
-0.0828476
-0.080683
-0.0784827
-0.0762564
-0.0740135
-0.0717625
-0.0695115
-0.0672677
-0.065038
-0.0628283
-0.0606441
-0.0584904
-0.0563714
-0.0542911
-0.0522526
-0.0502588
-0.0483121
-0.0464143
-0.0445671
-0.0427716
-0.0410287
-0.039339
-0.0377027
-0.0361198
-0.0345903
-0.0331136
-0.0316893
-0.0303167
-0.0289948
-0.0277229
-0.0264998
-0.0253244
-0.0241956
-0.0231121
-0.0220727
-0.021076
-0.0201207
-0.0192055
-0.0183292
-0.0174902
-0.0166874
-0.0159194
-0.015185
-0.0144828
-0.0138117
-0.0131704
-0.0125577
-0.0119725
-0.0114137
-0.0108801
-0.0103708
-0.00988468
-0.00942078
-0.00897813
-0.00855583
-0.00815299
-0.00776876
-0.00740231
-0.00705286
-0.00671965
-0.00640195
-0.00609907
-0.00581033
-0.0055351
-0.00527276
-0.00502271
-0.00478441
-0.00455731
-0.00434089
-0.00413466
-0.00393815
-0.00375091
-0.0035725
-0.00340252
-0.00324058
-0.00308629
-0.00293931
-0.00279928
-0.00266588
-0.0025388
-0.00241775
-0.00230244
-0.00219259
-0.00208796
-0.00198828
-0.00189334
-0.00180291
-0.00171677
-0.00163471
-0.00155655
-0.00148211
-0.00141119
-0.00134364
-0.0012793
-0.00121801
-0.00115962
-0.001104
-0.00105102
-0.00100055
-0.000952473
-0.000906667
-0.000863028
-0.00082145
-0.000781836
-0.00074409
-0.000708123
-0.000673848
-0.000641184
-0.000610053
-0.000580381
-0.000552096
-0.00052513
-0.000499421
-0.000474905
-0.000451525
-0.000429225
-0.000407951
-0.000387652
-0.00036828
-0.000349788
-0.000332133
-0.000315272
-0.000299164
-0.000283772
-0.000269058
-0.000254987
-0.000241526
-0.000228641
-0.000216303
-0.000204483
-0.00019315
-0.00018228
-0.000171844
-0.00016182
-0.000152182
-0.000142907
-0.000133974
-0.000125361
-0.000117047
-0.000109013
-0.000101239
-9.37075e-05
-8.63992e-05
-7.92973e-05
-7.23847e-05
-6.56451e-05
-5.9062e-05
-5.26206e-05
-4.6303e-05
-4.01004e-05
-3.39827e-05
-2.79729e-05
-2.19631e-05
-1.61666e-05
-9.98363e-06
-4.67243e-06
0.288433
0.288318
0.288069
0.287677
0.287141
0.286465
0.285647
0.284686
0.283581
0.282328
0.280926
0.279373
0.277667
0.275804
0.273783
0.271599
0.269251
0.266735
0.264047
0.261184
0.258143
0.25492
0.251511
0.247914
0.244122
0.240134
0.235945
0.231549
0.226943
0.222123
0.217083
0.211821
0.206332
0.200616
0.194671
0.188497
0.182097
0.175474
0.168633
0.161583
0.15433
0.146884
0.139258
0.131463
0.123515
0.115427
0.107218
0.0989041
0.0905048
0.0820401
0.0735307
0.0649982
0.056465
0.0479537
0.0394876
0.0310901
0.0227846
0.0145943
0.00654233
-0.00134893
-0.00905755
-0.0165625
-0.0238435
-0.0308818
-0.0376594
-0.0441601
-0.0503687
-0.0562721
-0.0618584
-0.0671177
-0.0720417
-0.076624
-0.0808598