/*--------------------------------*- C++ -*----------------------------------*\
| =========                 |                                                 |
| \\      /  F ield         | OpenFOAM: The Open Source CFD Toolbox           |
|  \\    /   O peration     | Version:  2306                                  |
|   \\  /    A nd           | Website:  www.openfoam.com                      |
|    \\/     M anipulation  |                                                 |
\*---------------------------------------------------------------------------*/
FoamFile
{
    version     2.0;
    format      ascii;
    arch        "LSB;label=32;scalar=64";
    class       surfaceScalarField;
    location    "1";
    object      phi;
}
// * * * * * * * * * * * * * * * * * * * * * * * * * * * * * * * * * * * * * //

dimensions      [0 3 -1 0 0 0 0];

oriented        oriented;

internalField   nonuniform List<scalar> 
65152
(
0.00625045
-4.49347e-07
0.0062518
-1.34704e-06
0.00625404
-2.24246e-06
0.00625718
-3.13654e-06
0.00626121
-4.03077e-06
0.00626613
-4.92613e-06
0.00627196
-5.82332e-06
0.00627868
-6.72307e-06
0.0062863
-7.62625e-06
0.00629484
-8.53375e-06
0.00630429
-9.44645e-06
0.00631465
-1.03653e-05
0.00632594
-1.12911e-05
0.00633817
-1.22252e-05
0.00635134
-1.31687e-05
0.00636546
-1.41233e-05
0.00638055
-1.50907e-05
0.00639662
-1.60728e-05
0.00641369
-1.70718e-05
0.00643179
-1.8092e-05
0.00645093
-1.91416e-05
0.00647116
-2.02345e-05
0.00649255
-2.13909e-05
0.00651519
-2.2635e-05
0.00653918
-2.39899e-05
0.00656465
-2.54706e-05
0.00659173
-2.70775e-05
0.00662052
-2.87919e-05
0.00665109
-3.0576e-05
0.00668347
-3.2377e-05
0.0067176
-3.41341e-05
0.00675339
-3.5787e-05
0.00679068
-3.72838e-05
0.00682926
-3.85861e-05
0.00686893
-3.96719e-05
0.00690947
-4.05348e-05
0.00695065
-4.11813e-05
0.00699228
-4.16274e-05
0.00703417
-4.18943e-05
0.00707618
-4.20049e-05
0.00711816
-4.19808e-05
0.00716
-4.1841e-05
0.0072016
-4.16007e-05
0.00724287
-4.12714e-05
0.00728373
-4.08608e-05
0.00732411
-4.0374e-05
0.00736392
-3.98135e-05
0.0074031
-3.91804e-05
0.00744157
-3.84745e-05
0.00747927
-3.76953e-05
0.00751611
-3.68417e-05
0.00755202
-3.59128e-05
0.00758693
-3.49078e-05
0.00762076
-3.38265e-05
0.00765343
-3.26689e-05
0.00768486
-3.14355e-05
0.00771499
-3.01274e-05
0.00774374
-2.87463e-05
0.00777103
-2.72944e-05
0.0077968
-2.57744e-05
0.00782099
-2.41896e-05
0.00784354
-2.25439e-05
0.00786438
-2.08416e-05
0.00788347
-1.90875e-05
0.00790075
-1.72867e-05
0.0079162
-1.5445e-05
0.00792977
-1.35682e-05
0.00794143
-1.16626e-05
0.00795116
-9.7347e-06
0.00795896
-7.79121e-06
0.00796479
-5.83893e-06
0.00796868
-3.88476e-06
0.00797061
-1.9356e-06
0.00797061
1.66368e-09
0.00796869
1.92021e-06
0.00796488
3.81344e-06
0.0079592
5.67492e-06
0.00795171
7.49846e-06
0.00794243
9.27813e-06
0.00793142
1.10084e-05
0.00791874
1.2684e-05
0.00790444
1.43001e-05
0.00788858
1.58525e-05
0.00787125
1.7337e-05
0.0078525
1.87502e-05
0.00783241
2.0089e-05
0.00781106
2.1351e-05
0.00778852
2.25338e-05
0.00776489
2.3636e-05
0.00774023
2.46563e-05
0.00771464
2.5594e-05
0.00768819
2.64486e-05
0.00766097
2.72204e-05
0.00763306
2.79096e-05
0.00760454
2.85173e-05
0.0075755
2.90445e-05
0.007546
2.94927e-05
0.00751614
2.98637e-05
0.00748598
3.01596e-05
0.0074556
3.03826e-05
0.00742506
3.05353e-05
0.00739444
3.06203e-05
0.0073638
3.06406e-05
0.0073332
3.0599e-05
0.0073027
3.04989e-05
0.00727236
3.03432e-05
0.00724222
3.01354e-05
0.00721235
2.98788e-05
0.00718277
2.95766e-05
0.00715354
2.92322e-05
0.00712469
2.88491e-05
0.00709626
2.84303e-05
0.00706828
2.79793e-05
0.00704078
2.74992e-05
0.00701379
2.6993e-05
0.00698732
2.64639e-05
0.00696141
2.59147e-05
0.00693606
2.53481e-05
0.00691129
2.4767e-05
0.00688712
2.41738e-05
0.00686355
2.3571e-05
0.00684059
2.29609e-05
0.00681824
2.23457e-05
0.00679651
2.17274e-05
0.00677541
2.11078e-05
0.00675492
2.04888e-05
0.00673504
1.98719e-05
0.00671579
1.92587e-05
0.00669714
1.86505e-05
0.00667909
1.80486e-05
0.00666163
1.74542e-05
0.00664476
1.68681e-05
0.00662847
1.62913e-05
0.00661275
1.57247e-05
0.00659758
1.51688e-05
0.00658296
1.46244e-05
0.00656886
1.40918e-05
0.00655529
1.35716e-05
0.00654223
1.3064e-05
0.00652966
1.25694e-05
0.00651757
1.2088e-05
0.00650595
1.16199e-05
0.00649479
1.11653e-05
0.00648406
1.0724e-05
0.00647376
1.02962e-05
0.00646388
9.88181e-06
0.0064544
9.4807e-06
0.00644531
9.09277e-06
0.00643659
8.71786e-06
0.00642824
8.3558e-06
0.00642023
8.00638e-06
0.00641256
7.66937e-06
0.00640522
7.34454e-06
0.00639818
7.03162e-06
0.00639145
6.73034e-06
0.00638501
6.44043e-06
0.00637885
6.16159e-06
0.00637296
5.89354e-06
0.00636732
5.63596e-06
0.00636193
5.38856e-06
0.00635678
5.15104e-06
0.00635186
4.92308e-06
0.00634716
4.7044e-06
0.00634266
4.49468e-06
0.00633837
4.29362e-06
0.00633427
4.10093e-06
0.00633035
3.91633e-06
0.00632661
3.73951e-06
0.00632304
3.5702e-06
0.00631963
3.40814e-06
0.00631638
3.25303e-06
0.00631327
3.10463e-06
0.00631031
2.96267e-06
0.00630748
2.82691e-06
0.00630479
2.6971e-06
0.00630221
2.573e-06
0.00629976
2.4544e-06
0.00629742
2.34106e-06
0.00629519
2.23276e-06
0.00629306
2.12931e-06
0.00629103
2.0305e-06
0.00628909
1.93614e-06
0.00628724
1.84604e-06
0.00628548
1.76002e-06
0.00628381
1.6779e-06
0.00628221
1.59952e-06
0.00628068
1.52471e-06
0.00627923
1.45333e-06
0.00627784
1.38522e-06
0.00627652
1.32024e-06
0.00627526
1.25825e-06
0.00627407
1.19911e-06
0.00627292
1.14271e-06
0.00627183
1.08892e-06
0.0062708
1.03763e-06
0.00626981
9.88714e-07
0.00626887
9.42074e-07
0.00626797
8.97607e-07
0.00626711
8.55213e-07
0.0062663
8.148e-07
0.00626552
7.76276e-07
0.00626478
7.39555e-07
0.00626408
7.04556e-07
0.00626341
6.71199e-07
0.00626277
6.39409e-07
0.00626216
6.09114e-07
0.00626158
5.80245e-07
0.00626103
5.52736e-07
0.0062605
5.26524e-07
0.00626
5.0155e-07
0.00625952
4.77756e-07
0.00625906
4.55087e-07
0.00625863
4.33491e-07
0.00625822
4.12918e-07
0.00625782
3.9332e-07
0.00625745
3.74652e-07
0.00625709
3.56871e-07
0.00625675
3.39935e-07
0.00625643
3.23804e-07
0.00625612
3.08441e-07
0.00625583
2.9381e-07
0.00625555
2.79877e-07
0.00625528
2.6661e-07
0.00625503
2.53976e-07
0.00625478
2.41946e-07
0.00625455
2.30492e-07
0.00625433
2.19588e-07
0.00625413
2.09206e-07
0.00625393
1.99323e-07
0.00625374
1.89916e-07
0.00625356
1.80962e-07
0.00625338
1.72439e-07
0.00625322
1.64329e-07
0.00625306
1.56611e-07
0.00625291
1.49267e-07
0.00625277
1.4228e-07
0.00625263
1.35633e-07
0.00625251
1.29311e-07
0.00625238
1.23298e-07
0.00625226
1.17581e-07
0.00625215
1.12144e-07
0.00625205
1.06976e-07
0.00625194
1.02065e-07
0.00625185
9.73977e-08
0.00625175
9.29639e-08
0.00625166
8.8753e-08
0.00625158
8.47546e-08
0.0062515
8.09596e-08
0.00625142
7.73584e-08
0.00625135
7.39426e-08
0.00625128
7.07047e-08
0.00625121
6.76296e-08
0.00625114
6.47394e-08
0.00625108
6.19031e-08
0.00625102
5.95404e-08
5.62203e-08
0.00625045
-8.99228e-07
0.0062518
-2.69273e-06
0.00625404
-4.48284e-06
0.00625717
-6.27116e-06
0.0062612
-8.05953e-06
0.00626612
-9.84983e-06
0.00627194
-1.16437e-05
0.00627866
-1.34429e-05
0.00628629
-1.5249e-05
0.00629482
-1.70639e-05
0.00630426
-1.88892e-05
0.00631462
-2.07269e-05
0.00632591
-2.25787e-05
0.00633813
-2.4447e-05
0.0063513
-2.63344e-05
0.00636542
-2.82441e-05
0.00638051
-3.01795e-05
0.00639658
-3.21443e-05
0.00641365
-3.41431e-05
0.00643174
-3.61846e-05
0.00645088
-3.82848e-05
0.00647112
-4.04719e-05
0.00649252
-4.27861e-05
0.00651516
-4.52757e-05
0.00653915
-4.79869e-05
0.00656463
-5.09497e-05
0.00659172
-5.41646e-05
0.00662052
-5.75945e-05
0.00665111
-6.11639e-05
0.0066835
-6.47671e-05
0.00671765
-6.82824e-05
0.00675345
-7.15896e-05
0.00679075
-7.45847e-05
0.00682936
-7.71913e-05
0.00686905
-7.93652e-05
0.00690961
-8.10934e-05
0.00695082
-8.23894e-05
0.00699248
-8.3285e-05
0.0070344
-8.38225e-05
0.00707645
-8.40475e-05
0.00711847
-8.40034e-05
0.00716036
-8.37279e-05
0.00720201
-8.32514e-05
0.00724333
-8.25966e-05
0.00728425
-8.17793e-05
0.00732469
-8.08092e-05
0.00736456
-7.96916e-05
0.00740381
-7.84283e-05
0.00744236
-7.70192e-05
0.00748012
-7.54628e-05
0.00751704
-7.37572e-05
0.00755303
-7.19005e-05
0.00758801
-6.98913e-05
0.00762191
-6.77288e-05
0.00765466
-6.54131e-05
0.00768617
-6.29453e-05
0.00771637
-6.03275e-05
0.00774518
-5.75631e-05
0.00777255
-5.46566e-05
0.00779839
-5.16133e-05
0.00782264
-4.844e-05
0.00784524
-4.51443e-05
0.00786613
-4.17349e-05
0.00788526
-3.82214e-05
0.00790259
-3.46143e-05
0.00791807
-3.09249e-05
0.00793167
-2.71651e-05
0.00794335
-2.33475e-05
0.0079531
-1.9485e-05
0.0079609
-1.55913e-05
0.00796674
-1.16799e-05
0.00797062
-7.76466e-06
0.00797255
-3.85949e-06
0.00797253
2.1825e-08
0.00797058
3.86547e-06
0.00796674
7.65836e-06
0.00796102
1.13875e-05
0.00795348
1.50404e-05
0.00794416
1.86053e-05
0.00793309
2.2071e-05
0.00792035
2.54271e-05
0.00790599
2.86638e-05
0.00789007
3.17724e-05
0.00787266
3.47449e-05
0.00785383
3.75743e-05
0.00783367
4.02546e-05
0.00781224
4.27806e-05
0.00778962
4.5148e-05
0.00776591
4.73536e-05
0.00774117
4.9395e-05
0.00771549
5.12706e-05
0.00768896
5.29799e-05
0.00766166
5.45229e-05
0.00763367
5.59006e-05
0.00760507
5.71148e-05
0.00757595
5.81677e-05
0.00754638
5.90623e-05
0.00751644
5.98023e-05
0.00748621
6.03918e-05
0.00745575
6.08354e-05
0.00742515
6.1138e-05
0.00739447
6.13053e-05
0.00736376
6.13428e-05
0.00733311
6.12566e-05
0.00730255
6.10531e-05
0.00727216
6.07386e-05
0.00724197
6.03197e-05
0.00721205
5.9803e-05
0.00718243
5.91953e-05
0.00715316
5.85033e-05
0.00712427
5.77337e-05
0.00709581
5.6893e-05
0.0070678
5.59878e-05
0.00704028
5.50244e-05
0.00701326
5.40091e-05
0.00698678
5.29479e-05
0.00696084
5.18467e-05
0.00693548
5.07109e-05
0.0069107
4.95461e-05
0.00688652
4.83573e-05
0.00686294
4.71495e-05
0.00683997
4.59271e-05
0.00681763
4.46946e-05
0.0067959
4.3456e-05
0.00677479
4.22151e-05
0.0067543
4.09754e-05
0.00673443
3.97402e-05
0.00671518
3.85124e-05
0.00669654
3.72949e-05
0.0066785
3.609e-05
0.00666105
3.49e-05
0.00664419
3.3727e-05
0.00662791
3.25726e-05
0.0066122
3.14386e-05
0.00659704
3.03263e-05
0.00658243
2.92369e-05
0.00656835
2.81713e-05
0.00655479
2.71305e-05
0.00654174
2.61152e-05
0.00652918
2.51258e-05
0.0065171
2.41628e-05
0.0065055
2.32265e-05
0.00649435
2.23171e-05
0.00648364
2.14347e-05
0.00647335
2.05791e-05
0.00646348
1.97504e-05
0.00645402
1.89483e-05
0.00644494
1.81726e-05
0.00643623
1.74229e-05
0.00642789
1.6699e-05
0.00641989
1.60004e-05
0.00641224
1.53266e-05
0.0064049
1.46772e-05
0.00639788
1.40516e-05
0.00639117
1.34494e-05
0.00638474
1.28698e-05
0.00637858
1.23124e-05
0.0063727
1.17766e-05
0.00636708
1.12618e-05
0.0063617
1.07673e-05
0.00635656
1.02925e-05
0.00635164
9.83694e-06
0.00634695
9.39986e-06
0.00634246
8.98072e-06
0.00633818
8.5789e-06
0.00633408
8.19381e-06
0.00633017
7.82489e-06
0.00632644
7.47153e-06
0.00632288
7.1332e-06
0.00631948
6.80933e-06
0.00631623
6.49938e-06
0.00631313
6.20283e-06
0.00631018
5.91917e-06
0.00630736
5.64789e-06
0.00630466
5.3885e-06
0.0063021
5.14054e-06
0.00629965
4.90355e-06
0.00629731
4.67708e-06
0.00629508
4.4607e-06
0.00629296
4.254e-06
0.00629093
4.05658e-06
0.006289
3.86804e-06
0.00628716
3.68801e-06
0.0062854
3.51614e-06
0.00628373
3.35207e-06
0.00628213
3.19547e-06
0.00628061
3.04602e-06
0.00627916
2.9034e-06
0.00627778
2.76732e-06
0.00627646
2.6375e-06
0.00627521
2.51365e-06
0.00627401
2.39551e-06
0.00627287
2.28283e-06
0.00627178
2.17536e-06
0.00627075
2.07288e-06
0.00626976
1.97516e-06
0.00626882
1.88199e-06
0.00626793
1.79315e-06
0.00626707
1.70846e-06
0.00626626
1.62772e-06
0.00626549
1.55076e-06
0.00626475
1.4774e-06
0.00626404
1.40748e-06
0.00626338
1.34084e-06
0.00626274
1.27733e-06
0.00626213
1.21681e-06
0.00626155
1.15914e-06
0.006261
1.10418e-06
0.00626047
1.05182e-06
0.00625997
1.00193e-06
0.0062595
9.54393e-07
0.00625904
9.09107e-07
0.00625861
8.65964e-07
0.0062582
8.24865e-07
0.00625781
7.85715e-07
0.00625743
7.48423e-07
0.00625708
7.12901e-07
0.00625674
6.79068e-07
0.00625641
6.46844e-07
0.00625611
6.16154e-07
0.00625581
5.86927e-07
0.00625553
5.59094e-07
0.00625527
5.32589e-07
0.00625501
5.07351e-07
0.00625477
4.8332e-07
0.00625454
4.60439e-07
0.00625432
4.38655e-07
0.00625412
4.17916e-07
0.00625392
3.98174e-07
0.00625373
3.79381e-07
0.00625355
3.61494e-07
0.00625337
3.44469e-07
0.00625321
3.28267e-07
0.00625305
3.1285e-07
0.00625291
2.9818e-07
0.00625276
2.84222e-07
0.00625263
2.70945e-07
0.0062525
2.58315e-07
0.00625238
2.46303e-07
0.00625226
2.34881e-07
0.00625215
2.24022e-07
0.00625204
2.13698e-07
0.00625194
2.03887e-07
0.00625184
1.94563e-07
0.00625175
1.85707e-07
0.00625166
1.77295e-07
0.00625158
1.69308e-07
0.00625149
1.61726e-07
0.00625142
1.54533e-07
0.00625134
1.47707e-07
0.00625127
1.41246e-07
0.00625121
1.35089e-07
0.00625114
1.29359e-07
0.00625108
1.23626e-07
0.00625102
1.19134e-07
1.12135e-07
0.00625045
-1.34812e-06
0.00625179
-4.03696e-06
0.00625403
-6.72077e-06
0.00625716
-9.40216e-06
0.00626119
-1.20838e-05
0.0062661
-1.47682e-05
0.00627192
-1.74582e-05
0.00627863
-2.01562e-05
0.00628625
-2.28648e-05
0.00629477
-2.55867e-05
0.00630421
-2.83245e-05
0.00631456
-3.1081e-05
0.00632584
-3.38591e-05
0.00633806
-3.6662e-05
0.00635122
-3.9494e-05
0.00636533
-4.23596e-05
0.00638042
-4.52642e-05
0.00639648
-4.82132e-05
0.00641355
-5.12136e-05
0.00643165
-5.42782e-05
0.0064508
-5.74314e-05
0.00647104
-6.07151e-05
0.00649244
-6.41896e-05
0.00651509
-6.79275e-05
0.0065391
-7.19977e-05
0.0065646
-7.64452e-05
0.00659171
-8.12709e-05
0.00662053
-8.64188e-05
0.00665114
-9.17757e-05
0.00668356
-9.71832e-05
0.00671774
-0.000102459
0.00675357
-0.000107423
0.0067909
-0.00011192
0.00682955
-0.000115835
0.00686928
-0.000119101
0.00690989
-0.0001217
0.00695115
-0.000123652
0.00699287
-0.000125003
0.00703487
-0.000125819
0.00707699
-0.000126166
0.00711909
-0.00012611
0.00716107
-0.000125707
0.00720282
-0.000125002
0.00724426
-0.00012403
0.00728529
-0.000122814
0.00732585
-0.000121368
0.00736586
-0.000119699
0.00740524
-0.000117812
0.00744393
-0.000115705
0.00748184
-0.000113375
0.0075189
-0.000110821
0.00755504
-0.000108039
0.00759018
-0.000105027
0.00762423
-0.000101783
0.00765713
-9.83085e-05
0.00768878
-9.46041e-05
0.00771913
-9.06735e-05
0.00774809
-8.65215e-05
0.00777559
-8.21547e-05
0.00780156
-7.75816e-05
0.00782593
-7.28121e-05
0.00784864
-6.78578e-05
0.00786964
-6.27317e-05
0.00788886
-5.74485e-05
0.00790627
-5.20238e-05
0.00792182
-4.64748e-05
0.00793548
-4.08195e-05
0.00794721
-3.50768e-05
0.00795699
-2.92666e-05
0.00796481
-2.34089e-05
0.00797065
-1.75246e-05
0.00797452
-1.16345e-05
0.00797642
-5.75952e-06
0.00797636
7.93932e-08
0.00797437
5.86138e-06
0.00797046
1.15668e-05
0.00796467
1.7176e-05
0.00795704
2.26701e-05
0.00794762
2.80314e-05
0.00793644
3.3243e-05
0.00792358
3.8289e-05
0.00790909
4.31551e-05
0.00789303
4.78278e-05
0.00787548
5.22954e-05
0.00785651
5.65471e-05
0.00783619
6.0574e-05
0.0078146
6.43683e-05
0.00779183
6.79235e-05
0.00776795
7.12349e-05
0.00774304
7.42989e-05
0.0077172
7.71132e-05
0.0076905
7.96769e-05
0.00766304
8.19903e-05
0.00763488
8.40548e-05
0.00760612
8.58731e-05
0.00757684
8.74488e-05
0.00754712
8.87863e-05
0.00751703
8.98912e-05
0.00748665
9.07697e-05
0.00745606
9.14287e-05
0.00742532
9.1876e-05
0.00739451
9.21197e-05
0.00736368
9.21684e-05
0.00733291
9.20314e-05
0.00730224
9.17181e-05
0.00727174
9.12382e-05
0.00724146
9.06015e-05
0.00721144
8.98182e-05
0.00718174
8.88983e-05
0.00715239
8.7852e-05
0.00712344
8.66893e-05
0.00709491
8.54202e-05
0.00706684
8.40544e-05
0.00703927
8.26016e-05
0.0070122
8.10712e-05
0.00698568
7.94721e-05
0.00695971
7.78132e-05
0.00693432
7.61029e-05
0.00690952
7.43493e-05
0.00688532
7.256e-05
0.00686172
7.07425e-05
0.00683875
6.89036e-05
0.00681639
6.70497e-05
0.00679466
6.51871e-05
0.00677355
6.33213e-05
0.00675307
6.14577e-05
0.00673321
5.96012e-05
0.00671397
5.77561e-05
0.00669534
5.59267e-05
0.00667731
5.41165e-05
0.00665988
5.2329e-05
0.00664304
5.05672e-05
0.00662678
4.88338e-05
0.00661109
4.7131e-05
0.00659595
4.5461e-05
0.00658136
4.38256e-05
0.00656731
4.22262e-05
0.00655377
4.06642e-05
0.00654075
3.91404e-05
0.00652822
3.76558e-05
0.00651617
3.6211e-05
0.00650459
3.48064e-05
0.00649347
3.34421e-05
0.00648278
3.21184e-05
0.00647253
3.08352e-05
0.00646268
2.95924e-05
0.00645324
2.83895e-05
0.00644419
2.72264e-05
0.00643551
2.61024e-05
0.00642719
2.5017e-05
0.00641922
2.39696e-05
0.00641159
2.29596e-05
0.00640428
2.19861e-05
0.00639728
2.10484e-05
0.00639059
2.01457e-05
0.00638418
1.92771e-05
0.00637805
1.84418e-05
0.00637219
1.76388e-05
0.00636658
1.68673e-05
0.00636122
1.61263e-05
0.0063561
1.54149e-05
0.00635121
1.47323e-05
0.00634653
1.40774e-05
0.00634206
1.34495e-05
0.00633779
1.28475e-05
0.00633371
1.22706e-05
0.00632982
1.17179e-05
0.0063261
1.11886e-05
0.00632256
1.06818e-05
0.00631917
1.01966e-05
0.00631594
9.73236e-06
0.00631285
9.28818e-06
0.00630991
8.86331e-06
0.0063071
8.45699e-06
0.00630442
8.0685e-06
0.00630186
7.69713e-06
0.00629942
7.3422e-06
0.0062971
7.00303e-06
0.00629488
6.67898e-06
0.00629276
6.36943e-06
0.00629074
6.07378e-06
0.00628882
5.79144e-06
0.00628699
5.52186e-06
0.00628524
5.26448e-06
0.00628357
5.01879e-06
0.00628198
4.7843e-06
0.00628047
4.5605e-06
0.00627903
4.34695e-06
0.00627765
4.14319e-06
0.00627634
3.94879e-06
0.00627509
3.76334e-06
0.0062739
3.58645e-06
0.00627276
3.41774e-06
0.00627168
3.25683e-06
0.00627065
3.10339e-06
0.00626967
2.95708e-06
0.00626873
2.81757e-06
0.00626784
2.68456e-06
0.00626699
2.55775e-06
0.00626618
2.43687e-06
0.00626541
2.32164e-06
0.00626468
2.21181e-06
0.00626398
2.10713e-06
0.00626331
2.00736e-06
0.00626268
1.91227e-06
0.00626207
1.82166e-06
0.0062615
1.73532e-06
0.00626095
1.65304e-06
0.00626042
1.57465e-06
0.00625993
1.49995e-06
0.00625945
1.42879e-06
0.006259
1.36099e-06
0.00625857
1.2964e-06
0.00625816
1.23487e-06
0.00625777
1.17626e-06
0.0062574
1.12043e-06
0.00625704
1.06725e-06
0.00625671
1.0166e-06
0.00625638
9.68355e-07
0.00625608
9.2241e-07
0.00625579
8.78655e-07
0.00625551
8.36986e-07
0.00625524
7.97306e-07
0.00625499
7.59523e-07
0.00625475
7.23547e-07
0.00625452
6.89293e-07
0.0062543
6.56681e-07
0.0062541
6.25634e-07
0.0062539
5.96079e-07
0.00625371
5.67945e-07
0.00625353
5.41167e-07
0.00625336
5.1568e-07
0.0062532
4.91425e-07
0.00625304
4.68344e-07
0.00625289
4.46382e-07
0.00625275
4.25488e-07
0.00625262
4.0561e-07
0.00625249
3.86703e-07
0.00625237
3.68722e-07
0.00625225
3.51622e-07
0.00625214
3.35365e-07
0.00625203
3.1991e-07
0.00625193
3.05222e-07
0.00625183
2.91265e-07
0.00625174
2.78006e-07
0.00625165
2.65413e-07
0.00625157
2.53456e-07
0.00625149
2.42107e-07
0.00625141
2.31339e-07
0.00625134
2.2112e-07
0.00625127
2.11451e-07
0.0062512
2.0223e-07
0.00625114
1.93665e-07
0.00625107
1.85067e-07
0.00625102
1.78372e-07
1.67849e-07
0.00625045
-1.79619e-06
0.00625179
-5.37881e-06
0.00625402
-8.95478e-06
0.00625715
-1.25277e-05
0.00626117
-1.61011e-05
0.00626608
-1.96786e-05
0.00627188
-2.32635e-05
0.00627859
-2.68594e-05
0.00628619
-3.04698e-05
0.0062947
-3.40982e-05
0.00630413
-3.77482e-05
0.00631447
-4.14236e-05
0.00632574
-4.51282e-05
0.00633794
-4.88665e-05
0.00635109
-5.2644e-05
0.0063652
-5.6467e-05
0.00638028
-6.03425e-05
0.00639634
-6.42778e-05
0.00641341
-6.82822e-05
0.00643151
-7.2373e-05
0.00645066
-7.65824e-05
0.00647091
-8.09664e-05
0.00649232
-8.56053e-05
0.00651499
-9.05955e-05
0.00653902
-9.60289e-05
0.00656454
-0.000101965
0.00659168
-0.000108405
0.00662053
-0.000115275
0.00665118
-0.000122423
0.00668364
-0.000129638
0.00671785
-0.000136678
0.00675373
-0.000143303
0.00679112
-0.000149306
0.00682982
-0.000154535
0.00686962
-0.000158901
0.0069103
-0.000162378
0.00695164
-0.000164995
0.00699345
-0.000166813
0.00703555
-0.000167917
0.00707778
-0.000168399
0.00712002
-0.000168343
0.00716213
-0.000167824
0.00720403
-0.000166904
0.00724563
-0.000165627
0.00728684
-0.000164023
0.00732758
-0.000162111
0.00736779
-0.000159903
0.00740738
-0.0001574
0.00744627
-0.000154602
0.0074844
-0.000151507
0.00752169
-0.000148109
0.00755806
-0.000144405
0.00759342
-0.000140392
0.00762771
-0.000136067
0.00766083
-0.000131432
0.00769271
-0.000126488
0.00772328
-0.00012124
0.00775245
-0.000115693
0.00778016
-0.000109858
0.00780632
-0.000103745
0.00783088
-9.73681e-05
0.00785376
-9.07421e-05
0.00787491
-8.38849e-05
0.00789428
-7.68161e-05
0.00791181
-6.9557e-05
0.00792747
-6.21304e-05
0.00794121
-5.45608e-05
0.00795301
-4.68735e-05
0.00796284
-3.90951e-05
0.00797068
-3.1253e-05
0.00797653
-2.33749e-05
0.00798038
-1.54891e-05
0.00798225
-7.62354e-06
0.00798213
1.93392e-07
0.00798006
7.9338e-06
0.00797606
1.55712e-05
0.00797015
2.30791e-05
0.00796239
3.04322e-05
0.00795282
3.76067e-05
0.00794148
4.45798e-05
0.00792844
5.13304e-05
0.00791376
5.7839e-05
0.0078975
6.40878e-05
0.00787973
7.00609e-05
0.00786053
7.57441e-05
0.00783998
8.11253e-05
0.00781816
8.61941e-05
0.00779514
9.09422e-05
0.00777101
9.53629e-05
0.00774586
9.94517e-05
0.00771976
0.000103206
0.00769282
0.000106623
0.0076651
0.000109706
0.0076367
0.000112455
0.0076077
0.000114874
0.00757818
0.000116967
0.00754823
0.000118742
0.00751791
0.000120206
0.00748732
0.000121366
0.00745651
0.000122233
0.00742557
0.000122817
0.00739456
0.000123129
0.00736355
0.00012318
0.0073326
0.000122982
0.00730177
0.00012255
0.00727111
0.000121894
0.00724068
0.00012103
0.00721053
0.00011997
0.0071807
0.000118728
0.00715124
0.000117317
0.00712217
0.000115751
0.00709355
0.000114044
0.0070654
0.000112208
0.00703774
0.000110257
0.00701061
0.000108202
0.00698403
0.000106056
0.00695801
0.000103831
0.00693257
0.000101538
0.00690774
9.91882e-05
0.0068835
9.67912e-05
0.00685989
9.43571e-05
0.0068369
9.1895e-05
0.00681453
8.94138e-05
0.0067928
8.69214e-05
0.0067717
8.44256e-05
0.00675122
8.19332e-05
0.00673137
7.94508e-05
0.00671214
7.69844e-05
0.00669353
7.45393e-05
0.00667553
7.21205e-05
0.00665812
6.97325e-05
0.00664131
6.73793e-05
0.00662508
6.50643e-05
0.00660942
6.27908e-05
0.00659432
6.05614e-05
0.00657977
5.83784e-05
0.00656575
5.62439e-05
0.00655225
5.41596e-05
0.00653927
5.21267e-05
0.00652678
5.01463e-05
0.00651477
4.82191e-05
0.00650323
4.63459e-05
0.00649214
4.45267e-05
0.0064815
4.27619e-05
0.00647129
4.10512e-05
0.00646148
3.93944e-05
0.00645208
3.77912e-05
0.00644307
3.62411e-05
0.00643443
3.47432e-05
0.00642615
3.32971e-05
0.00641821
3.19016e-05
0.00641062
3.0556e-05
0.00640334
2.92593e-05
0.00639638
2.80103e-05
0.00638972
2.6808e-05
0.00638335
2.56512e-05
0.00637725
2.45388e-05
0.00637142
2.34696e-05
0.00636584
2.24423e-05
0.00636051
2.14557e-05
0.00635542
2.05087e-05
0.00635055
1.95999e-05
0.0063459
1.87282e-05
0.00634146
1.78923e-05
0.00633722
1.7091e-05
0.00633316
1.63232e-05
0.00632929
1.55876e-05
0.0063256
1.48831e-05
0.00632207
1.42087e-05
0.00631871
1.35631e-05
0.00631549
1.29453e-05
0.00631243
1.23542e-05
0.0063095
1.17889e-05
0.00630671
1.12483e-05
0.00630405
1.07314e-05
0.00630151
1.02373e-05
0.00629908
9.7651e-06
0.00629677
9.31388e-06
0.00629457
8.88278e-06
0.00629247
8.47099e-06
0.00629046
8.07769e-06
0.00628855
7.70211e-06
0.00628673
7.3435e-06
0.00628499
7.00114e-06
0.00628334
6.67434e-06
0.00628176
6.36243e-06
0.00628026
6.06476e-06
0.00627882
5.78072e-06
0.00627746
5.5097e-06
0.00627615
5.25115e-06
0.00627491
5.0045e-06
0.00627373
4.76923e-06
0.0062726
4.54485e-06
0.00627153
4.33085e-06
0.00627051
4.12678e-06
0.00626953
3.93219e-06
0.0062686
3.74666e-06
0.00626772
3.56977e-06
0.00626687
3.40113e-06
0.00626607
3.24038e-06
0.0062653
3.08714e-06
0.00626457
2.94108e-06
0.00626388
2.80187e-06
0.00626322
2.66919e-06
0.00626259
2.54275e-06
0.00626199
2.42226e-06
0.00626141
2.30744e-06
0.00626087
2.19803e-06
0.00626035
2.09378e-06
0.00625986
1.99445e-06
0.00625938
1.89982e-06
0.00625894
1.80967e-06
0.00625851
1.72378e-06
0.0062581
1.64196e-06
0.00625771
1.56403e-06
0.00625734
1.48979e-06
0.00625699
1.41907e-06
0.00625666
1.35172e-06
0.00625634
1.28757e-06
0.00625603
1.22648e-06
0.00625574
1.1683e-06
0.00625547
1.11289e-06
0.00625521
1.06013e-06
0.00625496
1.00989e-06
0.00625472
9.62055e-07
0.00625449
9.16509e-07
0.00625427
8.73146e-07
0.00625407
8.31863e-07
0.00625387
7.92565e-07
0.00625368
7.55157e-07
0.0062535
7.19551e-07
0.00625333
6.85662e-07
0.00625317
6.53411e-07
0.00625302
6.22722e-07
0.00625287
5.9352e-07
0.00625273
5.65738e-07
0.0062526
5.39308e-07
0.00625247
5.14169e-07
0.00625235
4.9026e-07
0.00625223
4.67524e-07
0.00625212
4.45907e-07
0.00625202
4.25358e-07
0.00625192
4.05829e-07
0.00625182
3.87271e-07
0.00625173
3.69641e-07
0.00625164
3.52897e-07
0.00625156
3.36999e-07
0.00625148
3.21908e-07
0.0062514
3.07592e-07
0.00625133
2.94004e-07
0.00625126
2.81149e-07
0.00625119
2.68888e-07
0.00625113
2.57505e-07
0.00625107
2.46066e-07
0.00625101
2.37174e-07
2.23171e-07
0.00625045
-2.24318e-06
0.00625179
-6.71742e-06
0.00625401
-1.11834e-05
0.00625713
-1.56459e-05
0.00626114
-2.01093e-05
0.00626604
-2.45779e-05
0.00627183
-2.90563e-05
0.00627852
-3.35489e-05
0.00628611
-3.806e-05
0.00629461
-4.25943e-05
0.00630402
-4.71562e-05
0.00631434
-5.17504e-05
0.0063256
-5.6382e-05
0.00633779
-6.10564e-05
0.00635092
-6.57807e-05
0.00636502
-7.05628e-05
0.00638009
-7.54115e-05
0.00639615
-8.03358e-05
0.00641321
-8.53477e-05
0.00643131
-9.04684e-05
0.00645046
-9.57386e-05
0.00647072
-0.000101228
0.00649216
-0.000107036
0.00651484
-0.000113284
0.0065389
-0.000120086
0.00656445
-0.000127517
0.00659162
-0.000135576
0.00662052
-0.000144172
0.00665122
-0.000153116
0.00668372
-0.000162143
0.006718
-0.000170953
0.00675394
-0.000179244
0.00679139
-0.00018676
0.00683017
-0.00019331
0.00687005
-0.000198785
0.00691082
-0.000203152
0.00695227
-0.000206445
0.0069942
-0.000208744
0.00703644
-0.000210152
0.00707882
-0.000210783
0.00712122
-0.000210744
0.00716353
-0.000210127
0.00720563
-0.000209008
0.00724745
-0.000207442
0.00728889
-0.000205466
0.00732988
-0.000203104
0.00737035
-0.000200368
0.00741021
-0.000197262
0.00744939
-0.000193785
0.00748782
-0.000189932
0.00752541
-0.000185697
0.00756208
-0.000181076
0.00759775
-0.000176065
0.00763234
-0.00017066
0.00766577
-0.000164863
0.00769796
-0.000158675
0.00772882
-0.000152102
0.00775828
-0.000145153
0.00778626
-0.000137838
0.00781269
-0.000130172
0.00783749
-0.000122172
0.00786061
-0.000113856
0.00788197
-0.000105249
0.00790153
-9.63732e-05
0.00791923
-8.72567e-05
0.00793503
-7.79284e-05
0.00794888
-6.84189e-05
0.00796077
-5.87606e-05
0.00797066
-4.8987e-05
0.00797854
-3.91327e-05
0.0079844
-2.92328e-05
0.00798823
-1.93231e-05
0.00799005
-9.43911e-06
0.00798986
3.83368e-07
0.00798768
1.01092e-05
0.00798355
1.97046e-05
0.00797749
2.91363e-05
0.00796955
3.83724e-05
0.00795978
4.73826e-05
0.00794822
5.61383e-05
0.00793494
6.46129e-05
0.00791999
7.27817e-05
0.00790346
8.06226e-05
0.0078854
8.81153e-05
0.00786591
9.52422e-05
0.00784504
0.000101988
0.0078229
0.00010834
0.00779955
0.000114287
0.00777509
0.000119822
0.00774961
0.000124938
0.00772318
0.000129633
0.0076959
0.000133905
0.00766785
0.000137754
0.00763912
0.000141184
0.0076098
0.000144198
0.00757996
0.000146804
0.00754969
0.000149009
0.00751908
0.000150823
0.00748819
0.000152256
0.0074571
0.000153321
0.00742589
0.00015403
0.00739462
0.000154398
0.00736336
0.000154439
0.00733217
0.000154168
0.00730112
0.000153603
0.00727025
0.000152759
0.00723963
0.000151654
0.0072093
0.000150303
0.0071793
0.000148725
0.00714968
0.000146937
0.00712047
0.000144955
0.00709172
0.000142796
0.00706345
0.000140477
0.00703569
0.000138015
0.00700847
0.000135424
0.00698181
0.00013272
0.00695572
0.000129917
0.00693023
0.000127031
0.00690534
0.000124074
0.00688108
0.00012106
0.00685743
0.000118
0.00683442
0.000114906
0.00681205
0.000111789
0.00679031
0.00010866
0.00676921
0.000105527
0.00674874
0.000102399
0.00672891
9.92847e-05
0.0067097
9.61915e-05
0.00669111
9.31258e-05
0.00667314
9.0094e-05
0.00665577
8.71015e-05
0.006639
8.41532e-05
0.00662281
8.12536e-05
0.00660719
7.84066e-05
0.00659214
7.56154e-05
0.00657763
7.2883e-05
0.00656367
7.02117e-05
0.00655022
6.76037e-05
0.00653729
6.50605e-05
0.00652485
6.25835e-05
0.0065129
6.01736e-05
0.00650141
5.78313e-05
0.00649038
5.55572e-05
0.00647979
5.33512e-05
0.00646963
5.12132e-05
0.00645988
4.9143e-05
0.00645053
4.714e-05
0.00644157
4.52035e-05
0.00643298
4.33326e-05
0.00642475
4.15264e-05
0.00641687
3.97838e-05
0.00640932
3.81037e-05
0.0064021
3.64847e-05
0.00639518
3.49255e-05
0.00638856
3.34248e-05
0.00638223
3.1981e-05
0.00637618
3.05927e-05
0.00637039
2.92584e-05
0.00636486
2.79766e-05
0.00635957
2.67457e-05
0.00635451
2.55642e-05
0.00634968
2.44305e-05
0.00634507
2.33431e-05
0.00634066
2.23005e-05
0.00633645
2.13011e-05
0.00633243
2.03435e-05
0.00632859
1.94262e-05
0.00632492
1.85477e-05
0.00632143
1.77067e-05
0.00631809
1.69017e-05
0.0063149
1.61315e-05
0.00631186
1.53946e-05
0.00630896
1.46898e-05
0.00630619
1.40159e-05
0.00630355
1.33715e-05
0.00630103
1.27556e-05
0.00629863
1.2167e-05
0.00629634
1.16046e-05
0.00629416
1.10673e-05
0.00629207
1.05541e-05
0.00629009
1.00639e-05
0.00628819
9.5958e-06
0.00628639
9.1489e-06
0.00628467
8.72225e-06
0.00628303
8.31501e-06
0.00628146
7.92632e-06
0.00627997
7.5554e-06
0.00627855
7.20146e-06
0.0062772
6.86376e-06
0.00627591
6.5416e-06
0.00627468
6.23428e-06
0.00627351
5.94114e-06
0.00627239
5.66157e-06
0.00627132
5.39494e-06
0.00627031
5.14069e-06
0.00626934
4.89826e-06
0.00626842
4.66711e-06
0.00626755
4.44673e-06
0.00626671
4.23664e-06
0.00626592
4.03637e-06
0.00626516
3.84546e-06
0.00626444
3.6635e-06
0.00626375
3.49008e-06
0.00626309
3.3248e-06
0.00626247
3.16728e-06
0.00626187
3.01718e-06
0.00626131
2.87414e-06
0.00626077
2.73785e-06
0.00626025
2.60799e-06
0.00625976
2.48426e-06
0.00625929
2.36638e-06
0.00625885
2.25408e-06
0.00625843
2.14709e-06
0.00625802
2.04518e-06
0.00625764
1.9481e-06
0.00625727
1.85562e-06
0.00625693
1.76754e-06
0.00625659
1.68364e-06
0.00625628
1.60374e-06
0.00625598
1.52764e-06
0.00625569
1.45517e-06
0.00625542
1.38616e-06
0.00625516
1.32044e-06
0.00625491
1.25786e-06
0.00625467
1.19827e-06
0.00625445
1.14154e-06
0.00625423
1.08753e-06
0.00625403
1.03611e-06
0.00625383
9.87162e-07
0.00625365
9.40568e-07
0.00625347
8.96218e-07
0.0062533
8.54008e-07
0.00625314
8.13838e-07
0.00625299
7.75613e-07
0.00625284
7.39241e-07
0.0062527
7.04637e-07
0.00625257
6.71717e-07
0.00625245
6.40405e-07
0.00625233