/*--------------------------------*- C++ -*----------------------------------*\
| =========                 |                                                 |
| \\      /  F ield         | OpenFOAM: The Open Source CFD Toolbox           |
|  \\    /   O peration     | Version:  2306                                  |
|   \\  /    A nd           | Website:  www.openfoam.com                      |
|    \\/     M anipulation  |                                                 |
\*---------------------------------------------------------------------------*/
FoamFile
{
    version     2.0;
    format      ascii;
    arch        "LSB;label=32;scalar=64";
    class       volScalarField;
    location    "1";
    object      T;
}
// * * * * * * * * * * * * * * * * * * * * * * * * * * * * * * * * * * * * * //

dimensions      [0 0 0 1 0 0 0];

internalField   nonuniform List<scalar> 
32768
(
299.896
299.824
299.718
299.567
299.357
299.069
298.684
298.175
297.514
296.668
295.598
294.265
292.624
290.629
288.233
285.389
282.05
278.176
273.727
268.674
262.993
256.674
249.714
242.124
233.927
225.161
215.873
206.122
195.978
185.518
174.825
163.987
153.093
142.232
131.489
120.948
110.684
100.767
91.2568
82.2054
73.6543
65.6349
58.1691
51.2685
44.9361
39.1662
33.9459
29.2559
25.0715
21.3638
18.101
15.2492
12.7734
10.6384
8.80948
7.25315
5.93746
4.83248
3.91049
3.14615
2.51659
2.00137
1.58241
1.2439
0.972121
0.755305
0.583426
0.448031
0.342045
0.259602
0.195875
0.146923
0.109557
0.081212
0.0598455
0.0438399
0.031925
0.0231107
0.0166308
0.0118968
0.00845987
0.00598016
0.0042022
0.00293534
0.00203825
0.00140694
0.00096543
0.000658556
0.000446579
0.000301052
0.000201758
0.000134423
8.90389e-05
5.86349e-05
3.83897e-05
2.49899e-05
1.61742e-05
1.04087e-05
6.66043e-06
4.23794e-06
2.68144e-06
1.68718e-06
1.05572e-06
6.56969e-07
4.06605e-07
2.50294e-07
1.53248e-07
9.33308e-08
5.65411e-08
3.40746e-08
2.04289e-08
1.21852e-08
7.23116e-09
4.2697e-09
2.50855e-09
1.46657e-09
8.53228e-10
4.94001e-10
2.84652e-10
1.63248e-10
9.31857e-11
5.2947e-11
2.99466e-11
1.68612e-11
9.45118e-12
5.27428e-12
2.93049e-12
1.62122e-12
8.93068e-13
4.89883e-13
2.676e-13
1.45574e-13
7.88698e-14
4.25581e-14
2.28728e-14
1.22446e-14
6.52936e-15
3.46834e-15
1.83533e-15
9.67539e-16
5.0816e-16
2.65906e-16
1.38633e-16
7.20176e-17
3.72783e-17
1.92281e-17
9.8832e-18
5.06237e-18
2.58416e-18
1.31466e-18
6.66571e-19
3.36849e-19
1.69666e-19
8.51801e-20
4.26265e-20
2.12634e-20
1.05733e-20
5.24116e-21
2.58997e-21
1.27593e-21
6.2666e-22
3.06851e-22
1.49803e-22
7.29169e-23
3.53882e-23
1.71246e-23
8.26276e-24
3.97518e-24
1.90625e-24
9.09358e-25
4.2632e-25
1.81474e-25
2.58177e-26
-1.57023e-25
-5.46588e-25
-1.56905e-24
-4.35827e-24
-1.19838e-23
-3.27419e-23
-8.89408e-23
-2.40228e-22
-6.4516e-22
-1.72275e-21
-4.57379e-21
-1.20731e-20
-3.16837e-20
-8.26647e-20
-2.14416e-19
-5.52891e-19
-1.41727e-18
-3.61153e-18
-9.14835e-18
-2.30355e-17
-5.76567e-17
-1.43446e-16
-3.54738e-16
-8.71969e-16
-2.13041e-15
-5.17353e-15
-1.24873e-14
-2.99578e-14
-7.14339e-14
-1.69298e-13
-3.98799e-13
-9.33714e-13
-2.17287e-12
-5.02595e-12
-1.15552e-11
-2.64067e-11
-5.99853e-11
-1.35451e-10
-3.04044e-10
-6.78466e-10
-1.50514e-09
-3.31974e-09
-7.28007e-09
-1.58744e-08
-3.44207e-08
-7.42227e-08
-1.59178e-07
-3.39546e-07
-7.20487e-07
-1.52093e-06
-3.19444e-06
-6.6763e-06
-1.38863e-05
-2.87475e-05
-5.92431e-05
-0.000121552
-0.000248332
-0.000505265
-0.00102397
-0.00206731
-0.00415857
-0.00833628
-0.0166556
-0.0331726
-0.0658716
-0.130433
-0.25758
-0.507386
-0.997086
-1.95503
-3.82527
-7.4699
-14.5601
-28.331
-55.0371
-106.755
-206.779
-399.986
-772.752
-1491.17
-2874.33
-5534.74
-10647.2
299.896
299.824
299.718
299.567
299.357
299.069
298.684
298.175
297.514
296.667
295.597
294.264
292.623
290.628
288.232
285.387
282.048
278.173
273.724
268.671
262.99
256.67
249.709
242.118
233.922
225.155
215.866
206.114
195.97
185.509
174.816
163.978
153.084
142.222
131.48
120.938
110.675
100.758
91.248
82.197
73.6464
65.6277
58.1624
51.2625
44.9308
39.1616
33.942
29.2526
25.0687
21.3616
18.0993
15.2479
12.7724
10.6377
8.80905
7.25292
5.93739
4.83252
3.9106
3.14632
2.51679
2.00158
1.58263
1.24411
0.972316
0.755481
0.583583
0.448167
0.342161
0.2597
0.195955
0.146989
0.10961
0.0812544
0.0598789
0.0438659
0.031945
0.023126
0.0166423
0.0119054
0.00846625
0.00598483
0.0042056
0.00293778
0.00203999
0.00140818
0.000966293
0.000659155
0.000446991
0.000301334
0.000201949
0.000134551
8.9124e-05
5.86911e-05
3.84265e-05
2.50139e-05
1.61896e-05
1.04186e-05
6.66669e-06
4.24188e-06
2.68391e-06
1.68871e-06
1.05666e-06
6.57544e-07
4.06954e-07
2.50503e-07
1.53373e-07
9.3405e-08
5.65847e-08
3.41001e-08
2.04437e-08
1.21937e-08
7.23601e-09
4.27245e-09
2.51009e-09
1.46744e-09
8.53705e-10
4.94263e-10
2.84795e-10
1.63325e-10
9.32269e-11
5.29689e-11
2.99581e-11
1.68672e-11
9.45425e-12
5.27584e-12
2.93128e-12
1.6216e-12
8.93256e-13
4.89973e-13
2.67641e-13
1.45593e-13
7.88777e-14
4.25613e-14
2.28739e-14
1.22448e-14
6.52935e-15
3.46825e-15
1.83524e-15
9.67465e-16
5.08109e-16
2.65873e-16
1.38613e-16
7.20055e-17
3.72712e-17
1.92241e-17
9.88091e-18
5.06108e-18
2.58346e-18
1.31427e-18
6.66362e-19
3.36737e-19
1.69607e-19
8.51487e-20
4.261e-20
2.12548e-20
1.05689e-20
5.23886e-21
2.58879e-21
1.27533e-21
6.26355e-22
3.06696e-22
1.49726e-22
7.2878e-23
3.53688e-23
1.7115e-23
8.25799e-24
3.97283e-24
1.9051e-24
9.08794e-25
4.26049e-25
1.81352e-25
2.57865e-26
-1.56962e-25
-5.46349e-25
-1.56836e-24
-4.3564e-24
-1.19788e-23
-3.27285e-23
-8.89052e-23
-2.40134e-22
-6.44914e-22
-1.72211e-21
-4.57214e-21
-1.20688e-20
-3.16729e-20
-8.26373e-20
-2.14347e-19
-5.52718e-19
-1.41685e-18
-3.61047e-18
-9.14575e-18
-2.30292e-17
-5.76413e-17
-1.43409e-16
-3.5465e-16
-8.71761e-16
-2.12992e-15
-5.17238e-15
-1.24847e-14
-2.99517e-14
-7.14198e-14
-1.69266e-13
-3.98727e-13
-9.33552e-13
-2.17251e-12
-5.02516e-12
-1.15534e-11
-2.64029e-11
-5.99771e-11
-1.35433e-10
-3.04006e-10
-6.78386e-10
-1.50497e-09
-3.31939e-09
-7.27933e-09
-1.58729e-08
-3.44176e-08
-7.42163e-08
-1.59165e-07
-3.3952e-07
-7.20434e-07
-1.52082e-06
-3.19423e-06
-6.6759e-06
-1.38855e-05
-2.87459e-05
-5.924e-05
-0.000121546
-0.000248321
-0.000505244
-0.00102393
-0.00206723
-0.00415842
-0.00833599
-0.0166551
-0.0331716
-0.0658697
-0.130429
-0.257573
-0.507373
-0.997061
-1.95499
-3.82519
-7.46974
-14.5598
-28.3304
-55.036
-106.753
-206.775
-399.979
-772.74
-1491.15
-2874.29
-5534.68
-10647.1
299.896
299.824
299.718
299.567
299.357
299.069
298.684
298.175
297.514
296.667
295.597
294.263
292.622
290.626
288.23
285.385
282.046
278.17
273.721
268.666
262.985
256.664
249.702
242.111
233.913
225.145
215.855
206.103
195.958
185.496
174.803
163.964
153.069
142.207
131.465
120.923
110.66
100.743
91.2344
82.1842
73.6344
65.6167
58.1525
51.2537
44.9231
39.155
33.9365
29.2481
25.0652
21.3589
18.0973
15.2466
12.7717
10.6374
8.80907
7.25321
5.93787
4.83313
3.91129
3.14704
2.51751
2.00228
1.58327
1.2447
0.972845
0.755947
0.583985
0.448509
0.342449
0.259939
0.196151
0.147147
0.109737
0.0813548
0.0599576
0.0439269
0.0319919
0.0231616
0.0166691
0.0119254
0.00848103
0.00599565
0.00421345
0.00294343
0.00204402
0.00141102
0.00096829
0.000660544
0.000447948
0.000301989
0.000202393
0.00013485
8.93237e-05
5.88234e-05
3.85134e-05
2.50706e-05
1.62263e-05
1.04422e-05
6.68175e-06
4.25142e-06
2.68991e-06
1.69245e-06
1.05898e-06
6.58973e-07
4.07827e-07
2.51033e-07
1.53693e-07
9.35966e-08
5.66987e-08
3.41675e-08
2.04833e-08
1.22168e-08
7.24942e-09
4.28018e-09
2.51452e-09
1.46996e-09
8.55133e-10
4.95066e-10
2.85244e-10
1.63575e-10
9.3365e-11
5.30448e-11
2.99996e-11
1.68897e-11
9.46645e-12
5.2824e-12
2.93478e-12
1.62347e-12
8.94242e-13
4.90491e-13
2.67913e-13
1.45734e-13
7.89508e-14
4.25989e-14
2.28932e-14
1.22547e-14
6.53432e-15
3.47076e-15
1.8365e-15
9.68093e-16
5.0842e-16
2.66026e-16
1.38688e-16
7.20421e-17
3.7289e-17
1.92326e-17
9.88499e-18
5.06302e-18
2.58437e-18
1.3147e-18
6.6656e-19
3.36828e-19
1.69648e-19
8.51673e-20
4.26183e-20
2.12584e-20
1.05704e-20
5.23951e-21
2.58905e-21
1.27543e-21
6.26392e-22
3.06708e-22
1.49729e-22
7.2878e-23
3.53681e-23
1.71143e-23
8.25753e-24
3.97254e-24
1.90493e-24
9.08698e-25
4.25999e-25
1.81334e-25
2.58016e-26
-1.56886e-25
-5.46121e-25
-1.56773e-24
-4.35467e-24
-1.19741e-23
-3.27158e-23
-8.88715e-23
-2.40045e-22
-6.44679e-22
-1.7215e-21
-4.57054e-21
-1.20647e-20
-3.16624e-20
-8.26105e-20
-2.1428e-19
-5.52548e-19
-1.41642e-18
-3.60943e-18
-9.14318e-18
-2.30229e-17
-5.76262e-17
-1.43373e-16
-3.54563e-16
-8.71554e-16
-2.12943e-15
-5.17124e-15
-1.2482e-14
-2.99456e-14
-7.14059e-14
-1.69235e-13
-3.98656e-13
-9.33392e-13
-2.17215e-12
-5.02437e-12
-1.15517e-11
-2.63992e-11
-5.9969e-11
-1.35415e-10
-3.03969e-10
-6.78307e-10
-1.50481e-09
-3.31904e-09
-7.27861e-09
-1.58714e-08
-3.44146e-08
-7.42101e-08
-1.59153e-07
-3.39495e-07
-7.20384e-07
-1.52072e-06
-3.19404e-06
-6.67551e-06
-1.38847e-05
-2.87444e-05
-5.92372e-05
-0.00012154
-0.00024831
-0.000505223
-0.00102389
-0.00206716
-0.00415828
-0.00833572
-0.0166546
-0.0331706
-0.0658679
-0.130426
-0.257566
-0.507361
-0.997037
-1.95494
-3.8251
-7.46958
-14.5595
-28.3299
-55.0349
-106.751
-206.771
-399.972
-772.727
-1491.13
-2874.25
-5534.61
-10647
299.896
299.824
299.718
299.567
299.356
299.069
298.684
298.175
297.513
296.666
295.596
294.262
292.62
290.625
288.228
285.382
282.043
278.166
273.716
268.661
262.978
256.656
249.693
242.101
233.902
225.133
215.842
206.088
195.942
185.479
174.785
163.945
153.05
142.187
131.445
120.903
110.64
100.724
91.216
82.1668
73.6182
65.6019
58.1391
51.2419
44.9128
39.1463
33.9293
29.2423
25.0607
21.3556
18.0951
15.2452
12.771
10.6373
8.8095
7.25398
5.93888
4.83429
3.91253
3.14829
2.51873
2.00343
1.58434
1.24566
0.973703
0.756696
0.58463
0.449056
0.342907
0.260317
0.196461
0.147398
0.109936
0.0815128
0.0600812
0.0440227
0.0320653
0.0232173
0.0167111
0.0119567
0.00850414
0.00601258
0.00422573
0.00295226
0.00205032
0.00141548
0.000971413
0.000662716
0.000449446
0.000303014
0.000203089
0.000135319
8.96366e-05
5.90309e-05
3.865e-05
2.51598e-05
1.62841e-05
1.04793e-05
6.70549e-06
4.26647e-06
2.69938e-06
1.69837e-06
1.06265e-06
6.6124e-07
4.09215e-07
2.51878e-07
1.54203e-07
9.39028e-08
5.68813e-08
3.42757e-08
2.0547e-08
1.22541e-08
7.27111e-09
4.29272e-09
2.52173e-09
1.47408e-09
8.57471e-10
4.96387e-10
2.85986e-10
1.63989e-10
9.3595e-11
5.31719e-11
3.00694e-11
1.69279e-11
9.48719e-12
5.29361e-12
2.94082e-12
1.6267e-12
8.95964e-13
4.91405e-13
2.68395e-13
1.45988e-13
7.90833e-14
4.26678e-14
2.29289e-14
1.22731e-14
6.54378e-15
3.47559e-15
1.83896e-15
9.69339e-16
5.09048e-16
2.66342e-16
1.38846e-16
7.21209e-17
3.73281e-17
1.92519e-17
9.89449e-18
5.06768e-18
2.58664e-18
1.3158e-18
6.67095e-19
3.37086e-19
1.69772e-19
8.52266e-20
4.26465e-20
2.12718e-20
1.05767e-20
5.24249e-21
2.59045e-21
1.27608e-21
6.26694e-22
3.06848e-22
1.49793e-22
7.29074e-23
3.53815e-23
1.71204e-23
8.26028e-24
3.97377e-24
1.90548e-24
9.08942e-25
4.26108e-25
1.81385e-25
2.58338e-26
-1.56842e-25
-5.46016e-25
-1.56744e-24
-4.35385e-24
-1.19718e-23
-3.27095e-23
-8.88541e-23
-2.39998e-22
-6.44552e-22
-1.72116e-21
-4.56964e-21
-1.20624e-20
-3.16562e-20
-8.25946e-20
-2.14239e-19
-5.52445e-19
-1.41616e-18
-3.60878e-18
-9.14157e-18
-2.3019e-17
-5.76165e-17
-1.43349e-16
-3.54507e-16
-8.7142e-16
-2.12911e-15
-5.1705e-15
-1.24803e-14
-2.99416e-14
-7.13967e-14
-1.69213e-13
-3.98608e-13
-9.33285e-13
-2.17191e-12
-5.02384e-12
-1.15505e-11
-2.63966e-11
-5.99636e-11
-1.35404e-10
-3.03944e-10
-6.78255e-10
-1.5047e-09
-3.31881e-09
-7.27814e-09
-1.58704e-08
-3.44126e-08
-7.42061e-08
-1.59145e-07
-3.39479e-07
-7.20352e-07
-1.52066e-06
-3.19391e-06
-6.67526e-06
-1.38842e-05
-2.87435e-05
-5.92354e-05
-0.000121537
-0.000248304
-0.00050521
-0.00102387
-0.00206711
-0.00415819
-0.00833555
-0.0166542
-0.03317
-0.0658667
-0.130423
-0.257562
-0.507353
-0.997021
-1.95491
-3.82504
-7.46946
-14.5593
-28.3294
-55.0341
-106.75
-206.769
-399.966
-772.717
-1491.11
-2874.22
-5534.55
-10646.9
299.896
299.824
299.718
299.567
299.356
299.069
298.683
298.174
297.513
296.666
295.595
294.261
292.619
290.623
288.225
285.379
282.039
278.162
273.71
268.654
262.97
256.647
249.683
242.089
233.888
225.117
215.825
206.07
195.922
185.458
174.762
163.921
153.025
142.162
131.419
120.878
110.615
100.7
91.1924
82.1445
73.5975
65.5829
58.1221
51.2268
44.8998
39.1353
33.9202
29.2351
25.0551
21.3515
18.0924
15.2436
12.7704
10.6375
8.81025
7.25517
5.94037
4.83596
3.91428
3.15005
2.52044
2.00504
1.58582
1.247
0.974883
0.757725
0.585514
0.449806
0.343534
0.260836
0.196884
0.147739
0.110209
0.0817285
0.0602499
0.0441533
0.0321655
0.0232934
0.0167684
0.0119994
0.00853567
0.00603566
0.00424248
0.00296431
0.00205891
0.00142156
0.000975676
0.00066568
0.000451492
0.000304413
0.000204039
0.000135959
9.00643e-05
5.93145e-05
3.88366e-05
2.52817e-05
1.63631e-05
1.05302e-05
6.738e-06
4.28709e-06
2.71237e-06
1.7065e-06
1.0677e-06
6.64352e-07
4.11122e-07
2.53038e-07
1.54905e-07
9.43244e-08
5.7133e-08
3.4425e-08
2.0635e-08
1.23056e-08
7.30112e-09
4.31009e-09
2.53172e-09
1.47979e-09
8.60723e-10
4.98226e-10
2.8702e-10
1.64568e-10
9.3917e-11
5.335e-11
3.01675e-11
1.69816e-11
9.51647e-12
5.30949e-12
2.94939e-12
1.6313e-12
8.98423e-13
4.92713e-13
2.69087e-13
1.46353e-13
7.92748e-14
4.27679e-14
2.2981e-14
1.23e-14
6.55768e-15
3.48273e-15
1.84261e-15
9.712e-16
5.09993e-16
2.6682e-16
1.39087e-16
7.22415e-17
3.73883e-17
1.92819e-17
9.90937e-18
5.07503e-18
2.59027e-18
1.31758e-18
6.67965e-19
3.3751e-19
1.69978e-19
8.53262e-20
4.26946e-20
2.12949e-20
1.05878e-20
5.24778e-21
2.59297e-21
1.27727e-21
6.2726e-22
3.07114e-22
1.49918e-22
7.29662e-23
3.54089e-23
1.71332e-23
8.26621e-24
3.97652e-24
1.90675e-24
9.09524e-25
4.26373e-25
1.81502e-25
2.58779e-26
-1.56845e-25
-5.46073e-25
-1.56759e-24
-4.35421e-24
-1.19727e-23
-3.27113e-23
-8.88579e-23
-2.40005e-22
-6.44565e-22
-1.72117e-21
-4.56965e-21
-1.20623e-20
-3.16559e-20
-8.25932e-20
-2.14234e-19
-5.5243e-19
-1.41612e-18
-3.60865e-18
-9.14123e-18
-2.30181e-17
-5.76141e-17
-1.43343e-16
-3.54491e-16
-8.71381e-16
-2.12902e-15
-5.17026e-15
-1.24798e-14
-2.99402e-14
-7.13935e-14
-1.69206e-13
-3.98592e-13
-9.33248e-13
-2.17183e-12
-5.02365e-12
-1.15501e-11
-2.63957e-11
-5.99616e-11
-1.354e-10
-3.03935e-10
-6.78236e-10
-1.50466e-09
-3.31873e-09
-7.27797e-09
-1.58701e-08
-3.44119e-08
-7.42047e-08
-1.59142e-07
-3.39474e-07
-7.20341e-07
-1.52064e-06
-3.19387e-06
-6.67519e-06
-1.38841e-05
-2.87432e-05
-5.92349e-05
-0.000121536
-0.000248302
-0.000505207
-0.00102386
-0.0020671
-0.00415816
-0.0083355
-0.0166541
-0.0331698
-0.0658662
-0.130422
-0.25756
-0.507349
-0.997014
-1.9549
-3.82501
-7.4694
-14.5592
-28.3292
-55.0336
-106.749
-206.767
-399.963
-772.71
-1491.09
-2874.19
-5534.5
-10646.7
299.896
299.824
299.718
299.567
299.356
299.069
298.683
298.174
297.512
296.665
295.594
294.26
292.617
290.621
288.223
285.376
282.035
278.156
273.704
268.646
262.961
256.636
249.67
242.074
233.871
225.099
215.804
206.047
195.897
185.432
174.734
163.892
152.995
142.131
131.387
120.846
110.584
100.669
91.1632
82.1169
73.5718
65.5593
58.1009
51.2081
44.8836
39.1216
33.9089
29.2261
25.0482
21.3466
18.089
15.2418
12.7697
10.6378
8.81124
7.25671
5.94228
4.83809
3.91651
3.15228
2.52259
2.00707
1.58769
1.24868
0.976378
0.759029
0.586635
0.450756
0.344329
0.261492
0.19742
0.148172
0.110555
0.082002
0.0604639
0.044319
0.0322926
0.02339
0.016841
0.0120536
0.00857569
0.00606496
0.00426375
0.00297961
0.00206983
0.00142928
0.000981091
0.000669447
0.000454091
0.000306192
0.000205247
0.000136772
9.06081e-05
5.96752e-05
3.90741e-05
2.54368e-05
1.64637e-05
1.0595e-05
6.77937e-06
4.31334e-06
2.72891e-06
1.71684e-06
1.07413e-06
6.68318e-07
4.13553e-07
2.54518e-07
1.558e-07
9.48623e-08
5.74542e-08
3.46155e-08
2.07474e-08
1.23715e-08
7.33948e-09
4.33231e-09
2.54451e-09
1.48711e-09
8.6489e-10
5.00585e-10
2.88348e-10
1.65311e-10
9.43308e-11
5.35793e-11
3.02938e-11
1.70509e-11
9.55426e-12
5.33001e-12
2.96047e-12
1.63726e-12
9.01612e-13
4.94412e-13
2.69988e-13
1.46828e-13
7.95249e-14
4.28988e-14
2.30492e-14
1.23354e-14
6.57598e-15
3.49215e-15
1.84744e-15
9.73668e-16
5.11249e-16
2.67456e-16
1.39408e-16
7.24032e-17
3.74694e-17
1.93224e-17
9.92954e-18
5.08504e-18
2.59521e-18
1.32002e-18
6.69162e-19
3.38096e-19
1.70264e-19
8.54653e-20
4.2762e-20
2.13275e-20
1.06035e-20
5.25533e-21
2.59658e-21
1.279e-21
6.28082e-22
3.07505e-22
1.50103e-22
7.30535e-23
3.54501e-23
1.71525e-23
8.27525e-24
3.98074e-24
1.90871e-24
9.10436e-25
4.26791e-25
1.81685e-25
2.59329e-26
-1.56895e-25
-5.4629e-25
-1.56819e-24
-4.35576e-24
-1.19766e-23
-3.27212e-23
-8.88828e-23
-2.40067e-22
-6.44719e-22
-1.72155e-21
-4.57058e-21
-1.20645e-20
-3.16613e-20
-8.26061e-20
-2.14265e-19
-5.52503e-19
-1.41629e-18
-3.60905e-18
-9.14215e-18
-2.30202e-17
-5.7619e-17
-1.43354e-16
-3.54516e-16
-8.71437e-16
-2.12914e-15
-5.17055e-15
-1.24804e-14
-2.99416e-14
-7.13966e-14
-1.69213e-13
-3.98606e-13
-9.33279e-13
-2.1719e-12
-5.0238e-12
-1.15504e-11
-2.63964e-11
-5.99631e-11
-1.35403e-10
-3.03942e-10
-6.7825e-10
-1.50469e-09
-3.3188e-09
-7.27811e-09
-1.58704e-08
-3.44125e-08
-7.4206e-08
-1.59144e-07
-3.39479e-07
-7.20353e-07
-1.52066e-06
-3.19392e-06
-6.67528e-06
-1.38843e-05
-2.87436e-05
-5.92356e-05
-0.000121537
-0.000248304
-0.000505212
-0.00102387
-0.00206712
-0.0041582
-0.00833556
-0.0166542
-0.0331699
-0.0658666
-0.130423
-0.257561
-0.50735
-0.997016
-1.9549
-3.82501
-7.46939
-14.5591
-28.3291
-55.0334
-106.748
-206.766
-399.96
-772.705
-1491.08
-2874.17
-5534.45
-10646.6
299.896
299.824
299.718
299.567
299.356
299.069
298.683
298.174
297.512
296.664
295.593
294.258
292.615
290.618
288.219
285.372
282.029
278.15
273.696
268.637
262.95
256.623
249.655
242.056
233.852
225.077
215.779
206.02
195.868
185.4
174.701
163.857
152.958
142.093
131.349
120.808
110.546
100.632
91.1278
82.0834
73.5405
65.5307
58.075
51.1852
44.8637
39.1047
33.895
29.2149
25.0397
21.3403
18.0848
15.2393
12.7687
10.6379
8.81233
7.25847
5.9445
4.8406
3.91915
3.15494
2.52517
2.0095
1.58993
1.25071
0.978176
0.760598
0.587985
0.451901
0.345288
0.262285
0.198068
0.148696
0.110974
0.0823331
0.0607231
0.0445199
0.0324467
0.0235071
0.0169292
0.0121193
0.00862429
0.00610056
0.00428959
0.00299821
0.0020831
0.00143867
0.000987677
0.000674029
0.000457253
0.000308356
0.000206716
0.000137762
9.127e-05
6.01143e-05
3.93631e-05
2.56256e-05
1.65862e-05
1.06738e-05
6.82975e-06
4.34531e-06
2.74904e-06
1.72944e-06
1.08195e-06
6.73148e-07
4.16513e-07
2.56321e-07
1.5689e-07
9.55176e-08
5.78455e-08
3.48477e-08
2.08843e-08
1.24517e-08
7.38625e-09
4.3594e-09
2.56011e-09
1.49604e-09
8.69974e-10
5.03463e-10
2.89968e-10
1.66218e-10
9.48364e-11
5.38595e-11
3.04483e-11
1.71356e-11
9.60051e-12
5.35513e-12
2.97405e-12
1.64457e-12
9.05526e-13
4.96498e-13
2.71096e-13
1.47413e-13
7.98327e-14
4.30601e-14
2.31333e-14
1.23792e-14
6.59861e-15
3.50381e-15
1.85343e-15
9.76731e-16
5.12809e-16
2.68248e-16
1.39809e-16
7.26052e-17
3.75709e-17
1.93732e-17
9.95487e-18
5.09763e-18
2.60145e-18
1.3231e-18
6.70679e-19
3.3884e-19
1.70628e-19
8.56429e-20
4.28484e-20
2.13694e-20
1.06237e-20
5.26507e-21
2.60127e-21
1.28124e-21
6.29154e-22
3.08016e-22
1.50346e-22
7.31685e-23
3.55044e-23
1.71781e-23
8.2873e-24
3.98638e-24
1.91135e-24
9.11664e-25
4.27356e-25
1.81929e-25
2.5998e-26
-1.56991e-25
-5.46665e-25
-1.56923e-24
-4.35847e-24
-1.19836e-23
-3.27392e-23
-8.89285e-23
-2.40183e-22
-6.4501e-22
-1.72228e-21
-4.57239e-21
-1.2069e-20
-3.16723e-20
-8.2633e-20
-2.1433e-19
-5.52661e-19
-1.41667e-18
-3.60996e-18
-9.14431e-18
-2.30253e-17
-5.76309e-17
-1.43382e-16
-3.54581e-16
-8.71587e-16
-2.12948e-15
-5.17133e-15
-1.24822e-14
-2.99456e-14
-7.14056e-14
-1.69233e-13
-3.98651e-13
-9.33378e-13
-2.17211e-12
-5.02428e-12
-1.15515e-11
-2.63987e-11
-5.99679e-11
-1.35413e-10
-3.03964e-10
-6.78297e-10
-1.50479e-09
-3.319e-09
-7.27854e-09
-1.58713e-08
-3.44143e-08
-7.42098e-08
-1.59152e-07
-3.39495e-07
-7.20385e-07
-1.52073e-06
-3.19405e-06
-6.67554e-06
-1.38848e-05
-2.87446e-05
-5.92376e-05
-0.000121541
-0.000248312
-0.000505226
-0.0010239
-0.00206717
-0.00415829
-0.00833574
-0.0166546
-0.0331705
-0.0658676
-0.130425
-0.257564
-0.507356
-0.997026
-1.95491
-3.82504
-7.46944
-14.5592
-28.3292
-55.0335
-106.748
-206.765
-399.959
-772.702
-1491.08
-2874.15
-5534.41
-10646.5
299.896
299.824
299.718
299.566
299.356
299.068
298.683
298.173
297.511
296.663
295.592
294.257
292.613
290.615
288.216
285.367
282.023
278.143
273.687
268.626
262.937
256.607
249.637
242.036
233.828
225.05
215.75
205.988
195.833
185.363
174.661
163.815
152.915
142.049
131.304
120.762
110.501
100.588
91.0854
82.0431
73.5029
65.4961
58.0438
51.1575
44.8396
39.0843
33.878
29.2013
25.0291
21.3325
18.0794
15.236
12.7672
10.6378
8.81335
7.26032
5.94694
4.8434
3.92214
3.15796
2.52812
2.0123
1.59252
1.25305
0.980261
0.762423
0.589557
0.453237
0.346408
0.263213
0.198828
0.14931
0.111465
0.082722
0.0610277
0.0447561
0.032628
0.023645
0.017033
0.0121968
0.00868159
0.00614254
0.00432008
0.00302016
0.00209876
0.00144975
0.000995454
0.000679441
0.000460988
0.000310913
0.000208453
0.000138932
9.20523e-05
6.06332e-05
3.97047e-05
2.58488e-05
1.67309e-05
1.0767e-05
6.88929e-06
4.38308e-06
2.77284e-06
1.74433e-06
1.0912e-06
6.78855e-07
4.20011e-07
2.5845e-07
1.58178e-07
9.62916e-08
5.83076e-08
3.5122e-08
2.10461e-08
1.25465e-08
7.44148e-09
4.39138e-09
2.57853e-09
1.50659e-09
8.75978e-10
5.06862e-10
2.91882e-10
1.6729e-10
9.54336e-11
5.41904e-11
3.06308e-11
1.72357e-11
9.65517e-12
5.38483e-12
2.99011e-12
1.65321e-12
9.10156e-13
4.98967e-13
2.72407e-13
1.48106e-13
8.01975e-14
4.32513e-14
2.32332e-14
1.24311e-14
6.62548e-15
3.51767e-15
1.86055e-15
9.80376e-16
5.14668e-16
2.69193e-16
1.40287e-16
7.28464e-17
3.76921e-17
1.9434e-17
9.9852e-18
5.11273e-18
2.60894e-18
1.3268e-18
6.72504e-19
3.39737e-19
1.71067e-19
8.58574e-20
4.29528e-20
2.14201e-20
1.06483e-20
5.27693e-21
2.60697e-21
1.28398e-21
6.30465e-22
3.08642e-22
1.50644e-22
7.331e-23
3.55714e-23
1.72098e-23
8.30221e-24
3.99339e-24
1.91463e-24
9.13196e-25
4.28061e-25
1.82232e-25
2.60721e-26
-1.57133e-25
-5.47196e-25
-1.57069e-24
-4.36232e-24
-1.19936e-23
-3.27649e-23
-8.89944e-23
-2.40351e-22
-6.45435e-22
-1.72335e-21
-4.57507e-21
-1.20757e-20
-3.16888e-20
-8.26736e-20
-2.1443e-19
-5.52902e-19
-1.41725e-18
-3.61136e-18
-9.14766e-18
-2.30332e-17
-5.76497e-17
-1.43426e-16
-3.54684e-16
-8.71826e-16
-2.13004e-15
-5.1726e-15
-1.2485e-14
-2.99522e-14
-7.14204e-14
-1.69266e-13
-3.98725e-13
-9.33542e-13
-2.17248e-12
-5.02507e-12
-1.15532e-11
-2.64024e-11
-5.9976e-11
-1.3543e-10
-3.04001e-10
-6.78375e-10
-1.50495e-09
-3.31935e-09
-7.27926e-09
-1.58728e-08
-3.44174e-08
-7.42161e-08
-1.59165e-07
-3.39521e-07
-7.20438e-07
-1.52083e-06
-3.19426e-06
-6.67596e-06
-1.38856e-05
-2.87462e-05
-5.92407e-05
-0.000121547
-0.000248324
-0.000505249
-0.00102394
-0.00206725
-0.00415844
-0.00833602
-0.0166551
-0.0331715
-0.0658694
-0.130428
-0.25757
-0.507366
-0.997043
-1.95494
-3.82509
-7.46952
-14.5593
-28.3294
-55.0338
-106.749
-206.766
-399.959
-772.701
-1491.07
-2874.14
-5534.37
-10646.4
299.896
299.824
299.717
299.566
299.356
299.068
298.682
298.173
297.51
296.662
295.591
294.255
292.611
290.612
288.211
285.362
282.017
278.134
273.676
268.613
262.922
256.59
249.616
242.012
233.801
225.02
215.717
205.951
195.792
185.319
174.614
163.766
152.863
141.996
131.25
120.708
110.447
100.536
91.035
81.9952
73.4581
65.4548
58.0064
51.1243
44.8106
39.0595
33.8573
29.1845
25.0159
21.3226
18.0725
15.2316
12.7648
10.6372
8.8141
7.26209
5.94944
4.84637
3.92537
3.16128
2.53139
2.01542
1.59542
1.25569
0.982618
0.764491
0.591343
0.454758
0.347686
0.264273
0.199696
0.150014
0.112029
0.0831683
0.0613777
0.0450277
0.0328368
0.0238038
0.0171527
0.0122862
0.00874769
0.006191
0.00435529
0.00304552
0.00211686
0.00146256
0.00100445
0.000685701
0.000465309
0.000313872
0.000210463
0.000140287
9.29575e-05
6.12337e-05
4.01e-05
2.61071e-05
1.68984e-05
1.08748e-05
6.95818e-06
4.42679e-06
2.80037e-06
1.76155e-06
1.1019e-06
6.85454e-07
4.24055e-07
2.60912e-07
1.59667e-07
9.7186e-08
5.88416e-08
3.54388e-08
2.12328e-08
1.2656e-08
7.50524e-09
4.4283e-09
2.59979e-09
1.51876e-09
8.82904e-10
5.10783e-10
2.9409e-10
1.68526e-10
9.61221e-11
5.4572e-11
3.08411e-11
1.73511e-11
9.71817e-12
5.41906e-12
3.00862e-12
1.66317e-12
9.15493e-13
5.01814e-13
2.73918e-13
1.48906e-13
8.06182e-14
4.34718e-14
2.33483e-14
1.24909e-14
6.65649e-15
3.53368e-15
1.86877e-15
9.84587e-16
5.16817e-16
2.70285e-16
1.4084e-16
7.31256e-17
3.78325e-17
1.95044e-17
1.00204e-17
5.13024e-18
2.61763e-18
1.33111e-18
6.74626e-19
3.40781e-19
1.71579e-19
8.61075e-20
4.30747e-20
2.14793e-20
1.0677e-20
5.29079e-21
2.61365e-21
1.28719e-21
6.32003e-22
3.09377e-22
1.50994e-22
7.34766e-23
3.56504e-23
1.72471e-23
8.31983e-24
4.00168e-24
1.91852e-24
9.15013e-25
4.28898e-25
1.8259e-25
2.61541e-26
-1.5732e-25
-5.47876e-25
-1.57256e-24
-4.36726e-24
-1.20064e-23
-3.27981e-23
-8.90799e-23
-2.40569e-22
-6.4599e-22
-1.72475e-21
-4.57859e-21
-1.20845e-20
-3.17106e-20
-8.27274e-20
-2.14562e-19
-5.53224e-19
-1.41803e-18
-3.61324e-18
-9.15217e-18
-2.3044e-17
-5.76752e-17
-1.43486e-16
-3.54824e-16
-8.72152e-16
-2.13079e-15
-5.17433e-15
-1.2489e-14
-2.99612e-14
-7.14408e-14
-1.69312e-13
-3.98827e-13
-9.33769e-13
-2.17298e-12
-5.02617e-12
-1.15556e-11
-2.64076e-11
-5.99872e-11
-1.35454e-10
-3.04052e-10
-6.78484e-10
-1.50518e-09
-3.31983e-09
-7.28026e-09
-1.58748e-08
-3.44217e-08
-7.42249e-08
-1.59183e-07
-3.39557e-07
-7.2051e-07
-1.52098e-06
-3.19455e-06
-6.67653e-06
-1.38867e-05
-2.87484e-05
-5.9245e-05
-0.000121555
-0.00024834
-0.000505279
-0.001024
-0.00206736
-0.00415865
-0.00833641
-0.0166558
-0.0331728
-0.0658718
-0.130433
-0.257578
-0.50738
-0.997068
-1.95499
-3.82517
-7.46965
-14.5595
-28.3298
-55.0344
-106.75
-206.767
-399.961
-772.701
-1491.07
-2874.13
-5534.33
-10646.4
299.896
299.824
299.717
299.566
299.356
299.068
298.682
298.172
297.51
296.661
295.589
294.253
292.608
290.608
288.207
285.355
282.009
278.124
273.664
268.599
262.904
256.569
249.592
241.985
233.77
224.985
215.677
205.908
195.745
185.268
174.56
163.708
152.803
141.934
131.187
120.645
110.385
100.475
90.9756
81.9387
73.4052
65.4059
57.962
51.0846
44.7759
39.0296
33.8323
29.164
24.9997
21.3102
18.0635
15.2256
12.7614
10.6358
8.81435
7.2636
5.95185
4.8494
3.92875
3.16481
2.53491
2.01881
1.5986
1.2586
0.985223
0.766785
0.593332
0.456456
0.349115
0.265461
0.200671
0.150805
0.112664
0.083672
0.0617731
0.0453349
0.033073
0.0239838
0.0172885
0.0123876
0.00882276
0.00624606
0.00439531
0.00307435
0.00213746
0.00147715
0.00101469
0.000692829
0.00047023
0.000317242
0.000212752
0.000141829
9.39888e-05
6.19178e-05
4.05504e-05
2.64013e-05
1.70892e-05
1.09975e-05
7.03663e-06
4.47655e-06
2.83171e-06
1.78115e-06
1.11407e-06
6.92962e-07
4.28654e-07
2.63711e-07
1.61359e-07
9.82025e-08
5.94483e-08
3.57986e-08
2.14449e-08
1.27802e-08
7.5776e-09
4.47019e-09
2.6239e-09
1.53255e-09
8.90755e-10
5.15226e-10
2.9659e-10
1.69926e-10
9.69018e-11
5.50039e-11
3.10792e-11
1.74817e-11
9.78945e-12
5.45777e-12
3.02955e-12
1.67443e-12
9.21526e-13
5.05031e-13
2.75626e-13
1.49809e-13
8.10936e-14
4.37211e-14
2.34784e-14
1.25586e-14
6.69154e-15
3.55176e-15
1.87807e-15
9.89346e-16
5.19245e-16
2.71519e-16
1.41466e-16
7.34413e-17
3.79914e-17
1.9584e-17
1.00602e-17
5.15007e-18
2.62748e-18
1.33598e-18
6.7703e-19
3.41963e-19
1.72159e-19
8.63911e-20
4.3213e-20
2.15466e-20
1.07096e-20
5.30655e-21
2.62125e-21
1.29085e-21
6.33755e-22
3.10215e-22
1.51394e-22
7.36667e-23
3.57406e-23
1.72898e-23
8.33998e-24
4.01117e-24
1.92298e-24
9.17096e-25
4.29858e-25
1.82999e-25
2.62422e-26
-1.57552e-25
-5.48704e-25
-1.57484e-24
-4.37327e-24
-1.20221e-23
-3.28387e-23
-8.91843e-23
-2.40836e-22
-6.4667e-22
-1.72647e-21
-4.58291e-21
-1.20953e-20
-3.17375e-20
-8.27939e-20
-2.14725e-19
-5.53624e-19
-1.419e-18
-3.61559e-18
-9.15779e-18
-2.30574e-17
-5.7707e-17
-1.43561e-16
-3.55e-16
-8.72562e-16
-2.13174e-15
-5.17652e-15
-1.2494e-14
-2.99726e-14
-7.14665e-14
-1.6937e-13
-3.98957e-13
-9.34056e-13
-2.17361e-12
-5.02756e-12
-1.15586e-11
-2.64142e-11
-6.00014e-11
-1.35485e-10
-3.04117e-10
-6.78621e-10
-1.50547e-09
-3.32044e-09
-7.28152e-09
-1.58774e-08
-3.44271e-08
-7.42359e-08
-1.59205e-07
-3.39603e-07
-7.20601e-07
-1.52116e-06
-3.19491e-06
-6.67725e-06
-1.38882e-05
-2.87512e-05
-5.92504e-05
-0.000121566
-0.00024836
-0.000505318
-0.00102407
-0.0020675
-0.00415891
-0.00833689
-0.0166567
-0.0331745
-0.0658749
-0.130438
-0.257588
-0.507399
-0.997101
-1.95504
-3.82527
-7.46982
-14.5598
-28.3302
-55.0351
-106.751
-206.768
-399.963
-772.703
-1491.07
-2874.12
-5534.3
-10646.3
299.896
299.824
299.717
299.566
299.355
299.068
298.681
298.172
297.509
296.66
295.587
294.25
292.605
290.604
288.201
285.348
282
278.113
273.651
268.582
262.884
256.546
249.565
241.953
233.734
224.944
215.632
205.857
195.69
185.209
174.497
163.642
152.734
141.862
131.114
120.571
110.311
100.403
90.906
81.8724
73.3428
65.3482
57.9094
51.0375
44.7344
38.9938
33.802
29.139
24.9797
21.2947
18.0521
15.2176
12.7564
10.6333
8.81383
7.26461
5.95399
4.85232
3.93215
3.16846
2.53861
2.02241
1.602
1.26174
0.988052
0.769288
0.59551
0.458321
0.350691
0.266774
0.201752
0.151683
0.113369
0.0842327
0.0622138
0.0456778
0.0333371
0.024185
0.0174404
0.0125012
0.00890694
0.00630785
0.00444025
0.00310675
0.00216061
0.00149354
0.0010262
0.000700847
0.000475767
0.000321034
0.000215328
0.000143565
9.51497e-05
6.26879e-05
4.10573e-05
2.67325e-05
1.73039e-05
1.11357e-05
7.12489e-06
4.53252e-06
2.86696e-06
1.80318e-06
1.12775e-06
7.01397e-07
4.33821e-07
2.66854e-07
1.63258e-07
9.9343e-08
6.01288e-08
3.6202e-08
2.16826e-08
1.29194e-08
7.65863e-09
4.51709e-09
2.65087e-09
1.54799e-09
8.99533e-10
5.20191e-10
2.99384e-10
1.7149e-10
9.77721e-11
5.54859e-11
3.13448e-11
1.76273e-11
9.8689e-12
5.50091e-12
3.05286e-12
1.68698e-12
9.28242e-13
5.08612e-13
2.77527e-13
1.50813e-13
8.16222e-14
4.39981e-14
2.3623e-14
1.26338e-14
6.73048e-15
3.57184e-15
1.88839e-15
9.94631e-16
5.21941e-16
2.7289e-16
1.4216e-16
7.37918e-17
3.81677e-17
1.96724e-17
1.01043e-17
5.17207e-18
2.63841e-18
1.34139e-18
6.79699e-19
3.43277e-19
1.72803e-19
8.67062e-20
4.33666e-20
2.16213e-20
1.07458e-20
5.32407e-21
2.6297e-21
1.29491e-21
6.35704e-22
3.11147e-22
1.51839e-22
7.38783e-23