/*--------------------------------*- C++ -*----------------------------------*\
| =========                 |                                                 |
| \\      /  F ield         | OpenFOAM: The Open Source CFD Toolbox           |
|  \\    /   O peration     | Version:  2306                                  |
|   \\  /    A nd           | Website:  www.openfoam.com                      |
|    \\/     M anipulation  |                                                 |
\*---------------------------------------------------------------------------*/
FoamFile
{
    version     2.0;
    format      ascii;
    arch        "LSB;label=32;scalar=64";
    class       volVectorField;
    location    "1";
    object      U;
}
// * * * * * * * * * * * * * * * * * * * * * * * * * * * * * * * * * * * * * //

dimensions      [0 1 -1 0 0 0 0];

internalField   nonuniform List<vector> 
32768
(
(1.00001 -3.58783e-05 0)
(1.00015 -0.0001076 0)
(1.00043 -0.000179229 0)
(1.00086 -0.000250768 0)
(1.00143 -0.000322306 0)
(1.00215 -0.000393934 0)
(1.00301 -0.000465712 0)
(1.00402 -0.000537698 0)
(1.00516 -0.000609957 0)
(1.00646 -0.000682561 0)
(1.00789 -0.000755579 0)
(1.00948 -0.000829085 0)
(1.01121 -0.000903154 0)
(1.01309 -0.000977874 0)
(1.01512 -0.00105335 0)
(1.01731 -0.00112971 0)
(1.01964 -0.0012071 0)
(1.02213 -0.00128565 0)
(1.02479 -0.00136556 0)
(1.0276 -0.00144716 0)
(1.03057 -0.00153111 0)
(1.03372 -0.00161853 0)
(1.03705 -0.00171102 0)
(1.04057 -0.00181053 0)
(1.04429 -0.0019189 0)
(1.04825 -0.00203734 0)
(1.05244 -0.00216587 0)
(1.05691 -0.002303 0)
(1.06166 -0.00244571 0)
(1.06669 -0.00258978 0)
(1.07202 -0.00273033 0)
(1.07762 -0.00286255 0)
(1.08347 -0.00298228 0)
(1.08955 -0.00308644 0)
(1.09582 -0.00317328 0)
(1.10224 -0.00324227 0)
(1.10879 -0.00329394 0)
(1.11542 -0.00332959 0)
(1.12211 -0.00335089 0)
(1.12882 -0.00335967 0)
(1.13555 -0.00335768 0)
(1.14226 -0.00334644 0)
(1.14894 -0.00332715 0)
(1.15557 -0.00330074 0)
(1.16214 -0.00326784 0)
(1.16864 -0.00322884 0)
(1.17506 -0.00318395 0)
(1.18138 -0.00313326 0)
(1.1876 -0.00307675 0)
(1.1937 -0.00301438 0)
(1.19966 -0.00294607 0)
(1.20548 -0.00287175 0)
(1.21115 -0.00279135 0)
(1.21665 -0.00270485 0)
(1.22198 -0.00261226 0)
(1.22711 -0.00251361 0)
(1.23204 -0.002409 0)
(1.23675 -0.00229856 0)
(1.24124 -0.00218246 0)
(1.24548 -0.00206093 0)
(1.24948 -0.00193423 0)
(1.25323 -0.00180265 0)
(1.2567 -0.00166656 0)
(1.2599 -0.00152633 0)
(1.26281 -0.00138237 0)
(1.26543 -0.00123514 0)
(1.26775 -0.00108512 0)
(1.26977 -0.000932789 0)
(1.27148 -0.000778683 0)
(1.27289 -0.000623329 0)
(1.27398 -0.000467274 0)
(1.27476 -0.000311067 0)
(1.27522 -0.00015526 0)
(1.27538 -4.01338e-07 0)
(1.27522 0.000152961 0)
(1.27476 0.000304301 0)
(1.274 0.000453106 0)
(1.27295 0.000598881 0)
(1.2716 0.000741154 0)
(1.26998 0.000879479 0)
(1.26808 0.00101344 0)
(1.26592 0.00114266 0)
(1.2635 0.00126677 0)
(1.26085 0.00138547 0)
(1.25796 0.00149847 0)
(1.25485 0.00160554 0)
(1.25153 0.00170646 0)
(1.24802 0.00180106 0)
(1.24432 0.00188922 0)
(1.24045 0.00197083 0)
(1.23643 0.00204584 0)
(1.23226 0.00211422 0)
(1.22796 0.00217597 0)
(1.22355 0.00223114 0)
(1.21903 0.00227978 0)
(1.21443 0.00232198 0)
(1.20974 0.00235788 0)
(1.20499 0.0023876 0)
(1.20018 0.00241132 0)
(1.19534 0.00242921 0)
(1.19046 0.00244148 0)
(1.18556 0.00244834 0)
(1.18066 0.00245003 0)
(1.17576 0.00244677 0)
(1.17087 0.00243882 0)
(1.166 0.00242643 0)
(1.16116 0.00240987 0)
(1.15636 0.00238941 0)
(1.1516 0.0023653 0)
(1.14689 0.00233782 0)
(1.14224 0.00230723 0)
(1.13766 0.00227379 0)
(1.13315 0.00223778 0)
(1.12871 0.00219943 0)
(1.12435 0.00215899 0)
(1.12007 0.00211672 0)
(1.11588 0.00207284 0)
(1.11177 0.00202757 0)
(1.10776 0.00198113 0)
(1.10385 0.00193372 0)
(1.10003 0.00188554 0)
(1.09631 0.00183678 0)
(1.09268 0.0017876 0)
(1.08916 0.00173817 0)
(1.08573 0.00168864 0)
(1.0824 0.00163915 0)
(1.07917 0.00158983 0)
(1.07604 0.0015408 0)
(1.07301 0.00149217 0)
(1.07007 0.00144404 0)
(1.06723 0.0013965 0)
(1.06449 0.00134963 0)
(1.06184 0.00130351 0)
(1.05928 0.00125819 0)
(1.0568 0.00121373 0)
(1.05442 0.00117019 0)
(1.05212 0.00112759 0)
(1.04991 0.00108598 0)
(1.04778 0.00104538 0)
(1.04573 0.00100582 0)
(1.04376 0.000967307 0)
(1.04186 0.000929861 0)
(1.04004 0.000893487 0)
(1.03829 0.000858188 0)
(1.03661 0.000823963 0)
(1.035 0.000790808 0)
(1.03345 0.000758717 0)
(1.03196 0.00072768 0)
(1.03054 0.000697684 0)
(1.02917 0.000668715 0)
(1.02786 0.000640756 0)
(1.02661 0.000613791 0)
(1.02541 0.000587799 0)
(1.02426 0.00056276 0)
(1.02316 0.000538652 0)
(1.02211 0.000515454 0)
(1.0211 0.000493141 0)
(1.02013 0.00047169 0)
(1.01921 0.000451078 0)
(1.01833 0.00043128 0)
(1.01749 0.000412272 0)
(1.01668 0.00039403 0)
(1.01591 0.000376529 0)
(1.01518 0.000359745 0)
(1.01447 0.000343655 0)
(1.0138 0.000328234 0)
(1.01316 0.00031346 0)
(1.01255 0.000299309 0)
(1.01197 0.000285759 0)
(1.01141 0.000272788 0)
(1.01087 0.000260375 0)
(1.01037 0.000248498 0)
(1.00988 0.000237136 0)
(1.00942 0.00022627 0)
(1.00898 0.000215881 0)
(1.00856 0.000205949 0)
(1.00815 0.000196456 0)
(1.00777 0.000187384 0)
(1.0074 0.000178717 0)
(1.00706 0.000170437 0)
(1.00672 0.000162528 0)
(1.00641 0.000154975 0)
(1.0061 0.000147764 0)
(1.00581 0.000140878 0)
(1.00554 0.000134306 0)
(1.00528 0.000128032 0)
(1.00503 0.000122045 0)
(1.00479 0.000116331 0)
(1.00456 0.000110879 0)
(1.00435 0.000105678 0)
(1.00414 0.000100716 0)
(1.00394 9.5983e-05 0)
(1.00376 9.14686e-05 0)
(1.00358 8.71631e-05 0)
(1.00341 8.30572e-05 0)
(1.00325 7.91419e-05 0)
(1.00309 7.54087e-05 0)
(1.00294 7.18494e-05 0)
(1.0028 6.84561e-05 0)
(1.00267 6.52212e-05 0)
(1.00254 6.21376e-05 0)
(1.00242 5.91983e-05 0)
(1.00231 5.63968e-05 0)
(1.0022 5.37268e-05 0)
(1.00209 5.11822e-05 0)
(1.00199 4.87572e-05 0)
(1.0019 4.64464e-05 0)
(1.00181 4.42444e-05 0)
(1.00172 4.21463e-05 0)
(1.00164 4.01473e-05 0)
(1.00156 3.82426e-05 0)
(1.00149 3.64281e-05 0)
(1.00141 3.46994e-05 0)
(1.00135 3.30526e-05 0)
(1.00128 3.14839e-05 0)
(1.00122 2.99896e-05 0)
(1.00116 2.85663e-05 0)
(1.00111 2.72106e-05 0)
(1.00105 2.59194e-05 0)
(1.001 2.46897e-05 0)
(1.00096 2.35185e-05 0)
(1.00091 2.24032e-05 0)
(1.00087 2.13412e-05 0)
(1.00082 2.03299e-05 0)
(1.00078 1.9367e-05 0)
(1.00075 1.84501e-05 0)
(1.00071 1.75772e-05 0)
(1.00068 1.67462e-05 0)
(1.00064 1.59551e-05 0)
(1.00061 1.52021e-05 0)
(1.00058 1.44853e-05 0)
(1.00055 1.38032e-05 0)
(1.00053 1.31539e-05 0)
(1.0005 1.25361e-05 0)
(1.00048 1.19483e-05 0)
(1.00045 1.1389e-05 0)
(1.00043 1.0857e-05 0)
(1.00041 1.03509e-05 0)
(1.00039 9.86956e-06 0)
(1.00037 9.41186e-06 0)
(1.00035 8.97669e-06 0)
(1.00034 8.56303e-06 0)
(1.00032 8.16985e-06 0)
(1.0003 7.79627e-06 0)
(1.00029 7.44135e-06 0)
(1.00027 7.10427e-06 0)
(1.00026 6.7842e-06 0)
(1.00025 6.48042e-06 0)
(1.00023 6.19213e-06 0)
(1.00022 5.91873e-06 0)
(1.00021 5.65949e-06 0)
(1.0002 5.41343e-06 0)
(1.00019 5.18198e-06 0)
(1.00018 4.95522e-06 0)
(1.00017 4.76646e-06 0)
(1.00015 4.49746e-06 0)
(1.00001 -0.000107798 0)
(1.00015 -0.000323017 0)
(1.00043 -0.000537884 0)
(1.00086 -0.000752511 0)
(1.00143 -0.00096714 0)
(1.00215 -0.00118201 0)
(1.00301 -0.00139732 0)
(1.00401 -0.00161326 0)
(1.00516 -0.00183002 0)
(1.00645 -0.00204782 0)
(1.00789 -0.00226687 0)
(1.00947 -0.00248739 0)
(1.01121 -0.00270961 0)
(1.01309 -0.00293379 0)
(1.01512 -0.00316025 0)
(1.0173 -0.00338937 0)
(1.01964 -0.00362157 0)
(1.02213 -0.00385728 0)
(1.02478 -0.00409707 0)
(1.02759 -0.00434195 0)
(1.03057 -0.00459389 0)
(1.03372 -0.00485622 0)
(1.03704 -0.0051338 0)
(1.04056 -0.00543243 0)
(1.04429 -0.00575765 0)
(1.04824 -0.00611306 0)
(1.05244 -0.00649874 0)
(1.05691 -0.00691023 0)
(1.06166 -0.00733845 0)
(1.0667 -0.00777073 0)
(1.07202 -0.00819246 0)
(1.07762 -0.0085892 0)
(1.08348 -0.00894847 0)
(1.08956 -0.00926108 0)
(1.09583 -0.00952172 0)
(1.10226 -0.00972886 0)
(1.10881 -0.00988408 0)
(1.11545 -0.00999122 0)
(1.12214 -0.0100554 0)
(1.12886 -0.010082 0)
(1.13559 -0.0100763 0)
(1.14231 -0.0100428 0)
(1.149 -0.00998521 0)
(1.15564 -0.00990624 0)
(1.16222 -0.00980777 0)
(1.16873 -0.00969099 0)
(1.17516 -0.00955653 0)
(1.18149 -0.00940463 0)
(1.18772 -0.00923527 0)
(1.19383 -0.00904827 0)
(1.1998 -0.00884342 0)
(1.20564 -0.00862049 0)
(1.21132 -0.00837931 0)
(1.21683 -0.00811978 0)
(1.22217 -0.00784192 0)
(1.22731 -0.00754587 0)
(1.23225 -0.00723189 0)
(1.23698 -0.00690037 0)
(1.24147 -0.00655184 0)
(1.24573 -0.00618696 0)
(1.24974 -0.00580654 0)
(1.25349 -0.00541147 0)
(1.25697 -0.00500282 0)
(1.26018 -0.00458171 0)
(1.2631 -0.00414942 0)
(1.26572 -0.00370728 0)
(1.26805 -0.00325672 0)
(1.27008 -0.00279926 0)
(1.27179 -0.00233644 0)
(1.2732 -0.00186988 0)
(1.27429 -0.0014012 0)
(1.27507 -0.000932075 0)
(1.27553 -0.000464154 0)
(1.27568 9.09945e-07 0)
(1.27553 0.000461479 0)
(1.27506 0.000915967 0)
(1.2743 0.00136283 0)
(1.27323 0.00180057 0)
(1.27188 0.00222779 0)
(1.27025 0.00264313 0)
(1.26834 0.00304536 0)
(1.26617 0.0034333 0)
(1.26375 0.00380592 0)
(1.26108 0.00416225 0)
(1.25818 0.00450146 0)
(1.25506 0.00482282 0)
(1.25172 0.00512571 0)
(1.2482 0.00540962 0)
(1.24449 0.00567416 0)
(1.24061 0.00591903 0)
(1.23657 0.00614406 0)
(1.23239 0.00634916 0)
(1.22808 0.00653436 0)
(1.22365 0.00669976 0)
(1.21912 0.00684557 0)
(1.2145 0.00697205 0)
(1.2098 0.00707958 0)
(1.20504 0.00716858 0)
(1.20022 0.00723954 0)
(1.19537 0.00729302 0)
(1.19048 0.0073296 0)
(1.18557 0.00734996 0)
(1.18066 0.00735476 0)
(1.17575 0.00734473 0)
(1.17085 0.00732063 0)
(1.16597 0.00728322 0)
(1.16112 0.00723328 0)
(1.15631 0.00717162 0)
(1.15155 0.00709904 0)
(1.14683 0.00701634 0)
(1.14218 0.00692431 0)
(1.13759 0.00682376 0)
(1.13307 0.00671547 0)
(1.12863 0.00660018 0)
(1.12426 0.00647865 0)
(1.11998 0.00635161 0)
(1.11579 0.00621975 0)
(1.11168 0.00608373 0)
(1.10767 0.00594422 0)
(1.10375 0.00580182 0)
(1.09993 0.00565712 0)
(1.09621 0.00551066 0)
(1.09258 0.00536297 0)
(1.08906 0.00521453 0)
(1.08563 0.00506581 0)
(1.0823 0.00491722 0)
(1.07907 0.00476915 0)
(1.07594 0.00462196 0)
(1.07291 0.00447598 0)
(1.06998 0.00433151 0)
(1.06714 0.00418882 0)
(1.0644 0.00404815 0)
(1.06174 0.00390972 0)
(1.05919 0.00377371 0)
(1.05672 0.0036403 0)
(1.05434 0.00350962 0)
(1.05204 0.0033818 0)
(1.04983 0.00325695 0)
(1.0477 0.00313513 0)
(1.04565 0.00301643 0)
(1.04368 0.00290089 0)
(1.04179 0.00278855 0)
(1.03997 0.00267943 0)
(1.03822 0.00257353 0)
(1.03654 0.00247086 0)
(1.03493 0.0023714 0)
(1.03338 0.00227514 0)
(1.0319 0.00218204 0)
(1.03048 0.00209207 0)
(1.02912 0.00200518 0)
(1.02781 0.00192132 0)
(1.02656 0.00184044 0)
(1.02536 0.00176249 0)
(1.02421 0.00168739 0)
(1.02311 0.00161509 0)
(1.02206 0.00154552 0)
(1.02105 0.0014786 0)
(1.02009 0.00141427 0)
(1.01917 0.00135246 0)
(1.01829 0.00129309 0)
(1.01745 0.00123609 0)
(1.01665 0.00118139 0)
(1.01588 0.00112891 0)
(1.01514 0.00107858 0)
(1.01444 0.00103033 0)
(1.01377 0.000984091 0)
(1.01313 0.00093979 0)
(1.01252 0.000897359 0)
(1.01194 0.00085673 0)
(1.01138 0.000817838 0)
(1.01085 0.000780617 0)
(1.01034 0.000745005 0)
(1.00986 0.000710939 0)
(1.0094 0.000678361 0)
(1.00896 0.00064721 0)
(1.00854 0.000617431 0)
(1.00813 0.000588969 0)
(1.00775 0.000561771 0)
(1.00739 0.000535784 0)
(1.00704 0.000510959 0)
(1.00671 0.000487248 0)
(1.00639 0.000464605 0)
(1.00609 0.000442983 0)
(1.0058 0.00042234 0)
(1.00553 0.000402635 0)
(1.00527 0.000383826 0)
(1.00502 0.000365876 0)
(1.00478 0.000348746 0)
(1.00455 0.000332402 0)
(1.00434 0.000316809 0)
(1.00413 0.000301933 0)
(1.00393 0.000287743 0)
(1.00375 0.000274209 0)
(1.00357 0.000261301 0)
(1.0034 0.000248992 0)
(1.00324 0.000237254 0)
(1.00308 0.000226063 0)
(1.00294 0.000215392 0)
(1.0028 0.000205219 0)
(1.00267 0.000195521 0)
(1.00254 0.000186277 0)
(1.00242 0.000177465 0)
(1.0023 0.000169067 0)
(1.00219 0.000161062 0)
(1.00209 0.000153434 0)
(1.00199 0.000146164 0)
(1.00189 0.000139237 0)
(1.0018 0.000132636 0)
(1.00172 0.000126346 0)
(1.00163 0.000120353 0)
(1.00156 0.000114643 0)
(1.00148 0.000109204 0)
(1.00141 0.000104021 0)
(1.00134 9.90845e-05 0)
(1.00128 9.43818e-05 0)
(1.00122 8.99022e-05 0)
(1.00116 8.56353e-05 0)
(1.0011 8.15713e-05 0)
(1.00105 7.77005e-05 0)
(1.001 7.4014e-05 0)
(1.00095 7.05032e-05 0)
(1.00091 6.71598e-05 0)
(1.00086 6.3976e-05 0)
(1.00082 6.09444e-05 0)
(1.00078 5.80577e-05 0)
(1.00074 5.53092e-05 0)
(1.00071 5.26925e-05 0)
(1.00067 5.02013e-05 0)
(1.00064 4.78298e-05 0)
(1.00061 4.55724e-05 0)
(1.00058 4.34237e-05 0)
(1.00055 4.13787e-05 0)
(1.00053 3.94325e-05 0)
(1.0005 3.75804e-05 0)
(1.00048 3.58182e-05 0)
(1.00045 3.41416e-05 0)
(1.00043 3.25467e-05 0)
(1.00041 3.10296e-05 0)
(1.00039 2.95867e-05 0)
(1.00037 2.82146e-05 0)
(1.00035 2.69101e-05 0)
(1.00033 2.567e-05 0)
(1.00032 2.44914e-05 0)
(1.0003 2.33715e-05 0)
(1.00029 2.23075e-05 0)
(1.00027 2.12971e-05 0)
(1.00026 2.03376e-05 0)
(1.00025 1.94269e-05 0)
(1.00023 1.85628e-05 0)
(1.00022 1.7743e-05 0)
(1.00021 1.69665e-05 0)
(1.0002 1.62276e-05 0)
(1.00019 1.55373e-05 0)
(1.00018 1.48517e-05 0)
(1.00017 1.43023e-05 0)
(1.00015 1.34749e-05 0)
(1.00001 -0.000179765 0)
(1.00015 -0.000538399 0)
(1.00043 -0.000896377 0)
(1.00086 -0.00125401 0)
(1.00143 -0.00161166 0)
(1.00215 -0.00196969 0)
(1.00301 -0.00232844 0)
(1.00401 -0.00268825 0)
(1.00515 -0.00304946 0)
(1.00645 -0.00341242 0)
(1.00788 -0.00377749 0)
(1.00946 -0.00414503 0)
(1.0112 -0.00451543 0)
(1.01307 -0.00488912 0)
(1.0151 -0.00526664 0)
(1.01729 -0.00564864 0)
(1.01962 -0.0060358 0)
(1.02211 -0.00642884 0)
(1.02476 -0.00682872 0)
(1.02758 -0.00723712 0)
(1.03055 -0.00765731 0)
(1.0337 -0.00809486 0)
(1.03703 -0.00855785 0)
(1.04055 -0.00905593 0)
(1.04428 -0.00959832 0)
(1.04824 -0.010191 0)
(1.05244 -0.0108342 0)
(1.05691 -0.0115203 0)
(1.06166 -0.0122343 0)
(1.0667 -0.012955 0)
(1.07204 -0.0136582 0)
(1.07764 -0.0143198 0)
(1.0835 -0.014919 0)
(1.08959 -0.0154405 0)
(1.09587 -0.0158755 0)
(1.1023 -0.0162214 0)
(1.10886 -0.0164809 0)
(1.11551 -0.0166604 0)
(1.12221 -0.0167682 0)
(1.12894 -0.0168136 0)
(1.13569 -0.0168052 0)
(1.14242 -0.0167504 0)
(1.14912 -0.0166555 0)
(1.15578 -0.0165249 0)
(1.16238 -0.0163618 0)
(1.16891 -0.0161681 0)
(1.17536 -0.0159449 0)
(1.18171 -0.0156925 0)
(1.18796 -0.0154108 0)
(1.19409 -0.0150997 0)
(1.20009 -0.0147587 0)
(1.20595 -0.0143875 0)
(1.21165 -0.0139856 0)
(1.21719 -0.0135531 0)
(1.22255 -0.0130898 0)
(1.22772 -0.0125961 0)
(1.23268 -0.0120723 0)
(1.23743 -0.0115192 0)
(1.24195 -0.0109375 0)
(1.24623 -0.0103285 0)
(1.25026 -0.0096934 0)
(1.25403 -0.00903378 0)
(1.25753 -0.00835138 0)
(1.26075 -0.00764813 0)
(1.26368 -0.00692612 0)
(1.26632 -0.00618761 0)
(1.26866 -0.00543501 0)
(1.27069 -0.00467082 0)
(1.27241 -0.00389766 0)
(1.27382 -0.00311822 0)
(1.27491 -0.00233524 0)
(1.27569 -0.00155151 0)
(1.27615 -0.000769806 0)
(1.2763 7.10907e-06 0)
(1.27614 0.000776503 0)
(1.27566 0.00153571 0)
(1.27489 0.00228213 0)
(1.27381 0.00301328 0)
(1.27244 0.00372679 0)
(1.2708 0.00442042 0)
(1.26887 0.00509207 0)
(1.26668 0.00573981 0)
(1.26423 0.00636188 0)
(1.26154 0.0069567 0)
(1.25862 0.00752285 0)
(1.25547 0.00805913 0)
(1.25212 0.00856449 0)
(1.24856 0.0090381 0)
(1.24483 0.0094793 0)
(1.24092 0.00988761 0)
(1.23686 0.0102627 0)
(1.23265 0.0106045 0)
(1.22832 0.0109131 0)
(1.22386 0.0111885 0)
(1.21931 0.0114312 0)
(1.21466 0.0116416 0)
(1.20994 0.0118203 0)
(1.20515 0.011968 0)
(1.20031 0.0120857 0)
(1.19543 0.0121741 0)
(1.19052 0.0122344 0)
(1.18559 0.0122675 0)
(1.18066 0.0122747 0)
(1.17573 0.0122571 0)
(1.17081 0.0122161 0)
(1.16591 0.0121528 0)
(1.16105 0.0120687 0)
(1.15622 0.011965 0)
(1.15144 0.0118431 0)
(1.14672 0.0117044 0)
(1.14205 0.0115501 0)
(1.13745 0.0113817 0)
(1.13292 0.0112003 0)
(1.12847 0.0110073 0)
(1.1241 0.010804 0)
(1.11981 0.0105914 0)
(1.11561 0.0103709 0)
(1.1115 0.0101435 0)
(1.10748 0.00991027 0)
(1.10356 0.00967228 0)
(1.09974 0.00943048 0)
(1.09601 0.0091858 0)
(1.09239 0.0089391 0)
(1.08886 0.0086912 0)
(1.08543 0.00844285 0)
(1.08211 0.00819476 0)
(1.07888 0.00794757 0)
(1.07575 0.00770189 0)
(1.07272 0.00745826 0)
(1.06979 0.00721717 0)
(1.06695 0.00697908 0)
(1.06421 0.00674439 0)
(1.06156 0.00651346 0)
(1.05901 0.00628659 0)
(1.05654 0.00606407 0)
(1.05416 0.00584614 0)
(1.05187 0.00563299 0)
(1.04967 0.0054248 0)
(1.04754 0.00522171 0)
(1.0455 0.00502382 0)
(1.04353 0.00483121 0)
(1.04164 0.00464395 0)
(1.03983 0.00446206 0)
(1.03808 0.00428557 0)
(1.03641 0.00411447 0)
(1.0348 0.00394874 0)
(1.03326 0.00378833 0)
(1.03178 0.00363321 0)
(1.03036 0.0034833 0)
(1.029 0.00333854 0)
(1.0277 0.00319884 0)
(1.02645 0.00306411 0)
(1.02526 0.00293426 0)
(1.02411 0.00280917 0)
(1.02302 0.00268874 0)
(1.02197 0.00257286 0)
(1.02097 0.00246142 0)
(1.02001 0.00235429 0)
(1.01909 0.00225135 0)
(1.01821 0.00215248 0)
(1.01738 0.00205756 0)
(1.01658 0.00196647 0)
(1.01581 0.00187909 0)
(1.01508 0.00179529 0)
(1.01438 0.00171495 0)
(1.01371 0.00163797 0)
(1.01308 0.00156421 0)
(1.01247 0.00149357 0)
(1.01189 0.00142593 0)
(1.01133 0.00136118 0)
(1.0108 0.00129922 0)
(1.0103 0.00123993 0)
(1.00981 0.00118322 0)
(1.00935 0.00112899 0)
(1.00892 0.00107714 0)
(1.0085 0.00102757 0)
(1.0081 0.000980192 0)
(1.00772 0.000934919 0)
(1.00735 0.000891665 0)
(1.00701 0.000850344 0)
(1.00668 0.000810879 0)
(1.00636 0.00077319 0)
(1.00606 0.000737203 0)
(1.00577 0.000702845 0)
(1.0055 0.000670048 0)
(1.00524 0.000638744 0)
(1.00499 0.000608868 0)
(1.00476 0.00058036 0)
(1.00453 0.000553158 0)
(1.00432 0.000527206 0)
(1.00411 0.000502449 0)
(1.00392 0.000478834 0)
(1.00373 0.00045631 0)
(1.00355 0.000434829 0)
(1.00338 0.000414343 0)
(1.00322 0.00039481 0)
(1.00307 0.000376184 0)
(1.00292 0.000358427 0)
(1.00279 0.000341497 0)
(1.00265 0.000325359 0)
(1.00253 0.000309975 0)
(1.00241 0.000295311 0)
(1.00229 0.000281335 0)
(1.00218 0.000268014 0)
(1.00208 0.00025532 0)
(1.00198 0.000243222 0)
(1.00188 0.000231694 0)
(1.00179 0.000220709 0)
(1.00171 0.000210243 0)
(1.00163 0.00020027 0)
(1.00155 0.000190768 0)
(1.00148 0.000181716 0)
(1.0014 0.000173093 0)
(1.00134 0.000164878 0)
(1.00127 0.000157052 0)
(1.00121 0.000149598 0)
(1.00115 0.000142498 0)
(1.0011 0.000135735 0)
(1.00105 0.000129294 0)
(1.001 0.000123159 0)
(1.00095 0.000117317 0)
(1.0009 0.000111754 0)
(1.00086 0.000106456 0)
(1.00082 0.000101411 0)
(1.00078 9.66076e-05 0)
(1.00074 9.20341e-05 0)
(1.00071 8.76799e-05 0)
(1.00067 8.35345e-05 0)
(1.00064 7.95883e-05 0)
(1.00061 7.5832e-05 0)
(1.00058 7.22565e-05 0)
(1.00055 6.88536e-05 0)
(1.00052 6.56151e-05 0)
(1.0005 6.25333e-05 0)
(1.00047 5.9601e-05 0)
(1.00045 5.68112e-05 0)
(1.00043 5.41572e-05 0)
(1.00041 5.16327e-05 0)
(1.00039 4.92318e-05 0)
(1.00037 4.69487e-05 0)
(1.00035 4.4778e-05 0)
(1.00033 4.27145e-05 0)
(1.00032 4.07534e-05 0)
(1.0003 3.88898e-05 0)
(1.00029 3.71194e-05 0)
(1.00027 3.5438e-05 0)
(1.00026 3.38415e-05 0)
(1.00024 3.23261e-05 0)
(1.00023 3.08884e-05 0)
(1.00022 2.9524e-05 0)
(1.00021 2.82328e-05 0)
(1.0002 2.70018e-05 0)
(1.00019 2.58574e-05 0)
(1.00018 2.47101e-05 0)
(1.00017 2.38141e-05 0)
(1.00015 2.24133e-05 0)
(1.00001 -0.000251531 0)
(1.00015 -0.000753301 0)
(1.00043 -0.00125416 0)
(1.00086 -0.00175458 0)
(1.00143 -0.00225505 0)
(1.00214 -0.00275607 0)
(1.003 -0.00325812 0)
(1.004 -0.00376168 0)
(1.00515 -0.00426724 0)
(1.00644 -0.0047753 0)
(1.00787 -0.00528636 0)
(1.00945 -0.00580092 0)
(1.01118 -0.00631954 0)
(1.01306 -0.00684283 0)
(1.01509 -0.00737155 0)
(1.01727 -0.00790661 0)
(1.0196 -0.00844896 0)
(1.02209 -0.00899962 0)
(1.02474 -0.00955991 0)
(1.02755 -0.0101322 0)
(1.03053 -0.0107211 0)
(1.03368 -0.0113344 0)
(1.03701 -0.0119833 0)
(1.04053 -0.0126814 0)
(1.04427 -0.0134415 0)
(1.04822 -0.014272 0)
(1.05243 -0.0151732 0)
(1.05691 -0.0161344 0)
(1.06167 -0.0171346 0)
(1.06671 -0.0181443 0)
(1.07205 -0.0191295 0)
(1.07766 -0.0200564 0)
(1.08353 -0.0208962 0)
(1.08963 -0.0216274 0)
(1.09591 -0.0222376 0)
(1.10236 -0.0227234 0)
(1.10893 -0.0230884 0)
(1.11559 -0.0233415 0)
(1.12231 -0.0234946 0)
(1.12906 -0.0235603 0)
(1.13582 -0.0235507 0)
(1.14258 -0.0234764 0)
(1.1493 -0.0233458 0)
(1.15598 -0.0231652 0)
(1.16261 -0.022939 0)
(1.16917 -0.0226698 0)
(1.17565 -0.0223591 0)
(1.18203 -0.0220074 0)
(1.18832 -0.0216146 0)
(1.19448 -0.0211802 0)
(1.20052 -0.0207038 0)
(1.20641 -0.0201846 0)
(1.21216 -0.0196224 0)
(1.21773 -0.0190169 0)
(1.22313 -0.0183681 0)
(1.22833 -0.0176763 0)
(1.23333 -0.0169421 0)
(1.23811 -0.0161665 0)
(1.24266 -0.0153506 0)
(1.24698 -0.0144962 0)
(1.25104 -0.0136049 0)
(1.25483 -0.012679 0)
(1.25836 -0.011721 0)
(1.2616 -0.0107335 0)
(1.26456 -0.00971954 0)
(1.26722 -0.0086823 0)
(1.26957 -0.00762515 0)
(1.27161 -0.00655165 0)
(1.27334 -0.00546549 0)
(1.27476 -0.00437046 0)
(1.27586 -0.00327044 0)
(1.27663 -0.00216934 0)
(1.27709 -0.0010711 0)
(1.27723 2.03727e-05 0)
(1.27705 0.00110124 0)
(1.27657 0.00216773 0)
(1.27577 0.00321619 0)
(1.27468 0.00424311 0)
(1.27329 0.00524514 0)
(1.27161 0.00621913 0)
(1.26966 0.00716214 0)
(1.26744 0.00807144 0)
(1.26496 0.00894456 0)
(1.26224 0.00977926 0)
(1.25928 0.0105736 0)
(1.2561 0.0113258 0)
(1.2527 0.0120345 0)
(1.24911 0.0126985 0)
(1.24534 0.0133168 0)
(1.24139 0.0138889 0)
(1.23729 0.0144142 0)
(1.23304 0.0148927 0)
(1.22867 0.0153244 0)
(1.22417 0.0157095 0)
(1.21958 0.0160486 0)
(1.21489 0.0163424 0)
(1.21013 0.0165916 0)
(1.20531 0.0167973 0)
(1.20043 0.0169607 0)
(1.19552 0.0170831 0)
(1.19057 0.0171659 0)
(1.18561 0.0172107 0)
(1.18065 0.0172191 0)
(1.17569 0.0171928 0)
(1.17075 0.0171335 0)
(1.16582 0.0170431 0)
(1.16094 0.0169235 0)
(1.15609 0.0167765 0)
(1.15129 0.016604 0)
(1.14654 0.0164079 0)
(1.14186 0.0161901 0)
(1.13724 0.0159524 0)
(1.1327 0.0156967 0)
(1.12823 0.0154248 0)
(1.12385 0.0151384 0)
(1.11955 0.0148392 0)
(1.11534 0.0145289 0)
(1.11122 0.014209 0)
(1.1072 0.0138811 0)
(1.10327 0.0135466 0)
(1.09945 0.0132068 0)
(1.09572 0.012863 0)
(1.09209 0.0125165 0)
(1.08856 0.0121684 0)
(1.08513 0.0118197 0)
(1.08181 0.0114714 0)
(1.07858 0.0111245 0)
(1.07546 0.0107798 0)
(1.07243 0.010438 0)
(1.0695 0.0100999 0)
(1.06667 0.00976601 0)
(1.06393 0.00943694 0)
(1.06129 0.00911318 0)
(1.05874 0.00879519 0)
(1.05628 0.00848333 0)
(1.0539 0.00817793 0)
(1.05162 0.00787929 0)
(1.04942 0.00758763 0)
(1.0473 0.00730314 0)
(1.04526 0.00702598 0)
(1.0433 0.00675625 0)
(1.04142 0.00649403 0)
(1.03961 0.00623937 0)
(1.03787 0.00599229 0)
(1.03621 0.00575278 0)
(1.0346 0.0055208 0)
(1.03307 0.0052963 0)
(1.0316 0.00507921 0)
(1.03018 0.00486945 0)
(1.02883 0.00466689 0)
(1.02753 0.00447144 0)
(1.02629 0.00428295 0)
(1.0251 0.0041013 0)
(1.02397 0.00392633 0)
(1.02288 0.00375789 0)
(1.02183 0.00359582 0)
(1.02084 0.00343996 0)
(1.01988 0.00329015 0)
(1.01897 0.0031462 0)
(1.0181 0.00300796 0)
(1.01727 0.00287524 0)
(1.01647 0.00274788 0)
(1.01571 0.00262571 0)
(1.01498 0.00250856 0)
(1.01429 0.00239626 0)
(1.01362 0.00228864 0)
(1.01299 0.00218554 0)
(1.01238 0.0020868 0)
(1.01181 0.00199226 0)
(1.01126 0.00190176 0)
(1.01073 0.00181516 0)
(1.01023 0.00173231 0)
(1.00975 0.00165305 0)
(1.00929 0.00157726 0)
(1.00886 0.0015048 0)
(1.00844 0.00143553 0)
(1.00804 0.00136933 0)
(1.00766 0.00130607 0)
(1.0073 0.00124563 0)
(1.00696 0.00118789 0)
(1.00663 0.00113275 0)
(1.00632 0.00108009 0)
(1.00602 0.00102981 0)
(1.00573 0.000981804 0)
(1.00546 0.000935981 0)
(1.0052 0.000892245 0)
(1.00496 0.000850506 0)
(1.00472 0.000810678 0)
(1.0045 0.000772675 0)
(1.00429 0.000736419 0)
(1.00408 0.000701833 0)
(1.00389 0.000668843 0)
(1.0037 0.000637377 0)
(1.00353 0.000607369 0)
(1.00336 0.000578752 0)
(1.0032 0.000551464 0)
(1.00305 0.000525446 0)
(1.0029 0.00050064 0)
(1.00277 0.000476992 0)
(1.00263 0.000454448 0)
(1.00251 0.000432959 0)
(1.00239 0.000412475 0)
(1.00227 0.000392953 0)
(1.00217 0.000374346 0)
(1.00206 0.000356614 0)
(1.00196 0.000339716 0)
(1.00187 0.000323613 0)
(1.00178 0.00030827 0)
(1.0017 0.00029365 0)
(1.00162 0.00027972 0)
(1.00154 0.000266449 0)
(1.00146 0.000253805 0)
(1.00139 0.00024176 0)
(1.00133 0.000230285 0)
(1.00126 0.000219355 0)
(1.0012 0.000208943 0)
(1.00115 0.000199026 0)
(1.00109 0.00018958 0)
(1.00104 0.000180583 0)
(1.00099 0.000172015 0)
(1.00094 0.000163855 0)
(1.0009 0.000156085 0)
(1.00085 0.000148685 0)
(1.00081 0.000141639 0)
(1.00077 0.00013493 0)
(1.00074 0.000128542 0)
(1.0007 0.00012246 0)
(1.00067 0.000116671 0)
(1.00063 0.000111159 0)
(1.0006 0.000105912 0)
(1.00057 0.000100919 0)
(1.00055 9.61657e-05 0)
(1.00052 9.16425e-05 0)
(1.00049 8.73383e-05 0)
(1.00047 8.32427e-05 0)
(1.00045 7.93462e-05 0)
(1.00043 7.56394e-05 0)
(1.00041 7.21135e-05 0)
(1.00039 6.87602e-05 0)
(1.00037 6.55715e-05 0)
(1.00035 6.25397e-05 0)
(1.00033 5.96577e-05 0)
(1.00031 5.69186e-05 0)
(1.0003 5.43158e-05 0)
(1.00028 5.18432e-05 0)
(1.00027 4.94948e-05 0)
(1.00026 4.72651e-05 0)
(1.00024 4.51485e-05 0)
(1.00023 4.31406e-05 0)
(1.00022 4.12349e-05 0)
(1.00021 3.94318e-05 0)
(1.0002 3.77122e-05 0)
(1.00019 3.61154e-05 0)
(1.00017 3.45113e-05 0)
(1.00017 3.32639e-05 0)
(1.00015 3.13006e-05 0)
(1.00001 -0.000323131 0)
(1.00015 -0.000967739 0)
(1.00043 -0.00161119 0)
(1.00086 -0.00225412 0)
(1.00143 -0.00289716 0)
(1.00214 -0.00354093 0)
(1.00299 -0.00418607 0)
(1.00399 -0.00483322 0)
(1.00514 -0.005483 0)
(1.00642 -0.00613606 0)
(1.00785 -0.00679306 0)
(1.00943 -0.00745465 0)
(1.01116 -0.00812155 0)
(1.01303 -0.00879455 0)
(1.01506 -0.00947466 0)
(1.01724 -0.010163 0)
(1.01957 -0.0108609 0)
(1.02206 -0.0115695 0)
(1.02471 -0.0122907 0)
(1.02752 -0.0130275 0)
(1.0305 -0.0137857 0)
(1.03365 -0.0145754 0)
(1.03698 -0.015411 0)
(1.04051 -0.0163098 0)
(1.04424 -0.0172885 0)
(1.04821 -0.0183576 0)
(1.05242 -0.0195174 0)
(1.0569 -0.0207544 0)
(1.06167 -0.0220415 0)
(1.06672 -0.0233408 0)
(1.07207 -0.0246086 0)
(1.07769 -0.0258017 0)
(1.08357 -0.0268829 0)
(1.08968 -0.0278248 0)
(1.09598 -0.0286117 0)
(1.10244 -0.0292388 0)
(1.10902 -0.029711 0)
(1.1157 -0.0300397 0)
(1.12244 -0.03024 0)
(1.12922 -0.0303282 0)
(1.136 -0.0303198 0)
(1.14278 -0.0302283 0)
(1.14954 -0.0300643 0)
(1.15626 -0.029836 0)
(1.16292 -0.0295488 0)
(1.16952 -0.0292062 0)
(1.17604 -0.02881 0)
(1.18247 -0.0283606 0)
(1.18879 -0.0278581 0)
(1.195 -0.0273017 0)
(1.20109 -0.0266907 0)
(1.20703 -0.0260244 0)
(1.21282 -0.0253022 0)
(1.21845 -0.0245237 0)
(1.22389 -0.0236891 0)
(1.22915 -0.0227986 0)
(1.23419 -0.0218531 0)
(1.23902 -0.0208538 0)
(1.24362 -0.0198022 0)
(1.24798 -0.0187004 0)
(1.25208 -0.0175508 0)
(1.25591 -0.0163562 0)
(1.25947 -0.0151198 0)
(1.26275 -0.0138452 0)
(1.26573 -0.0125361 0)
(1.26841 -0.0111968 0)
(1.27079 -0.00983154 0)
(1.27285 -0.00844505 0)
(1.27459 -0.0070421 0)
(1.27602 -0.00562762 0)
(1.27712 -0.00420666 0)
(1.27789 -0.00278429 0)
(1.27834 -0.00136563 0)
(1.27847 4.42433e-05 0)
(1.27828 0.00144034 0)
(1.27778 0.00281775 0)
(1.27696 0.00417174 0)
(1.27584 0.00549775 0)
(1.27442 0.00679145 0)
(1.27271 0.00804875 0)
(1.27072 0.00926582 0)
(1.26846 0.0104392 0)
(1.26594 0.0115655 0)
(1.26317 0.0126421 0)
(1.26016 0.0136663 0)
(1.25693 0.0146359 0)
(1.25349 0.0155491 0)
(1.24985 0.0164044 0)
(1.24602 0.0172005 0)
(1.24202 0.0179368 0)
(1.23786 0.0186125 0)
(1.23356 0.0192276 0)
(1.22913 0.0197822 0)
(1.22459 0.0202766 0)
(1.21994 0.0207114 0)
(1.2152 0.0210876 0)
(1.21039 0.0214063 0)
(1.20552 0.0216688 0)
(1.20059 0.0218766 0)
(1.19563 0.0220316 0)
(1.19064 0.0221355 0)
(1.18564 0.0221903 0)
(1.18064 0.0221982 0)
(1.17564 0.0221613 0)
(1.17066 0.022082 0)
(1.1657 0.0219626 0)
(1.16078 0.0218056 0)
(1.1559 0.0216134 0)
(1.15107 0.0213884 0)
(1.1463 0.021133 0)
(1.1416 0.0208498 0)
(1.13696 0.0205411 0)
(1.1324 0.0202093 0)
(1.12791 0.0198567 0)
(1.12351 0.0194856 0)
(1.1192 0.0190982 0)
(1.11498 0.0186965 0)
(1.11085 0.0182827 0)
(1.10682 0.0178586 0)
(1.10289 0.0174261 0)
(1.09906 0.016987 0)
(1.09532 0.016543 0)
(1.09169 0.0160955 0)
(1.08816 0.0156461 0)
(1.08474 0.0151961 0)
(1.08141 0.0147468 0)
(1.07819 0.0142994 0)
(1.07506 0.0138549 0)
(1.07204 0.0134142 0)
(1.06912 0.0129784 0)
(1.06629 0.0125481 0)
(1.06356 0.0121242 0)
(1.06092 0.0117072 0)
(1.05838 0.0112977 0)
(1.05592 0.0108961 0)
(1.05356 0.010503 0)
(1.05128 0.0101186 0)
(1.04909 0.00974331 0)
(1.04698 0.00937728 0)
(1.04495 0.00902073 0)
(1.043 0.0086738 0)
(1.04113 0.00833657 0)
(1.03933 0.00800912 0)
(1.0376 0.00769146 0)
(1.03594 0.00738356 0)
(1.03434 0.00708539 0)
(1.03282 0.00679687 0)
(1.03135 0.00651791 0)
(1.02995 0.00624839 0)
(1.0286 0.00598816 0)
(1.02732 0.00573708 0)
(1.02608 0.00549498 0)
(1.0249 0.00526167 0)
(1.02377 0.00503697 0)
(1.02269 0.00482068 0)
(1.02165 0.00461258 0)
(1.02066 0.00441248 0)
(1.01972 0.00422014 0)
(1.01881 0.00403536 0)
(1.01794 0.00385791 0)
(1.01712 0.00368757 0)
(1.01633 0.00352411 0)
(1.01557 0.00336733 0)
(1.01485 0.00321699 0)
(1.01416 0.00307289 0)
(1.0135 0.0029348 0)
(1.01287 0.00280252 0)
(1.01227 0.00267583 0)
(1.0117 0.00255455 0)
(1.01115 0.00243845 0)
(1.01063 0.00232736 0)
(1.01014 0.00222108 0)
(1.00966 0.00211943 0)
(1.00921 0.00202221 0)
(1.00877 0.00192927 0)
(1.00836 0.00184043 0)
(1.00797 0.00175553 0)
(1.00759 0.0016744 0)
(1.00724 0.00159689 0)
(1.00689 0.00152285 0)
(1.00657 0.00145214 0)
(1.00626 0.00138461 0)
(1.00596 0.00132013 0)
(1.00568 0.00125858 0)
(1.00541 0.00119983 0)
(1.00516 0.00114375 0)
(1.00491 0.00109024 0)
(1.00468 0.00103917 0)
(1.00446 0.000990447 0)
(1.00425 0.000943965 0)
(1.00404 0.000899623 0)
(1.00385 0.000857328 0)
(1.00367 0.000816989 0)
(1.00349 0.000778518 0)
(1.00333 0.000741832 0)
(1.00317 0.000706851 0)
(1.00302 0.000673497 0)
(1.00288 0.000641698 0)
(1.00274 0.000611383 0)
(1.00261 0.000582484 0)
(1.00248 0.000554937 0)
(1.00237 0.00052868 0)
(1.00225 0.000503655 0)
(1.00215 0.000479805 0)
(1.00204 0.000457075 0)
(1.00195 0.000435415 0)
(1.00185 0.000414774 0)
(1.00176 0.000395107 0)
(1.00168 0.000376367 0)
(1.0016 0.000358513 0)
(1.00152 0.000341502 0)
(1.00145 0.000325295 0)
(1.00138 0.000309857 0)
(1.00132 0.000295149 0)
(1.00125 0.000281139 0)
(1.00119 0.000267794 0)
(1.00114 0.000255083 0)
(1.00108 0.000242976 0)
(1.00103 0.000231445 0)
(1.00098 0.000220463 0)
(1.00093 0.000210005 0)
(1.00089 0.000200045 0)
(1.00085 0.000190561 0)
(1.0008 0.00018153 0)
(1.00077 0.000172931 0)
(1.00073 0.000164744 0)
(1.00069 0.000156949 0)
(1.00066 0.000149529 0)