/*--------------------------------*- C++ -*----------------------------------*\
| =========                 |                                                 |
| \\      /  F ield         | OpenFOAM: The Open Source CFD Toolbox           |
|  \\    /   O peration     | Version:  2306                                  |
|   \\  /    A nd           | Website:  www.openfoam.com                      |
|    \\/     M anipulation  |                                                 |
\*---------------------------------------------------------------------------*/
FoamFile
{
    version     2.0;
    format      ascii;
    arch        "LSB;label=32;scalar=64";
    class       volScalarField;
    location    "2.5";
    object      Keff;
}
// * * * * * * * * * * * * * * * * * * * * * * * * * * * * * * * * * * * * * //

dimensions      [1 1 -3 -1 0 0 0];

internalField   nonuniform List<scalar> 
32768
(
67.2037
67.2017
67.1978
67.1917
67.1836
67.1734
67.1613
67.147
67.1307
67.1123
67.0919
67.0693
67.0446
67.0178
66.9888
66.9577
66.9243
66.8888
66.8511
66.8111
66.7689
66.7244
66.6776
66.6286
66.5773
66.5237
66.4678
66.4097
66.3493
66.2866
66.2217
66.1546
66.0854
66.014
65.9405
65.865
65.7875
65.7081
65.6269
65.5439
65.4592
65.373
65.2853
65.1963
65.106
65.0146
64.9223
64.8291
64.7353
64.641
64.5462
64.4513
64.3564
64.2616
64.167
64.073
63.9797
63.8872
63.7957
63.7054
63.6165
63.5291
63.4435
63.3598
63.2781
63.1987
63.1217
63.0472
62.9754
62.9064
62.8403
62.7773
62.7175
62.661
62.6077
62.5579
62.5114
62.4684
62.4288
62.3926
62.3597
62.3301
62.3038
62.2807
62.2607
62.2438
62.2299
62.219
62.2112
62.2064
62.2046
62.2059
62.2104
62.2182
62.2294
62.244
62.2622
62.284
62.3096
62.339
62.3723
62.4095
62.4506
62.4955
62.5443
62.5969
62.6531
62.7129
62.776
62.8424
62.9118
62.984
63.0589
63.1362
63.2156
63.297
63.38
63.4646
63.5504
63.6372
63.7248
63.8129
63.9014
63.9901
64.0787
64.1671
64.2551
64.3425
64.4292
64.5151
64.5999
64.6837
64.7662
64.8474
64.9272
65.0055
65.0822
65.1574
65.2308
65.3025
65.3725
65.4407
65.5071
65.5717
65.6344
65.6954
65.7545
65.8118
65.8673
65.921
65.973
66.0232
66.0718
66.1186
66.1638
66.2074
66.2494
66.2899
66.3288
66.3663
66.4024
66.437
66.4703
66.5023
66.5331
66.5626
66.5909
66.618
66.6441
66.6691
66.693
66.7159
66.7379
66.7589
66.779
66.7983
66.8167
66.8344
66.8513
66.8674
66.8828
66.8976
66.9117
66.9252
66.9381
66.9504
66.9621
66.9733
66.9841
66.9943
67.0041
67.0134
67.0223
67.0308
67.0389
67.0466
67.054
67.0611
67.0678
67.0742
67.0803
67.0861
67.0917
67.097
67.1021
67.1069
67.1115
67.1159
67.1201
67.1241
67.1279
67.1315
67.1349
67.1382
67.1414
67.1444
67.1472
67.1499
67.1525
67.155
67.1574
67.1596
67.1618
67.1638
67.1658
67.1676
67.1694
67.1711
67.1727
67.1742
67.1757
67.1771
67.1785
67.1797
67.181
67.1821
67.1832
67.1843
67.1853
67.1863
67.1872
67.1881
67.189
67.1898
67.1906
67.1914
67.1921
67.1928
67.1935
67.1941
67.1947
67.1953
67.1959
67.1965
67.1969
67.1978
67.2037
67.2017
67.1978
67.1917
67.1836
67.1735
67.1613
67.147
67.1307
67.1124
67.0919
67.0693
67.0447
67.0178
66.9889
66.9577
66.9244
66.8889
66.8511
66.8111
66.7689
66.7244
66.6777
66.6286
66.5773
66.5237
66.4678
66.4096
66.3491
66.2864
66.2215
66.1544
66.085
66.0136
65.94
65.8644
65.7868
65.7073
65.626
65.5429
65.4581
65.3718
65.284
65.1948
65.1044
65.0129
64.9204
64.8271
64.7331
64.6385
64.5437
64.4486
64.3534
64.2584
64.1638
64.0696
63.976
63.8834
63.7917
63.7012
63.6122
63.5247
63.4389
63.355
63.2732
63.1936
63.1164
63.0418
62.9698
62.9007
62.8345
62.7714
62.7115
62.6548
62.6015
62.5515
62.5049
62.4618
62.4221
62.3858
62.3529
62.3233
62.2969
62.2738
62.2538
62.2368
62.223
62.2121
62.2043
62.1996
62.1979
62.1993
62.2039
62.2118
62.2231
62.2379
62.2562
62.2782
62.304
62.3335
62.367
62.4044
62.4456
62.4908
62.5398
62.5926
62.649
62.709
62.7723
62.8389
62.9085
62.981
63.0561
63.1336
63.2132
63.2948
63.3781
63.4629
63.5489
63.6359
63.7237
63.8121
63.9008
63.9896
64.0784
64.167
64.2552
64.3427
64.4296
64.5156
64.6006
64.6845
64.7671
64.8484
64.9283
65.0067
65.0835
65.1587
65.2322
65.3039
65.374
65.4422
65.5086
65.5732
65.636
65.6969
65.7561
65.8134
65.8689
65.9226
65.9746
66.0248
66.0733
66.1201
66.1653
66.2088
66.2508
66.2912
66.3302
66.3676
66.4036
66.4383
66.4716
66.5035
66.5342
66.5637
66.592
66.6191
66.6451
66.67
66.6939
66.7168
66.7388
66.7598
66.7799
66.7991
66.8175
66.8351
66.852
66.8681
66.8835
66.8982
66.9123
66.9258
66.9386
66.9509
66.9626
66.9738
66.9845
66.9947
67.0045
67.0138
67.0227
67.0312
67.0393
67.047
67.0544
67.0614
67.0681
67.0745
67.0806
67.0864
67.092
67.0973
67.1023
67.1071
67.1117
67.1161
67.1203
67.1242
67.128
67.1316
67.1351
67.1384
67.1415
67.1445
67.1474
67.1501
67.1527
67.1551
67.1575
67.1597
67.1619
67.1639
67.1658
67.1677
67.1695
67.1712
67.1728
67.1743
67.1758
67.1772
67.1785
67.1798
67.181
67.1822
67.1833
67.1844
67.1854
67.1863
67.1873
67.1882
67.189
67.1898
67.1906
67.1914
67.1921
67.1928
67.1935
67.1941
67.1947
67.1954
67.1959
67.1965
67.197
67.1978
67.2037
67.2017
67.1978
67.1917
67.1836
67.1735
67.1613
67.1471
67.1308
67.1124
67.092
67.0694
67.0448
67.018
66.989
66.9579
66.9245
66.889
66.8513
66.8113
66.769
66.7245
66.6777
66.6287
66.5773
66.5236
66.4677
66.4094
66.3489
66.2861
66.2211
66.1538
66.0844
66.0128
65.9391
65.8633
65.7855
65.7058
65.6243
65.541
65.456
65.3694
65.2813
65.1918
65.1011
65.0093
64.9165
64.8229
64.7286
64.6337
64.5385
64.443
64.3476
64.2522
64.1572
64.0626
63.9688
63.8757
63.7837
63.6929
63.6035
63.5157
63.4296
63.3454
63.2633
63.1834
63.1059
63.031
62.9588
62.8894
62.8229
62.7596
62.6994
62.6425
62.5889
62.5387
62.492
62.4487
62.4088
62.3724
62.3393
62.3096
62.2831
62.2599
62.2399
62.223
62.2091
62.1984
62.1906
62.186
62.1845
62.1861
62.1909
62.199
62.2106
62.2256
62.2442
62.2665
62.2926
62.3225
62.3563
62.394
62.4357
62.4812
62.5306
62.5838
62.6407
62.7011
62.7649
62.8319
62.902
62.9749
63.0504
63.1284
63.2085
63.2906
63.3743
63.4595
63.546
63.6334
63.7216
63.8104
63.8995
63.9887
64.0779
64.1668
64.2553
64.3432
64.4304
64.5167
64.6019
64.686
64.7689
64.8504
64.9305
65.009
65.086
65.1613
65.2349
65.3068
65.3769
65.4452
65.5116
65.5763
65.6391
65.7001
65.7592
65.8165
65.872
65.9257
65.9777
66.0278
66.0763
66.1231
66.1682
66.2117
66.2537
66.294
66.3329
66.3703
66.4062
66.4408
66.474
66.5059
66.5366
66.566
66.5942
66.6212
66.6472
66.672
66.6959
66.7187
66.7406
66.7615
66.7815
66.8007
66.8191
66.8366
66.8534
66.8695
66.8848
66.8995
66.9135
66.9269
66.9397
66.952
66.9637
66.9748
66.9855
66.9957
67.0054
67.0146
67.0235
67.0319
67.04
67.0477
67.055
67.062
67.0687
67.0751
67.0812
67.0869
67.0925
67.0977
67.1028
67.1076
67.1121
67.1165
67.1206
67.1246
67.1284
67.132
67.1354
67.1387
67.1418
67.1448
67.1476
67.1503
67.1529
67.1554
67.1577
67.1599
67.1621
67.1641
67.166
67.1679
67.1696
67.1713
67.1729
67.1744
67.1759
67.1773
67.1786
67.1799
67.1811
67.1823
67.1834
67.1844
67.1855
67.1864
67.1874
67.1882
67.1891
67.1899
67.1907
67.1914
67.1922
67.1929
67.1935
67.1942
67.1948
67.1954
67.196
67.1966
67.197
67.1978
67.2037
67.2017
67.1978
67.1917
67.1836
67.1735
67.1614
67.1472
67.1309
67.1125
67.0921
67.0696
67.0449
67.0181
66.9892
66.9581
66.9247
66.8892
66.8515
66.8115
66.7692
66.7247
66.6779
66.6287
66.5773
66.5236
66.4675
66.4092
66.3486
66.2856
66.2205
66.153
66.0834
66.0116
65.9377
65.8616
65.7836
65.7036
65.6218
65.5381
65.4527
65.3658
65.2773
65.1874
65.0963
65.004
64.9108
64.8166
64.7218
64.6265
64.5307
64.4348
64.3388
64.2429
64.1473
64.0523
63.9579
63.8643
63.7718
63.6805
63.5906
63.5022
63.4156
63.331
63.2484
63.1681
63.0901
63.0148
62.9421
62.8723
62.8055
62.7418
62.6812
62.624
62.5701
62.5196
62.4725
62.4289
62.3888
62.3521
62.3189
62.289
62.2624
62.2391
62.219
62.2021
62.1883
62.1777
62.1701
62.1656
62.1643
62.1662
62.1713
62.1798
62.1917
62.2071
62.2262
62.2489
62.2755
62.3059
62.3403
62.3785
62.4208
62.4669
62.5169
62.5707
62.6282
62.6892
62.7537
62.8214
62.8921
62.9657
63.042
63.1206
63.2014
63.2842
63.3686
63.4545
63.5416
63.6297
63.7185
63.8079
63.8976
63.9874
64.0772
64.1666
64.2556
64.344
64.4316
64.5183
64.6039
64.6884
64.7716
64.8534
64.9337
65.0125
65.0897
65.1652
65.239
65.311
65.3813
65.4497
65.5162
65.5809
65.6438
65.7048
65.7639
65.8213
65.8767
65.9304
65.9823
66.0325
66.0809
66.1276
66.1727
66.2161
66.2579
66.2982
66.337
66.3743
66.4101
66.4446
66.4777
66.5095
66.5401
66.5693
66.5975
66.6244
66.6502
66.675
66.6987
66.7215
66.7432
66.7641
66.784
66.8031
66.8214
66.8389
66.8556
66.8715
66.8868
66.9014
66.9154
66.9287
66.9414
66.9536
66.9652
66.9763
66.9869
66.997
67.0067
67.0159
67.0247
67.0331
67.0411
67.0487
67.056
67.063
67.0696
67.076
67.082
67.0877
67.0932
67.0985
67.1035
67.1082
67.1128
67.1171
67.1212
67.1252
67.1289
67.1325
67.1359
67.1391
67.1422
67.1452
67.148
67.1507
67.1533
67.1557
67.158
67.1602
67.1624
67.1644
67.1663
67.1681
67.1699
67.1715
67.1731
67.1747
67.1761
67.1775
67.1788
67.1801
67.1813
67.1824
67.1835
67.1846
67.1856
67.1866
67.1875
67.1884
67.1892
67.19
67.1908
67.1915
67.1923
67.1929
67.1936
67.1942
67.1949
67.1955
67.196
67.1966
67.197
67.1979
67.2037
67.2018
67.1978
67.1918
67.1837
67.1736
67.1614
67.1472
67.131
67.1127
67.0923
67.0698
67.0451
67.0184
66.9894
66.9583
66.925
66.8895
66.8518
66.8118
66.7695
66.7249
66.678
66.6289
66.5774
66.5236
66.4674
66.4089
66.3481
66.2851
66.2197
66.152
66.0821
66.0101
65.9358
65.8595
65.7811
65.7007
65.6184
65.5343
65.4485
65.361
65.272
65.1815
65.0898
64.997
64.9031
64.8083
64.7129
64.6168
64.5204
64.4237
64.327
64.2305
64.1342
64.0384
63.9433
63.8491
63.7558
63.6639
63.5733
63.4843
63.397
63.3117
63.2285
63.1476
63.0691
62.9932
62.92
62.8496
62.7823
62.718
62.657
62.5993
62.5449
62.494
62.4465
62.4026
62.3621
62.3251
62.2916
62.2615
62.2348
62.2113
62.1912
62.1743
62.1605
62.15
62.1426
62.1384
62.1373
62.1396
62.1451
62.154
62.1664
62.1824
62.2021
62.2254
62.2527
62.2838
62.3188
62.3578
62.4008
62.4477
62.4985
62.5531
62.6115
62.6734
62.7387
62.8073
62.879
62.9535
63.0306
63.1102
63.1919
63.2756
63.361
63.4478
63.5358
63.6247
63.7144
63.8046
63.8951
63.9857
64.0762
64.1663
64.256
64.345
64.4332
64.5204
64.6066
64.6916
64.7752
64.8574
64.9381
65.0173
65.0947
65.1705
65.2445
65.3168
65.3871
65.4557
65.5224
65.5872
65.6501
65.7111
65.7703
65.8276
65.8831
65.9367
65.9886
66.0386
66.087
66.1336
66.1786
66.2219
66.2636
66.3038
66.3424
66.3796
66.4153
66.4497
66.4827
66.5143
66.5447
66.5739
66.6018
66.6286
66.6544
66.679
66.7026
66.7252
66.7468
66.7675
66.7874
66.8063
66.8245
66.8418
66.8584
66.8743
66.8894
66.9039
66.9178
66.931
66.9437
66.9557
66.9673
66.9783
66.9888
66.9988
67.0084
67.0176
67.0263
67.0346
67.0426
67.0501
67.0574
67.0643
67.0708
67.0771
67.0831
67.0888
67.0943
67.0994
67.1044
67.1091
67.1136
67.1179
67.122
67.1259
67.1296
67.1332
67.1365
67.1398
67.1428
67.1457
67.1485
67.1512
67.1537
67.1561
67.1585
67.1607
67.1627
67.1647
67.1667
67.1685
67.1702
67.1719
67.1734
67.1749
67.1764
67.1777
67.1791
67.1803
67.1815
67.1826
67.1837
67.1848
67.1858
67.1867
67.1876
67.1885
67.1893
67.1901
67.1909
67.1917
67.1924
67.193
67.1937
67.1943
67.1949
67.1955
67.1961
67.1967
67.1971
67.1979
67.2037
67.2018
67.1978
67.1918
67.1837
67.1736
67.1615
67.1474
67.1312
67.1129
67.0925
67.07
67.0454
67.0187
66.9898
66.9587
66.9254
66.8899
66.8522
66.8121
66.7698
66.7252
66.6783
66.6291
66.5775
66.5236
66.4673
66.4086
66.3477
66.2844
66.2187
66.1508
66.0806
66.0082
65.9336
65.8568
65.778
65.6971
65.6143
65.5296
65.4432
65.3551
65.2654
65.1743
65.0818
64.9882
64.8935
64.798
64.7017
64.6048
64.5075
64.41
64.3124
64.2149
64.1178
64.0211
63.9251
63.83
63.7359
63.6431
63.5516
63.4618
63.3738
63.2877
63.2037
63.122
63.0428
62.9661
62.8922
62.8212
62.7532
62.6883
62.6267
62.5684
62.5135
62.462
62.4141
62.3696
62.3287
62.2914
62.2575
62.2271
62.2002
62.1766
62.1564
62.1394
62.1258
62.1153
62.1081
62.1042
62.1036
62.1062
62.1123
62.1217
62.1348
62.1514
62.1718
62.1959
62.224
62.2559
62.2918
62.3318
62.3757
62.4236
62.4754
62.5311
62.5905
62.6535
62.7199
62.7897
62.8625
62.9381
63.0165
63.0972
63.1801
63.2649
63.3514
63.4394
63.5285
63.6185
63.7093
63.8006
63.8921
63.9836
64.075
64.166
64.2565
64.3463
64.4353
64.5232
64.61
64.6956
64.7798
64.8625
64.9437
65.0232
65.1011
65.1772
65.2515
65.324
65.3946
65.4633
65.5301
65.595
65.658
65.7191
65.7782
65.8356
65.891
65.9446
65.9964
66.0464
66.0946
66.1412
66.186
66.2292
66.2708
66.3108
66.3493
66.3863
66.4219
66.456
66.4888
66.5203
66.5505
66.5795
66.6073
66.634
66.6595
66.6839
66.7074
66.7298
66.7513
66.7718
66.7915
66.8103
66.8283
66.8455
66.862
66.8777
66.8927
66.9071
66.9208
66.9339
66.9465
66.9584
66.9698
66.9807
66.9912
67.0011
67.0106
67.0196
67.0283
67.0365
67.0444
67.0519
67.059
67.0659
67.0724
67.0786
67.0845
67.0901
67.0955
67.1007
67.1055
67.1102
67.1147
67.1189
67.123
67.1268
67.1305
67.134
67.1373
67.1405
67.1435
67.1464
67.1492
67.1518
67.1543
67.1567
67.159
67.1612
67.1632
67.1652
67.1671
67.1689
67.1706
67.1722
67.1738
67.1753
67.1767
67.1781
67.1794
67.1806
67.1818
67.1829
67.184
67.185
67.186
67.1869
67.1878
67.1887
67.1895
67.1903
67.1911
67.1918
67.1925
67.1932
67.1938
67.1945
67.195
67.1956
67.1962
67.1968
67.1972
67.198
67.2037
67.2018
67.1978
67.1918
67.1838
67.1737
67.1616
67.1475
67.1314
67.1131
67.0928
67.0703
67.0458
67.0191
66.9902
66.9592
66.9259
66.8904
66.8527
66.8126
66.7703
66.7257
66.6787
66.6294
66.5777
66.5236
66.4672
66.4084
66.3472
66.2836
66.2177
66.1494
66.0789
66.0061
65.931
65.8537
65.7743
65.6929
65.6094
65.5241
65.4369
65.3481
65.2576
65.1656
65.0723
64.9777
64.8821
64.7856
64.6883
64.5904
64.492
64.3935
64.2948
64.1963
64.0981
64.0003
63.9033
63.8071
63.7119
63.6181
63.5256
63.4348
63.3458
63.2587
63.1738
63.0912
63.0111
62.9336
62.8589
62.7871
62.7183
62.6527
62.5903
62.5313
62.4757
62.4236
62.375
62.3301
62.2886
62.2508
62.2166
62.1858
62.1586
62.1348
62.1145
62.0975
62.0839
62.0736
62.0667
62.0631
62.0629
62.066
62.0727
62.0828
62.0966
62.114
62.1353
62.1603
62.1893
62.2223
62.2593
62.3004
62.3454
62.3945
62.4476
62.5045
62.5652
62.6295
62.6973
62.7684
62.8426
62.9197
62.9994
63.0815
63.1658
63.2521
63.34
63.4293
63.5197
63.6111
63.7032
63.7957
63.8884
63.9811
64.0736
64.1657
64.2573
64.348
64.4379
64.5267
64.6143
64.7005
64.7854
64.8687
64.9505
65.0305
65.1088
65.1853
65.2599
65.3327
65.4035
65.4724
65.5394
65.6044
65.6675
65.7286
65.7879
65.8451
65.9006
65.9541
66.0058
66.0557
66.1038
66.1502
66.1949
66.2379
66.2794
66.3192
66.3575
66.3943
66.4297
66.4636
66.4962
66.5275
66.5575
66.5863
66.6139
66.6403
66.6656
66.6899
66.7131
66.7354
66.7566
66.777
66.7965
66.8151
66.8329
66.85
66.8663
66.8818
66.8967
66.9109
66.9245
66.9374
66.9498
66.9616
66.9729
66.9837
66.994
67.0038
67.0132
67.0221
67.0306
67.0388
67.0465
67.054
67.061
67.0678
67.0742
67.0803
67.0862
67.0917
67.097
67.1021
67.1069
67.1115
67.1159
67.1201
67.1241
67.1279
67.1315
67.135
67.1383
67.1414
67.1444
67.1473
67.15
67.1526
67.155
67.1574
67.1596
67.1618
67.1638
67.1658
67.1676
67.1694
67.1711
67.1727
67.1742
67.1757
67.1771
67.1784
67.1797
67.1809
67.1821
67.1832
67.1843
67.1853
67.1862
67.1872
67.1881
67.1889
67.1897
67.1905
67.1913
67.192
67.1927
67.1933
67.194
67.1946
67.1952
67.1958
67.1963
67.1969
67.1973
67.1981
67.2037
67.2018
67.1978
67.1919
67.1839
67.1738
67.1618
67.1477
67.1316
67.1134
67.0931
67.0707
67.0462
67.0196
66.9908
66.9597
66.9265
66.891
66.8533
66.8133
66.7709
66.7262
66.6792
66.6298
66.578
66.5238
66.4672
66.4081
66.3467
66.2828
66.2166
66.148
66.077
66.0037
65.9281
65.8502
65.7702
65.6881
65.6039
65.5178
65.4298
65.34
65.2486
65.1556
65.0613
64.9656
64.8689
64.7712
64.6727
64.5736
64.4741
64.3742
64.2743
64.1745
64.0751
63.9761
63.8777
63.7803
63.684
63.5889
63.4953
63.4033
63.3131
63.2249
63.1389
63.0553
62.9741
62.8956
62.8199
62.7472
62.6775
62.611
62.5478
62.4879
62.4316
62.3787
62.3295
62.2838
62.2418
62.2035
62.1687
62.1376
62.11
62.086
62.0655
62.0485
62.035
62.0249
62.0182
62.015
62.0152
62.0189
62.0262
62.0372
62.0518
62.0702
62.0924
62.1185
62.1487
62.1829
62.2211
62.2635
62.3099
62.3604
62.4149
62.4733
62.5355
62.6014
62.6708
62.7435
62.8193
62.898
62.9794
63.0632
63.1492
63.2371
63.3266
63.4175
63.5096
63.6025
63.6961
63.7901
63.8843
63.9783
64.0722
64.1655
64.2582
64.3501
64.441
64.5308
64.6193
64.7064
64.7921
64.8761
64.9585
65.0391
65.1179
65.1948
65.2699
65.343
65.4141
65.4832
65.5504
65.6155
65.6787
65.7399
65.7991
65.8564
65.9118
65.9652
66.0168
66.0666
66.1146
66.1608
66.2053
66.2482
66.2894
66.329
66.3671
66.4037
66.4388
66.4725
66.5049
66.5359
66.5657
66.5942
66.6215
66.6477
66.6728
66.6968
66.7198
66.7418
66.7629
66.783
66.8023
66.8207
66.8383
66.8551
66.8712
66.8866
66.9013
66.9153
66.9287
66.9415
66.9537
66.9654
66.9765
66.9871
66.9973
67.007
67.0162
67.025
67.0334
67.0414
67.0491
67.0564
67.0633
67.07
67.0763
67.0823
67.0881
67.0936
67.0988
67.1038
67.1085
67.1131
67.1174
67.1215
67.1254
67.1292
67.1327
67.1361
67.1394
67.1425
67.1454
67.1482
67.1509
67.1534
67.1559
67.1582
67.1604
67.1625
67.1645
67.1664
67.1682
67.17
67.1716
67.1732
67.1747
67.1762
67.1776
67.1789
67.1801
67.1813
67.1825
67.1836
67.1846
67.1856
67.1865
67.1875
67.1883
67.1892
67.19
67.1907
67.1915
67.1922
67.1929
67.1935
67.1941
67.1947
67.1953
67.1959
67.1964
67.197
67.1974
67.1982
67.2037
67.2018
67.1979
67.1919
67.1839
67.174
67.162
67.1479
67.1319
67.1137
67.0935
67.0712
67.0468
67.0202
66.9914
66.9605
66.9273
66.8918
66.8541
66.8141
66.7717
66.727
66.6799
66.6304
66.5784
66.5241
66.4673
66.408
66.3463
66.2821
66.2155
66.1464
66.075
66.0011
65.9249
65.8464
65.7657
65.6828
65.5977
65.5107
65.4217
65.3309
65.2384
65.1443
65.0488
64.9519
64.8539
64.7549
64.655
64.5545
64.4536
64.3523
64.251
64.1497
64.0488
63.9483
63.8486
63.7497
63.6519
63.5555
63.4605
63.3671
63.2757
63.1862
63.099
63.0141
62.9318
62.8522
62.7754
62.7015
62.6308
62.5633
62.4991
62.4384
62.3811
62.3274
62.2774
62.231
62.1883
62.1493
62.114
62.0824
62.0544
62.0301
62.0094
61.9924
61.9789
61.9689
61.9625
61.9597
61.9605
61.9649
61.9729
61.9847
62.0003
62.0197
62.0431
62.0705
62.1019
62.1375
62.1771
62.221
62.269
62.3211
62.3773
62.4374
62.5013
62.569
62.6402
62.7148
62.7925
62.8731
62.9564
63.0422
63.1301
63.2199
63.3113
63.4041
63.498
63.5928
63.6881
63.7838
63.8796
63.9753
64.0706
64.1654
64.2595
64.3527
64.4448
64.5357
64.6252
64.7133
64.7998
64.8847
64.9678
65.0491
65.1284
65.2059
65.2814
65.3548
65.4263
65.4957
65.563
65.6283
65.6916
65.7529
65.8121
65.8694
65.9247
65.978
66.0295
66.0791
66.127
66.173
66.2173
66.2599
66.3009
66.3403
66.3781
66.4144
66.4493
66.4827
66.5148
66.5455
66.575
66.6032
66.6303
66.6562
66.681
66.7048
66.7275
66.7492
66.77
66.7899
66.8089
66.8271
66.8444
66.861
66.8769
66.892
66.9065
66.9203
66.9335
66.9461
66.9582
66.9696
66.9806
66.991
67.001
67.0105
67.0196
67.0283
67.0366
67.0444
67.052
67.0591
67.066
67.0725
67.0787
67.0846
67.0903
67.0957
67.1008
67.1057
67.1104
67.1148
67.1191
67.1231
67.1269
67.1306
67.1341
67.1375
67.1406
67.1437
67.1465
67.1493
67.1519
67.1544
67.1568
67.1591
67.1612
67.1633
67.1653
67.1672
67.1689
67.1707
67.1723
67.1738
67.1753
67.1767
67.1781
67.1794
67.1806
67.1818
67.1829
67.184
67.185
67.186
67.1869
67.1878
67.1886
67.1895
67.1902
67.191
67.1917
67.1924
67.1931
67.1937
67.1943
67.1949
67.1955
67.1961
67.1966
67.1971
67.1975
67.1983
67.2037
67.2018
67.1979
67.192
67.184
67.1741
67.1622
67.1482
67.1322
67.1141
67.094
67.0718
67.0474
67.0209
66.9922
66.9613
66.9282
66.8928
66.8551
66.815
66.7727
66.7279
66.6807
66.6311
66.5791
66.5246
66.4675
66.408
66.346
66.2815
66.2144
66.1449
66.0729
65.9984
65.9216
65.8423
65.7608
65.677
65.591
65.503
65.4129
65.3209
65.2272
65.1318
65.0349
64.9366
64.8371
64.7366
64.6352
64.5331
64.4306
64.3277
64.2247
64.1218
64.0192
63.9171
63.8157
63.7152
63.6159
63.5178
63.4213
63.3264
63.2335
63.1426
63.0539
62.9677
62.8841
62.8032
62.7251
62.6501
62.5782
62.5096
62.4443
62.3825
62.3243
62.2696
62.2187
62.1714
62.1279
62.0882
62.0523
62.0201
61.9917
61.9671
61.9462
61.929
61.9155
61.9057
61.8996
61.8973
61.8986
61.9037
61.9125
61.9253
61.9419
61.9625
61.9872
62.0159
62.0488
62.0859
62.1273
62.1728
62.2226
62.2765
62.3346
62.3966
62.4626
62.5323
62.6056
62.6823
62.7622
62.845
62.9305
63.0184
63.1085
63.2005
63.2941
63.3891
63.4851
63.5819
63.6792
63.7768
63.8745
63.972
64.069
64.1655
64.2611
64.3557
64.4492
64.5414
64.6321
64.7213
64.8088
64.8946
64.9785
65.0605
65.1405
65.2185
65.2945
65.3684
65.4402
65.5098
65.5774
65.6429
65.7063
65.7676
65.8268
65.884
65.9392
65.9925
66.0439
66.0933
66.1409
66.1867
66.2308
66.2732
66.3139
66.3529
66.3905
66.4265
66.461
66.4942
66.5259
66.5563
66.5855
66.6134
66.6402
66.6657
66.6902
66.7137
66.7361
66.7575
66.778
66.7976
66.8163
66.8342
66.8513
66.8677
66.8833
66.8982
66.9124
66.926
66.9389
66.9513
66.9631
66.9744
66.9852
66.9954
67.0052
67.0146
67.0235
67.032
67.0401
67.0478
67.0552
67.0622
67.0689
67.0753
67.0814
67.0872
67.0927
67.098
67.103
67.1078
67.1124
67.1168
67.1209
67.1249
67.1286
67.1322
67.1357
67.1389
67.142
67.145
67.1478
67.1505
67.1531
67.1555
67.1579
67.1601
67.1622
67.1642
67.1661
67.168
67.1697
67.1714
67.173
67.1745
67.176
67.1773
67.1787
67.1799
67.1811
67.1823
67.1834
67.1844
67.1854
67.1864
67.1873
67.1882
67.189
67.1898
67.1906
67.1913
67.192
67.1927
67.1933
67.194
67.1946
67.1951
67.1957
67.1962
67.1967
67.1973
67.1977
67.1984
67.2037
67.2018
67.1979
67.192
67.1841
67.1743
67.1624
67.1485
67.1326
67.1146
67.0946
67.0724
67.0482
67.0217
66.9931
66.9623
66.9293
66.8939
66.8563
66.8163
66.7739
66.7291
66.6819
66.6322
66.58
66.5253
66.4681
66.4083
66.3459
66.281
66.2135
66.1434
66.0708
65.9957
65.9181
65.8381
65.7556
65.6709
65.5838
65.4946
65.4033
65.31
65.2149
65.1181
65.0197
64.9198
64.8187
64.7165
64.6133
64.5095
64.4051
64.3004
64.1955
64.0908
63.9863
63.8824
63.7792
63.6769
63.5757
63.4759
63.3776
63.2811
63.1865
63.094
63.0038
62.916
62.8309
62.7486
62.6692
62.5928
62.5196
62.4498
62.3833
62.3204
62.261
62.2053
62.1534
62.1052
62.0608
62.0203
61.9837
61.9509
61.922
61.8969
61.8758
61.8584
61.8449
61.8353
61.8295
61.8275
61.8294
61.8353
61.845
61.8588
61.8766
61.8985
61.9246
61.9548
61.9894
62.0282
62.0713
62.1188
62.1705
62.2265
62.2867
62.351
62.4192
62.4912
62.5669
62.646
62.7283
62.8135
62.9015
62.9919
63.0845
63.179
63.275
63.3724
63.4707
63.5698
63.6694
63.7692
63.869
63.9685
64.0675
64.1657
64.2631
64.3594
64.4544
64.548
64.64
64.7304
64.8191
64.9058
64.9906
65.0734
65.1542
65.2328
65.3093
65.3837
65.4558
65.5258
65.5936
65.6592
65.7227
65.784
65.8433
65.9005
65.9556
66.0087
66.0599
66.1091
66.1565
66.2021
66.2459
66.2879
66.3283
66.3671
66.4043
66.4399
66.4741
66.5069
66.5383
66.5684
66.5971
66.6247
66.6511
66.6763
66.7005
66.7235
66.7456
66.7667
66.7869
66.8061
66.8246
66.8421
66.8589
66.875
66.8903
66.9049
66.9189
66.9322
66.9449
66.9571
66.9686
66.9797
66.9902
67.0003
67.0099
67.019
67.0277
67.036
67.044
67.0515
67.0587
67.0656
67.0722
67.0784
67.0844
67.09
67.0954
67.1006
67.1055
67.1102
67.1147
67.1189
67.123
67.1268
67.1305
67.134
67.1374
67.1405
67.1436
67.1465
67.1492
67.1519
67.1544
67.1567
67.159
67.1612
67.1633
67.1652
67.1671
67.1689
67.1706
67.1722
67.1738
67.1753
67.1767
67.178
67.1793
67.1805
67.1817
67.1828
67.1839
67.1849
67.1859
67.1868
67.1877
67.1886
67.1894
67.1902
67.1909
67.1916
67.1923
67.193
67.1936
67.1942
67.1948
67.1954
67.1959
67.1964
67.1969
67.1975
67.1978
67.1986
67.2037
67.2018
67.198
67.1921
67.1843
67.1745
67.1627
67.1489
67.1331
67.1152
67.0952
67.0732
67.0491
67.0227
66.9942
66.9635
66.9306
66.8953
66.8577
66.8177
66.7754
66.7306
66.6833
66.6335
66.5812
66.5263
66.4689
66.4088
66.3461
66.2807
66.2128
66.1422
66.0689
65.9931
65.9147
65.8337
65.7503
65.6644
65.5762
65.4858
65.3931
65.2984
65.2018
65.1033
65.0032
64.9016
64.7986
64.6945
64.5894
64.4836
64.3772
64.2704
64.1635
64.0567
63.9502
63.8442
63.7389
63.6346
63.5314
63.4296
63.3295
63.2311
63.1346
63.0404
62.9485
62.859
62.7723
62.6884
62.6075
62.5297
62.4551
62.3839
62.3161
62.2519
62.1914
62.1345
62.0815
62.0323
61.9869
61.9455
61.9081
61.8746
61.8451
61.8196
61.7981
61.7805
61.767
61.7575
61.7519
61.7504
61.7529
61.7595
61.7702
61.7851
61.8041
61.8274
61.855
61.887
61.9233
61.964
62.0092
62.0587
62.1127
62.171
62.2335
62.3002
62.371
62.4456
62.5239
62.6057
62.6907
62.7787
62.8694
62.9626
63.058
63.1552
63.254
63.354
63.455
63.5567
63.6588
63.7611
63.8632
63.9649
64.066
64.1663
64.2656
64.3637
64.4604
64.5556
64.6491
64.7408
64.8307
64.9185
65.0043
65.088
65.1695
65.2488
65.3259
65.4007
65.4733
65.5436
65.6116
65.6774
65.741
65.8024
65.8616
65.9187
65.9737
66.0267
66.0776
66.1266
66.1738
66.219
66.2625
66.3042
66.3443
66.3827
66.4195
66.4547
66.4885
66.5209
66.5519
66.5816
66.61
66.6371
66.6631
66.6879
66.7117
66.7344
66.7561
66.7768
66.7966
66.8155
66.8336
66.8508
66.8673
66.883
66.898
66.9123
66.926
66.939
66.9515
66.9633
66.9747
66.9855
66.9958
67.0056
67.0149
67.0239
67.0324
67.0405
67.0482
67.0556
67.0626
67.0693
67.0757
67.0818
67.0876
67.0931
67.0984
67.1034
67.1082
67.1128
67.1171
67.1213
67.1252
67.129
67.1326
67.136
67.1392
67.1423
67.1453
67.1481
67.1508
67.1533
67.1558
67.1581
67.1603
67.1624
67.1644
67.1663
67.1681
67.1699
67.1715
67.1731
67.1746
67.1761
67.1774
67.1788
67.18
67.1812
67.1823
67.1834
67.1845
67.1854
67.1864
67.1873
67.1882
67.189
67.1898
67.1905
67.1913
67.192
67.1926
67.1933
67.1939
67.1945
67.1951
67.1956
67.1961
67.1966
67.1971
67.1976
67.198
67.1987
67.2037
67.2018
67.198
67.1922
67.1844
67.1747
67.163
67.1493
67.1336
67.1158
67.096
67.0741
67.0501
67.0239
66.9955
66.9649
66.9321
66.8969
66.8594
66.8195
66.7772
66.7324
66.6851
66.6352
66.5828
66.5277
66.47
66.4096
66.3466
66.2808
66.2123
66.1411
66.0672
65.9906
65.9113
65.8294
65.7449
65.6579
65.5684
65.4765
65.3824
65.2861
65.1877
65.0875
64.9855
64.882
64.777
64.6708
64.5636
64.4555
64.3469
64.2379
64.1287
64.0196
63.9107
63.8025
63.6949
63.5884
63.483
63.3791
63.2768
63.1763
63.0779
62.9817
62.8879
62.7967
62.7082
62.6226
62.54
62.4607
62.3846
62.3119
62.2427
62.1771
62.1153
62.0572
62.0029
61.9526
61.9062
61.8639
61.8255
61.7913
61.7611
61.735
61.7131
61.6953
61.6817
61.6722
61.6669
61.6658
61.669
61.6763
61.688
61.704
61.7244
61.7492
61.7784
61.8122
61.8504
61.8932
61.9406
61.9925
62.0488
62.1097
62.1748
62.2443
62.3178
62.3953
62.4765
62.5613
62.6493
62.7404
62.8342
62.9305
63.0289
63.1292
63.231
63.3341
63.438
63.5426
63.6475
63.7524
63.8571
63.9613
64.0648
64.1673
64.2687
64.3688
64.4674
64.5643
64.6594
64.7525
64.8437
64.9328
65.0196
65.1043
65.1866
65.2667
65.3443
65.4197
65.4926
65.5633
65.6315
65.6975
65.7612
65.8226
65.8818
65.9387
65.9936
66.0464
66.0971
66.1459
66.1927
66.2376
66.2807
66.3221
66.3617
66.3997
66.4361
66.4709
66.5043
66.5362
66.5668
66.596
66.6239
66.6507
66.6762
66.7006
66.7239
66.7462
66.7675
66.7878
66.8072
66.8257
66.8434
66.8603
66.8764
66.8917
66.9064
66.9204
66.9337
66.9464
66.9586
66.9702
66.9812
66.9917
67.0018
67.0113
67.0204
67.0291
67.0374
67.0453
67.0528
67.06
67.0669
67.0734
67.0796
67.0855
67.0911
67.0965
67.1016
67.1065
67.1111
67.1156
67.1198
67.1238
67.1276
67.1313
67.1348
67.1381
67.1412
67.1442
67.1471
67.1498
67.1524
67.1549
67.1573
67.1595
67.1617
67.1637
67.1657
67.1675
67.1693
67.171
67.1726
67.1741
67.1756
67.177
67.1783
67.1796
67.1808
67.1819
67.183
67.1841
67.1851
67.186
67.187
67.1878
67.1887
67.1895
67.1902
67.191
67.1917
67.1923
67.193
67.1936
67.1942
67.1948
67.1953
67.1959
67.1964
67.1969
67.1973
67.1978
67.1982
67.1989
67.2037
67.2018
67.1981
67.1923
67.1846
67.175
67.1634
67.1498
67.1342
67.1166
67.0969
67.0752
67.0513
67.0253
66.9971
66.9666
66.9339
66.8988
66.8614
66.8216
66.7793
66.7346
66.6872
66.6373
66.5848
66.5296
66.4716
66.411
66.3475
66.2813
66.2123
66.1405
66.0658
65.9884
65.9081
65.8252
65.7395
65.6512
65.5603
65.467
65.3712
65.2732
65.173
65.0708
64.9668
64.8611
64.7539
64.6454
64.5358
64.4253
64.3142
64.2027
64.091
63.9794
63.868
63.7572
63.6472
63.5382
63.4305
63.3242
63.2196
63.1169
63.0163
62.918
62.8221
62.7289
62.6386
62.5511
62.4668
62.3857
62.308
62.2337
62.163
62.096
62.0327
61.9733
61.9178
61.8662
61.8187
61.7753
61.736
61.7008
61.6699
61.6432
61.6208
61.6027
61.5889
61.5794
61.5743
61.5737
61.5774
61.5856
61.5982
61.6154
61.6372
61.6636
61.6946
61.7302
61.7706
61.8156
61.8654
61.9198
61.9788
62.0424
62.1105
62.1829
62.2595
62.3402
62.4246
62.5127
62.6041
62.6985
62.7958
62.8955
62.9973
63.101
63.2061
63.3125
63.4197
63.5274
63.6354
63.7432
63.8508
63.9577
64.0638
64.1688
64.2726
64.3748
64.4754
64.5741
64.671
64.7657
64.8583
64.9487
65.0367
65.1224
65.2056
65.2864
65.3647
65.4406
65.514
65.5849
65.6535
65.7196
65.7833
65.8447
65.9038
65.9607
66.0154
66.0679
66.1184
66.1668
66.2133
66.2579
66.3006
66.3415
66.3807
66.4182
66.4542
66.4885
66.5214
66.5528
66.5829
66.6116
66.6391
66.6653
66.6904
66.7143
66.7371
66.759
66.7798
66.7997
66.8186
66.8367
66.854
66.8704
66.8862
66.9011
66.9154
66.9291
66.942
66.9544
66.9662
66.9775
66.9882
66.9985
67.0082
67.0175
67.0264
67.0348
67.0428
67.0505
67.0578
67.0648
67.0714
67.0777
67.0837
67.0895
67.0949
67.1001
67.1051
67.1098
67.1143
67.1186
67.1227
67.1265
67.1303
67.1338
67.1371
67.1403
67.1434
67.1463
67.1491
67.1517
67.1542
67.1566
67.1589
67.1611
67.1631
67.1651
67.167
67.1688
67.1705
67.1721
67.1737
67.1751
67.1766
67.1779
67.1792
67.1804
67.1816
67.1827
67.1838
67.1848
67.1857
67.1867
67.1875
67.1884
67.1892
67.19
67.1907
67.1914
67.1921
67.1928
67.1934
67.194
67.1946
67.1951
67.1956
67.1961
67.1966
67.1971
67.1976
67.1981
67.1984
67.1991
67.2037
67.2019
67.1981
67.1924
67.1848
67.1753
67.1638
67.1503
67.1349
67.1175
67.098
67.0764
67.0527
67.0269
66.9988
66.9686
66.936
66.9011
66.8638
66.8241
66.7819
66.7372
66.6899
66.6399
66.5873
66.5319
66.4738
66.4128
66.349
66.2823
66.2128
66.1403
66.0649
65.9865
65.9053
65.8212
65.7343
65.6447
65.5523
65.4573
65.3598
65.2598
65.1576
65.0533
64.947
64.839
64.7293
64.6183
64.5061
64.393
64.2792
64.165
64.0505
63.9361
63.822
63.7085
63.5958
63.4841
63.3737
63.2649
63.1578
63.0527
62.9497
62.8491
62.7511
62.6558
62.5633
62.4739
62.3877
62.3048
62.2253
62.1494
62.0771
62.0085
61.9437
61.8829
61.826
61.7731
61.7244
61.6798
61.6394
61.6033
61.5716
61.5442
61.5212
61.5026
61.4886
61.4791
61.4742
61.4738
61.4781
61.4871
61.5008
61.5192
61.5424
61.5704
61.6033
61.641
61.6836
61.731
61.7834
61.8405