/*--------------------------------*- C++ -*----------------------------------*\
| =========                 |                                                 |
| \\      /  F ield         | OpenFOAM: The Open Source CFD Toolbox           |
|  \\    /   O peration     | Version:  2306                                  |
|   \\  /    A nd           | Website:  www.openfoam.com                      |
|    \\/     M anipulation  |                                                 |
\*---------------------------------------------------------------------------*/
FoamFile
{
    version     2.0;
    format      ascii;
    arch        "LSB;label=32;scalar=64";
    class       volScalarField;
    location    "2.5";
    object      p;
}
// * * * * * * * * * * * * * * * * * * * * * * * * * * * * * * * * * * * * * //

dimensions      [0 2 -2 0 0 0 0];

internalField   nonuniform List<scalar> 
32768
(
0.273416
0.273286
0.273001
0.272553
0.271943
0.271172
0.27024
0.269146
0.267888
0.266464
0.264872
0.263111
0.261178
0.259071
0.256786
0.254323
0.251678
0.248847
0.245829
0.24262
0.239218
0.235618
0.231819
0.227818
0.223611
0.219196
0.214571
0.209733
0.20468
0.19941
0.193922
0.188215
0.182288
0.17614
0.169773
0.163187
0.156383
0.149363
0.142131
0.134689
0.127043
0.119196
0.111155
0.102926
0.0945177
0.0859371
0.0771939
0.0682981
0.0592605
0.0500928
0.0408074
0.0314175
0.021937
0.0123805
0.00276316
-0.00689935
-0.0165908
-0.0262946
-0.0359936
-0.0456708
-0.0553084
-0.064889
-0.0743947
-0.0838079
-0.093111
-0.102286
-0.111317
-0.120185
-0.128874
-0.137368
-0.145651
-0.153707
-0.161522
-0.16908
-0.176368
-0.183373
-0.190083
-0.196486
-0.20257
-0.208327
-0.213745
-0.218818
-0.223537
-0.227895
-0.231887
-0.235507
-0.238752
-0.241618
-0.244103
-0.246206
-0.247926
-0.249265
-0.250223
-0.250804
-0.251012
-0.250852
-0.250329
-0.249451
-0.248227
-0.246667
-0.24478
-0.24258
-0.240078
-0.237289
-0.234228
-0.230911
-0.227354
-0.223574
-0.219589
-0.215417
-0.211077
-0.206587
-0.201965
-0.197229
-0.192399
-0.18749
-0.182521
-0.177509
-0.172468
-0.167415
-0.162364
-0.157327
-0.152319
-0.147351
-0.142433
-0.137576
-0.132789
-0.128079
-0.123455
-0.118921
-0.114484
-0.110149
-0.105918
-0.101797
-0.0977858
-0.0938879
-0.0901042
-0.0864354
-0.0828818
-0.0794432
-0.0761191
-0.0729084
-0.0698099
-0.066822
-0.063943
-0.0611709
-0.0585034
-0.0559381
-0.0534727
-0.0511046
-0.048831
-0.0466493
-0.0445567
-0.0425505
-0.0406279
-0.038786
-0.0370222
-0.0353336
-0.0337177
-0.0321716
-0.0306929
-0.0292789
-0.0279272
-0.0266353
-0.0254008
-0.0242214
-0.0230948
-0.022019
-0.0209917
-0.0200109
-0.0190748
-0.0181812
-0.0173286
-0.0165149
-0.0157387
-0.0149981
-0.0142918
-0.013618
-0.0129755
-0.0123627
-0.0117784
-0.0112213
-0.0106901
-0.0101837
-0.00970088
-0.00924066
-0.00880197
-0.00838383
-0.00798527
-0.0076054
-0.00724336
-0.00689832
-0.00656948
-0.00625609
-0.00595744
-0.00567283
-0.0054016
-0.00514313
-0.00489681
-0.00466208
-0.00443838
-0.00422519
-0.00402203
-0.0038284
-0.00364386
-0.00346797
-0.00330033
-0.00314052
-0.00298819
-0.00284297
-0.00270452
-0.00257251
-0.00244662
-0.00232657
-0.00221206
-0.00210283
-0.00199862
-0.00189917
-0.00180426
-0.00171366
-0.00162715
-0.00154452
-0.00146558
-0.00139015
-0.00131804
-0.00124908
-0.0011831
-0.00111995
-0.00105949
-0.00100155
-0.000946015
-0.000892741
-0.000841602
-0.000792477
-0.000745249
-0.000699805
-0.000656036
-0.000613838
-0.000573109
-0.000533753
-0.000495675
-0.000458785
-0.000422993
-0.000388216
-0.000354369
-0.000321371
-0.000289144
-0.000257613
-0.000226692
-0.000196337
-0.000166401
-0.000136997
-0.0001076
-7.92394e-05
-4.90194e-05
-2.29056e-05
0.273574
0.273444
0.27316
0.272712
0.272102
0.271331
0.270401
0.269307
0.26805
0.266627
0.265036
0.263276
0.261344
0.259238
0.256955
0.254492
0.251848
0.249018
0.246001
0.242793
0.239391
0.235792
0.231994
0.227992
0.223785
0.21937
0.214744
0.209904
0.20485
0.199578
0.194088
0.188378
0.182447
0.176296
0.169924
0.163332
0.156523
0.149497
0.142257
0.134808
0.127153
0.119297
0.111247
0.103008
0.0945884
0.0859964
0.0772412
0.0683328
0.0592822
0.0501011
0.0408019
0.0313979
0.021903
0.0123319
0.00269975
-0.0069776
-0.0166839
-0.0264025
-0.0361163
-0.0458081
-0.0554601
-0.0650548
-0.0745745
-0.0840013
-0.0933175
-0.102506
-0.111548
-0.120429
-0.12913
-0.137635
-0.145928
-0.153994
-0.161818
-0.169386
-0.176683
-0.183697
-0.190414
-0.196824
-0.202916
-0.208678
-0.214103
-0.219181
-0.223904
-0.228266
-0.232262
-0.235885
-0.239132
-0.241999
-0.244485
-0.246588
-0.248307
-0.249644
-0.2506
-0.251178
-0.251382
-0.251216
-0.250688
-0.249804
-0.248573
-0.247004
-0.245109
-0.242899
-0.240387
-0.237588
-0.234515
-0.231186
-0.227617
-0.223825
-0.219827
-0.215642
-0.211288
-0.206784
-0.202149
-0.197399
-0.192555
-0.187633
-0.182651
-0.177625
-0.172572
-0.167506
-0.162443
-0.157395
-0.152375
-0.147396
-0.142469
-0.137602
-0.132805
-0.128087
-0.123454
-0.118913
-0.11447
-0.110128
-0.105892
-0.101765
-0.0977494
-0.0938473
-0.0900598
-0.0863877
-0.0828313
-0.0793902
-0.076064
-0.0728516
-0.0697517
-0.0667628
-0.063883
-0.0611103
-0.0584425
-0.0558773
-0.053412
-0.0510441
-0.0487711
-0.04659
-0.0444982
-0.0424929
-0.0405712
-0.0387304
-0.0369677
-0.0352803
-0.0336656
-0.0321209
-0.0306435
-0.0292308
-0.0278805
-0.0265899
-0.0253568
-0.0241787
-0.0230536
-0.0219791
-0.0209531
-0.0199737
-0.0190388
-0.0181466
-0.0172952
-0.0164828
-0.0157077
-0.0149684
-0.0142631
-0.0135905
-0.012949
-0.0123373
-0.011754
-0.0111979
-0.0106676
-0.0101622
-0.00968027
-0.00922092
-0.00878306
-0.00836572
-0.00796794
-0.00758882
-0.00722749
-0.00688314
-0.00655496
-0.00624222
-0.00594418
-0.00566015
-0.00538949
-0.00513156
-0.00488576
-0.00465153
-0.00442831
-0.00421558
-0.00401286
-0.00381965
-0.00363551
-0.00346001
-0.00329273
-0.00313329
-0.00298129
-0.0028364
-0.00269825
-0.00256654
-0.00244094
-0.00232116
-0.00220691
-0.00209793
-0.00199395
-0.00189473
-0.00180004
-0.00170964
-0.00162333
-0.00154089
-0.00146214
-0.00138688
-0.00131493
-0.00124613
-0.00118031
-0.00111731
-0.00105699
-0.000999188
-0.00094378
-0.00089063
-0.000839611
-0.000790602
-0.000743485
-0.000698148
-0.000654482
-0.000612383
-0.00057175
-0.000532487
-0.000494499
-0.000457696
-0.00042199
-0.000387294
-0.000353527
-0.000320609
-0.000288457
-0.000257001
-0.000226153
-0.000195872
-0.000166004
-0.000136674
-0.000107331
-7.90602e-05
-4.88347e-05
-2.29602e-05
0.273891
0.27376
0.273477
0.27303
0.27242
0.271651
0.270722
0.26963
0.268374
0.266953
0.265364
0.263606
0.261676
0.259572
0.257291
0.254831
0.252189
0.249361
0.246346
0.243139
0.239739
0.236141
0.232343
0.228341
0.224134
0.219718
0.21509
0.210249
0.205191
0.199915
0.19442
0.188704
0.182767
0.176607
0.170226
0.163625
0.156803
0.149765
0.142511
0.135047
0.127375
0.119501
0.111431
0.103172
0.0947304
0.0861154
0.0773361
0.0684026
0.0593259
0.0501178
0.0407909
0.0313585
0.0218347
0.0122343
0.00257259
-0.00713456
-0.0168707
-0.0266191
-0.0363625
-0.0460835
-0.0557645
-0.0653877
-0.0749352
-0.0843892
-0.0937319
-0.102946
-0.112013
-0.120918
-0.129642
-0.138169
-0.146484
-0.15457
-0.162414
-0.17
-0.177315
-0.184345
-0.191078
-0.197503
-0.203608
-0.209383
-0.214819
-0.219908
-0.224641
-0.229011
-0.233014
-0.236642
-0.239894
-0.242764
-0.245251
-0.247354
-0.249072
-0.250405
-0.251356
-0.251928
-0.252123
-0.251948
-0.251408
-0.250511
-0.249265
-0.247681
-0.245768
-0.243539
-0.241007
-0.238187
-0.235092
-0.231739
-0.228146
-0.224328
-0.220304
-0.216093
-0.211712
-0.207181
-0.202518
-0.197741
-0.192869
-0.18792
-0.182911
-0.177859
-0.17278
-0.167689
-0.162601
-0.15753
-0.152488
-0.147487
-0.142539
-0.137653
-0.132838
-0.128103
-0.123454
-0.118898
-0.114441
-0.110086
-0.105839
-0.101701
-0.0976762
-0.0937656
-0.0899707
-0.086292
-0.0827298
-0.0792838
-0.0759534
-0.0727376
-0.069635
-0.0666439
-0.0637626
-0.0609889
-0.0583205
-0.0557552
-0.0532902
-0.050923
-0.0486509
-0.0464711
-0.0443809
-0.0423773
-0.0404576
-0.0386189
-0.0368585
-0.0351735
-0.0335613
-0.0320192
-0.0305444
-0.0291345
-0.0277868
-0.026499
-0.0252686
-0.0240933
-0.0229709
-0.0218991
-0.0208759
-0.0198991
-0.0189668
-0.0180772
-0.0172283
-0.0164184
-0.0156457
-0.0149087
-0.0142058
-0.0135354
-0.0128961
-0.0122864
-0.0117052
-0.011151
-0.0106227
-0.0101191
-0.009639
-0.00918138
-0.00874519
-0.00832946
-0.00793323
-0.0075556
-0.00719571
-0.00685274
-0.0065259
-0.00621443
-0.00591762
-0.00563477
-0.00536524
-0.0051084
-0.00486364
-0.00463041
-0.00440815
-0.00419634
-0.00399449
-0.00380213
-0.0036188
-0.00344407
-0.00327753
-0.00311879
-0.00296748
-0.00282323
-0.0026857
-0.00255458
-0.00242955
-0.00231031
-0.00219659
-0.0020881
-0.0019846
-0.00188584
-0.00179158
-0.0017016
-0.00161568
-0.00153363
-0.00145524
-0.00138033
-0.00130872
-0.00124024
-0.00117473
-0.00111202
-0.00105198
-0.000994451
-0.000939303
-0.000886403
-0.000835625
-0.000786846
-0.000739952
-0.000694828
-0.000651369
-0.000609469
-0.000569029
-0.000529952
-0.000492145
-0.000455516
-0.000419979
-0.000385449
-0.000351842
-0.00031908
-0.000287082
-0.000255776
-0.000225074
-0.000194937
-0.000165211
-0.00013602
-0.000106815
-7.86821e-05
-4.85963e-05
-2.28825e-05
0.274365
0.274235
0.273952
0.273506
0.272898
0.272131
0.271203
0.270114
0.268861
0.267442
0.265856
0.264101
0.262175
0.260074
0.257796
0.255339
0.2527
0.249876
0.246863
0.243659
0.24026
0.236664
0.232867
0.228866
0.224658
0.220241
0.215611
0.210766
0.205703
0.200422
0.194919
0.189195
0.183247
0.177076
0.170681
0.164064
0.157226
0.150168
0.142893
0.135405
0.127709
0.119808
0.111709
0.103418
0.0949441
0.0862945
0.0774789
0.0685075
0.0593916
0.0501429
0.0407742
0.0312991
0.0217318
0.0120873
0.00238092
-0.00737108
-0.0171522
-0.0269454
-0.0367334
-0.0464985
-0.056223
-0.0658889
-0.0754783
-0.0849732
-0.0943558
-0.103608
-0.112713
-0.121654
-0.130412
-0.138973
-0.14732
-0.155437
-0.16331
-0.170924
-0.178265
-0.18532
-0.192077
-0.198524
-0.204649
-0.210444
-0.215897
-0.221001
-0.225748
-0.230131
-0.234144
-0.237782
-0.241039
-0.243914
-0.246403
-0.248506
-0.250221
-0.25155
-0.252494
-0.253055
-0.253238
-0.253049
-0.252492
-0.251575
-0.250308
-0.248699
-0.24676
-0.244503
-0.241941
-0.239088
-0.235959
-0.232572
-0.228941
-0.225085
-0.221022
-0.216771
-0.21235
-0.207777
-0.203073
-0.198255
-0.193341
-0.188351
-0.183302
-0.17821
-0.173092
-0.167963
-0.162839
-0.157732
-0.152657
-0.147624
-0.142644
-0.137729
-0.132887
-0.128126
-0.123453
-0.118874
-0.114396
-0.110023
-0.105758
-0.101605
-0.0975657
-0.0936425
-0.0898363
-0.0861477
-0.082577
-0.0791237
-0.0757871
-0.0725661
-0.0694594
-0.0664652
-0.0635815
-0.0608063
-0.0581372
-0.0555717
-0.0531072
-0.0507411
-0.0484705
-0.0462927
-0.0442047
-0.0422038
-0.0402871
-0.0384516
-0.0366947
-0.0350133
-0.0334049
-0.0318666
-0.0303958
-0.0289899
-0.0276464
-0.0263627
-0.0251365
-0.0239653
-0.022847
-0.0217793
-0.0207601
-0.0197873
-0.018859
-0.0179732
-0.017128
-0.0163218
-0.0155528
-0.0148193
-0.0141198
-0.0134528
-0.0128167
-0.0122103
-0.0116321
-0.0110809
-0.0105555
-0.0100546
-0.00957719
-0.00912216
-0.00868847
-0.00827515
-0.00788125
-0.00750586
-0.00714813
-0.00680723
-0.00648238
-0.00617282
-0.00587785
-0.00559677
-0.00532894
-0.00507372
-0.00483053
-0.00459879
-0.00437796
-0.00416753
-0.003967
-0.0037759
-0.00359378
-0.0034202
-0.00325477
-0.00309709
-0.00294679
-0.00280352
-0.00266692
-0.00253669
-0.00241251
-0.00229408
-0.00218114
-0.00207339
-0.00197061
-0.00187252
-0.00177892
-0.00168956
-0.00160424
-0.00152276
-0.00144492
-0.00137053
-0.00129942
-0.00123142
-0.00116637
-0.0011041
-0.00104448
-0.000987361
-0.000932603
-0.000880077
-0.000829658
-0.000781225
-0.000734663
-0.000689861
-0.00064671
-0.000605109
-0.000564957
-0.000526158
-0.00048862
-0.000452253
-0.00041697
-0.000382687
-0.000349321
-0.000316793
-0.000285023
-0.000253942
-0.00022346
-0.000193538
-0.000164025
-0.000135044
-0.000106047
-7.81185e-05
-4.82494e-05
-2.27237e-05
0.274997
0.274867
0.274586
0.274141
0.273535
0.272769
0.271845
0.270758
0.269509
0.268094
0.266512
0.264761
0.262839
0.260743
0.25847
0.256017
0.253382
0.250562
0.247553
0.244352
0.240957
0.237362
0.233567
0.229566
0.225358
0.220939
0.216306
0.211456
0.206388
0.201099
0.195587
0.189851
0.18389
0.177703
0.17129
0.164652
0.157791
0.150707
0.143405
0.135886
0.128156
0.120218
0.112081
0.103749
0.0952304
0.0865344
0.0776702
0.0686481
0.0594795
0.0501763
0.0407517
0.0312193
0.0215936
0.0118898
0.00212363
-0.00768854
-0.0175299
-0.0273832
-0.0372309
-0.0470552
-0.056838
-0.0665612
-0.0762067
-0.0857564
-0.0951922
-0.104496
-0.113652
-0.12264
-0.131445
-0.140051
-0.14844
-0.156598
-0.16451
-0.172161
-0.179537
-0.186625
-0.193413
-0.19989
-0.206043
-0.211862
-0.217339
-0.222465
-0.227231
-0.23163
-0.235657
-0.239306
-0.242573
-0.245453
-0.247946
-0.250048
-0.25176
-0.253082
-0.254016
-0.254565
-0.254732
-0.254523
-0.253943
-0.253001
-0.251704
-0.250063
-0.248089
-0.245794
-0.243192
-0.240296
-0.237122
-0.233686
-0.230006
-0.2261
-0.221984
-0.217679
-0.213203
-0.208576
-0.203815
-0.198942
-0.193973
-0.188928
-0.183825
-0.178679
-0.173509
-0.16833
-0.163156
-0.158002
-0.152881
-0.147805
-0.142784
-0.13783
-0.132951
-0.128155
-0.12345
-0.118842
-0.114336
-0.109937
-0.105649
-0.101475
-0.097417
-0.0934769
-0.0896557
-0.0859541
-0.0823719
-0.0789089
-0.0755641
-0.0723364
-0.0692243
-0.0662259
-0.0633393
-0.0605621
-0.0578921
-0.0553265
-0.0528627
-0.050498
-0.0482295
-0.0460543
-0.0439695
-0.0419722
-0.0400595
-0.0382284
-0.036476
-0.0347995
-0.0331962
-0.0316631
-0.0301977
-0.0287972
-0.0274592
-0.026181
-0.0249603
-0.0237947
-0.0226819
-0.0216196
-0.0206058
-0.0196384
-0.0187153
-0.0178346
-0.0169945
-0.0161933
-0.0154291
-0.0147003
-0.0140054
-0.0133428
-0.0127111
-0.0121088
-0.0115348
-0.0109875
-0.0104659
-0.00996875
-0.00949492
-0.00904335
-0.008613
-0.00820289
-0.00781208
-0.00743967
-0.00708481
-0.00674667
-0.00642447
-0.00611747
-0.00582495
-0.00554622
-0.00528064
-0.00502759
-0.00478648
-0.00455673
-0.00433781
-0.00412921
-0.00393043
-0.00374101
-0.00356049
-0.00338846
-0.00322451
-0.00306824
-0.00291929
-0.0027773
-0.00264194
-0.00251289
-0.00238984
-0.0022725
-0.00216059
-0.00205384
-0.00195199
-0.00185482
-0.00176208
-0.00167355
-0.00158903
-0.0015083
-0.00143119
-0.0013575
-0.00128706
-0.00121969
-0.00115525
-0.00109357
-0.00103452
-0.000977934
-0.000923693
-0.000871665
-0.000821724
-0.000773751
-0.000727632
-0.000683256
-0.000640516
-0.000599311
-0.000559542
-0.000521114
-0.000483935
-0.000447915
-0.00041297
-0.000379014
-0.000345968
-0.000313751
-0.000282286
-0.000251503
-0.000221313
-0.000191679
-0.000162449
-0.000133746
-0.000105028
-7.73685e-05
-4.7786e-05
-2.25062e-05
0.275786
0.275657
0.275376
0.274933
0.274329
0.273567
0.272646
0.271563
0.270318
0.268908
0.267331
0.265586
0.263669
0.261579
0.259312
0.256865
0.254236
0.251421
0.248417
0.24522
0.241828
0.238237
0.234443
0.230444
0.226235
0.221814
0.217177
0.212323
0.207247
0.201949
0.196425
0.190675
0.184697
0.17849
0.172055
0.165392
0.158501
0.151386
0.144048
0.13649
0.128718
0.120735
0.112548
0.104164
0.0955907
0.0868364
0.0779109
0.0688249
0.0595899
0.0502182
0.040723
0.0311184
0.0214191
0.0116407
0.00179919
-0.00808877
-0.018006
-0.027935
-0.0378579
-0.0477565
-0.0576127
-0.0674079
-0.077124
-0.0867425
-0.0962452
-0.105614
-0.114832
-0.123881
-0.132745
-0.141406
-0.149849
-0.158058
-0.166018
-0.173716
-0.181136
-0.188266
-0.195093
-0.201606
-0.207793
-0.213645
-0.219151
-0.224303
-0.229093
-0.233513
-0.237557
-0.241221
-0.244498
-0.247387
-0.249883
-0.251985
-0.253693
-0.255008
-0.25593
-0.256463
-0.25661
-0.256376
-0.255768
-0.254793
-0.25346
-0.251779
-0.249761
-0.247419
-0.244765
-0.241815
-0.238584
-0.235089
-0.231347
-0.227375
-0.223194
-0.218821
-0.214276
-0.209579
-0.204749
-0.199805
-0.194767
-0.189652
-0.18448
-0.179268
-0.174032
-0.168789
-0.163553
-0.15834
-0.153161
-0.14803
-0.142958
-0.137954
-0.133029
-0.12819
-0.123444
-0.118799
-0.114258
-0.109828
-0.105511
-0.10131
-0.0972289
-0.0932677
-0.0894279
-0.0857099
-0.0821137
-0.0786386
-0.0752836
-0.0720476
-0.0689288
-0.0659254
-0.0630351
-0.0602556
-0.0575844
-0.0550188
-0.0525561
-0.0501932
-0.0479274
-0.0457557
-0.0436749
-0.0416822
-0.0397746
-0.0379489
-0.0362024
-0.0345321
-0.0329351
-0.0314086
-0.0299499
-0.0285563
-0.0272251
-0.0259539
-0.0247402
-0.0235815
-0.0224756
-0.0214202
-0.0204131
-0.0194524
-0.0185358
-0.0176616
-0.0168279
-0.0160328
-0.0152746
-0.0145518
-0.0138626
-0.0132056
-0.0125793
-0.0119823
-0.0114133
-0.010871
-0.0103542
-0.00986168
-0.00939233
-0.00894506
-0.00851887
-0.00811278
-0.00772583
-0.00735715
-0.00700587
-0.00667117
-0.00635229
-0.00604846
-0.005759
-0.00548321
-0.00522044
-0.0049701
-0.00473157
-0.00450431
-0.00428777
-0.00408145
-0.00388486
-0.00369753
-0.00351902
-0.00334891
-0.00318679
-0.00303228
-0.00288501
-0.00274464
-0.00261082
-0.00248324
-0.0023616
-0.00224561
-0.00213499
-0.00202947
-0.00192881
-0.00183276
-0.0017411
-0.00165361
-0.00157007
-0.00149029
-0.00141408
-0.00134126
-0.00127165
-0.00120508
-0.0011414
-0.00108046
-0.0010221
-0.00096619
-0.000912595
-0.000861187
-0.000811841
-0.000764441
-0.000718873
-0.000675028
-0.0006328
-0.000592089
-0.000552797
-0.00051483
-0.000478098
-0.000442511
-0.000407986
-0.00037444
-0.000341791
-0.000309963
-0.000278877
-0.000248465
-0.00021864
-0.000189363
-0.000160486
-0.00013213
-0.000103759
-7.64337e-05
-4.72084e-05
-2.22345e-05
0.276731
0.276603
0.276324
0.275883
0.275282
0.274523
0.273606
0.272528
0.271288
0.269884
0.268314
0.266575
0.264666
0.262582
0.260322
0.257882
0.25526
0.252452
0.249454
0.246263
0.242876
0.239288
0.235497
0.231499
0.22729
0.222867
0.218227
0.213366
0.208282
0.202973
0.197436
0.191668
0.18567
0.17944
0.172978
0.166284
0.15936
0.152206
0.144825
0.137221
0.129397
0.12136
0.113114
0.104667
0.0960265
0.0872016
0.0782021
0.0690387
0.0597233
0.0502685
0.0406878
0.0309957
0.0212073
0.0113385
0.00140564
-0.00857411
-0.0185833
-0.0286039
-0.0386178
-0.0486064
-0.0585512
-0.0684336
-0.0782348
-0.0879363
-0.0975199
-0.106967
-0.116261
-0.125383
-0.134316
-0.143045
-0.151552
-0.159822
-0.167841
-0.175594
-0.183067
-0.190247
-0.197121
-0.203678
-0.209907
-0.215796
-0.221337
-0.226521
-0.23134
-0.235785
-0.239851
-0.243532
-0.246823
-0.24972
-0.252221
-0.254324
-0.256028
-0.257333
-0.258242
-0.258755
-0.258878
-0.258616
-0.257974
-0.25696
-0.255583
-0.253854
-0.251783
-0.249383
-0.246668
-0.243652
-0.240352
-0.236785
-0.232967
-0.228918
-0.224656
-0.220201
-0.215573
-0.210792
-0.205876
-0.200847
-0.195724
-0.190526
-0.18527
-0.179977
-0.174661
-0.169341
-0.16403
-0.158744
-0.153497
-0.148299
-0.143164
-0.138101
-0.13312
-0.128229
-0.123435
-0.118744
-0.114162
-0.109693
-0.105341
-0.10111
-0.0969998
-0.0930135
-0.0891514
-0.0854139
-0.0818008
-0.0783113
-0.0749444
-0.0716985
-0.0685719
-0.0655625
-0.062668
-0.059886
-0.0572136
-0.0546481
-0.0521867
-0.0498263
-0.0475638
-0.0453963
-0.0433205
-0.0413335
-0.039432
-0.0376131
-0.0358737
-0.0342108
-0.0326215
-0.031103
-0.0296525
-0.0282671
-0.0269443
-0.0256815
-0.0244761
-0.0233258
-0.0222282
-0.0211811
-0.0201822
-0.0192294
-0.0183208
-0.0174544
-0.0166282
-0.0158405
-0.0150896
-0.0143739
-0.0136916
-0.0130413
-0.0124215
-0.0118309
-0.011268
-0.0107316
-0.0102205
-0.00973356
-0.00926956
-0.00882747
-0.00840626
-0.00800497
-0.00762266
-0.00725843
-0.00691144
-0.00658087
-0.00626595
-0.00596594
-0.00568013
-0.00540785
-0.00514846
-0.00490135
-0.00466592
-0.00444163
-0.00422795
-0.00402436
-0.00383038
-0.00364555
-0.00346944
-0.00330163
-0.00314171
-0.0029893
-0.00284404
-0.00270559
-0.00257362
-0.00244781
-0.00232785
-0.00221347
-0.00210439
-0.00200035
-0.0019011
-0.0018064
-0.00171603
-0.00162977
-0.00154742
-0.00146877
-0.00139365
-0.00132186
-0.00125324
-0.00118763
-0.00112486
-0.00106478
-0.00100726
-0.000952157
-0.000899334
-0.000848666
-0.000800032
-0.000753317
-0.000708407
-0.000665196
-0.00062358
-0.000583459
-0.000544738
-0.000507322
-0.000471123
-0.000436055
-0.000402032
-0.000368974
-0.000336801
-0.000305437
-0.000274804
-0.000244836
-0.000215446
-0.000186596
-0.000158141
-0.000130199
-0.000102242
-7.53166e-05
-4.65185e-05
-2.19096e-05
0.277832
0.277705
0.277427
0.276989
0.276391
0.275637
0.274724
0.273653
0.272419
0.271022
0.26946
0.267729
0.265827
0.263753
0.261501
0.25907
0.256456
0.253656
0.250666
0.247482
0.2441
0.240518
0.23673
0.232734
0.228525
0.224101
0.219456
0.214589
0.209496
0.204174
0.198621
0.192835
0.186814
0.180557
0.174063
0.167334
0.160368
0.153169
0.145739
0.13808
0.130197
0.122095
0.11378
0.105259
0.0965398
0.0876318
0.0785449
0.0692903
0.0598801
0.0503272
0.0406457
0.0308504
0.0209568
0.0109812
0.000940623
-0.00914743
-0.019265
-0.0293936
-0.0395147
-0.0496093
-0.0596586
-0.0696434
-0.0795447
-0.0893439
-0.0990223
-0.108561
-0.117944
-0.127151
-0.136166
-0.144974
-0.153556
-0.161898
-0.169985
-0.177803
-0.185337
-0.192575
-0.199505
-0.206113
-0.212389
-0.218324
-0.223906
-0.229127
-0.233979
-0.238453
-0.242545
-0.246246
-0.249553
-0.252462
-0.254969
-0.257073
-0.258772
-0.260068
-0.26096
-0.261451
-0.261547
-0.26125
-0.260569
-0.25951
-0.258082
-0.256296
-0.254163
-0.251695
-0.248908
-0.245816
-0.242434
-0.238781
-0.234875
-0.230734
-0.226377
-0.221826
-0.217099
-0.212217
-0.207202
-0.202072
-0.196848
-0.191551
-0.186197
-0.180807
-0.175398
-0.169986
-0.164587
-0.159216
-0.153887
-0.148612
-0.143403
-0.13827
-0.133223
-0.128271
-0.123419
-0.118675
-0.114045
-0.109531
-0.105139
-0.100871
-0.096728
-0.0927123
-0.0888244
-0.0850643
-0.0814317
-0.0779257
-0.0745449
-0.0712878
-0.0681523
-0.0651362
-0.062237
-0.0594521
-0.0567786
-0.0542135
-0.0517538
-0.0493964
-0.0471381
-0.0449757
-0.0429059
-0.0409256
-0.0390315
-0.0372206
-0.0354896
-0.0338355
-0.0322554
-0.0307463
-0.0293053
-0.0279297
-0.0266167
-0.0253637
-0.0241682
-0.0230277
-0.0219399
-0.0209024
-0.0199131
-0.0189697
-0.0180704
-0.017213
-0.0163957
-0.0156167
-0.0148743
-0.0141668
-0.0134926
-0.0128501
-0.0122379
-0.0116547
-0.0110989
-0.0105695
-0.0100651
-0.00958456
-0.0091268
-0.00869074
-0.00827534
-0.00787965
-0.00750273
-0.00714369
-0.00680169
-0.00647593
-0.00616562
-0.00587004
-0.00558849
-0.0053203
-0.00506483
-0.00482147
-0.00458966
-0.00436882
-0.00415845
-0.00395803
-0.0037671
-0.00358518
-0.00341186
-0.00324671
-0.00308935
-0.00293939
-0.00279647
-0.00266026
-0.00253042
-0.00240665
-0.00228866
-0.00217615
-0.00206886
-0.00196653
-0.00186892
-0.00177579
-0.00168692
-0.0016021
-0.00152112
-0.00144379
-0.00136992
-0.00129934
-0.00123187
-0.00116736
-0.00110565
-0.00104659
-0.000990041
-0.000935868
-0.000883939
-0.000834131
-0.000786324
-0.000740403
-0.000696259
-0.000653784
-0.000612878
-0.000573442
-0.000535382
-0.000498607
-0.000463028
-0.00042856
-0.00039512
-0.000362629
-0.000331008
-0.000300183
-0.000270077
-0.000240623
-0.000211738
-0.000183385
-0.000155419
-0.000127958
-0.000100482
-7.402e-05
-4.57178e-05
-2.15322e-05
0.279088
0.278962
0.278686
0.27825
0.277657
0.276907
0.276001
0.274936
0.27371
0.272321
0.270768
0.269046
0.267155
0.26509
0.262849
0.260428
0.257824
0.255034
0.252053
0.248877
0.245503
0.241927
0.238144
0.23415
0.229943
0.225516
0.220868
0.215994
0.21089
0.205555
0.199984
0.194177
0.188129
0.181842
0.175313
0.168543
0.161532
0.154282
0.146794
0.139073
0.131121
0.122945
0.11455
0.105943
0.097133
0.0881289
0.078941
0.0695808
0.0600608
0.0503945
0.0405962
0.0306812
0.0206658
0.0105666
0.000401274
-0.00981214
-0.0200551
-0.0303087
-0.0405538
-0.0507709
-0.0609407
-0.0710437
-0.0810606
-0.0909723
-0.10076
-0.110405
-0.119889
-0.129194
-0.138304
-0.147201
-0.15587
-0.164294
-0.172459
-0.180351
-0.187956
-0.19526
-0.202252
-0.208919
-0.21525
-0.221236
-0.226865
-0.232128
-0.237018
-0.241527
-0.245647
-0.249373
-0.252699
-0.255621
-0.258136
-0.260241
-0.261936
-0.26322
-0.264094
-0.264561
-0.264625
-0.264291
-0.263564
-0.262453
-0.260967
-0.259116
-0.256911
-0.254367
-0.251496
-0.248314
-0.244839
-0.241088
-0.237078
-0.232831
-0.228364
-0.2237
-0.218859
-0.213862
-0.20873
-0.203483
-0.198143
-0.19273
-0.187264
-0.181762
-0.176244
-0.170726
-0.165225
-0.159755
-0.154332
-0.148967
-0.143672
-0.138459
-0.133337
-0.128313
-0.123396
-0.118592
-0.113905
-0.109341
-0.104902
-0.100592
-0.0964113
-0.0923622
-0.0884449
-0.0846592
-0.0810046
-0.0774798
-0.0740835
-0.0708138
-0.0676684
-0.0646449
-0.0617407
-0.0589528
-0.0562783
-0.053714
-0.0512566
-0.0489029
-0.0466496
-0.0444932
-0.0424305
-0.0404581
-0.0385727
-0.036771
-0.0350499
-0.0334061
-0.0318365
-0.0303383
-0.0289084
-0.027544
-0.0262423
-0.0250007
-0.0238166
-0.0226874
-0.0216108
-0.0205844
-0.019606
-0.0186734
-0.0177847
-0.0169377
-0.0161306
-0.0153616
-0.0146289
-0.0139308
-0.0132658
-0.0126323
-0.0120288
-0.0114539
-0.0109064
-0.0103848
-0.00988807
-0.00941492
-0.00896429
-0.0085351
-0.00812633
-0.00773702
-0.00736625
-0.00701313
-0.00667682
-0.00635653
-0.00605148
-0.00576095
-0.00548425
-0.00522071
-0.00496971
-0.00473063
-0.00450292
-0.00428603
-0.00407942
-0.00388262
-0.00369515
-0.00351655
-0.0033464
-0.00318428
-0.00302982
-0.00288264
-0.00274239
-0.00260872
-0.00248132
-0.00235988
-0.00224411
-0.00213373
-0.00202848
-0.0019281
-0.00183236
-0.00174101
-0.00165385
-0.00157065
-0.00149123
-0.00141539
-0.00134296
-0.00127374
-0.00120759
-0.00114433
-0.00108382
-0.00102591
-0.000970471
-0.000917358
-0.000866447
-0.000817617
-0.000770749
-0.000725731
-0.000682455
-0.000640818
-0.000600719
-0.000562062
-0.000524754
-0.000488705
-0.00045383
-0.000420045
-0.000387268
-0.000355421
-0.000324427
-0.000294214
-0.000264705
-0.000235837
-0.000207526
-0.000179736
-0.000152326
-0.000125412
-9.84826e-05
-7.2547e-05
-4.4808e-05
-2.11035e-05
0.280498
0.280372
0.280098
0.279666
0.279078
0.278334
0.277434
0.276377
0.27516
0.273781
0.272238
0.270528
0.268647
0.266595
0.264366
0.261957
0.259365
0.256586
0.253615
0.25045
0.247085
0.243516
0.239739
0.23575
0.231544
0.227117
0.222464
0.217583
0.212469
0.207119
0.201529
0.195698
0.189622
0.183301
0.176732
0.169917
0.162854
0.155546
0.147994
0.140202
0.132173
0.123912
0.115426
0.106722
0.0978088
0.0886951
0.0793921
0.0699115
0.0602662
0.0504703
0.0405386
0.030487
0.0203323
0.010092
-0.000215767
-0.0105723
-0.0209584
-0.0313545
-0.0417409
-0.0520976
-0.0624046
-0.0726421
-0.0827903
-0.0928297
-0.102741
-0.112506
-0.122105
-0.131521
-0.140737
-0.149736
-0.158502
-0.167019
-0.175272
-0.183247
-0.190931
-0.19831
-0.205372
-0.212105
-0.218498
-0.224541
-0.230223
-0.235535
-0.240468
-0.245015
-0.249169
-0.252922
-0.25627
-0.259208
-0.261732
-0.263839
-0.265529
-0.266801
-0.267657
-0.268097
-0.268126
-0.267749
-0.266972
-0.265803
-0.264251
-0.262326
-0.260041
-0.257408
-0.254443
-0.25116
-0.247578
-0.243714
-0.239587
-0.235218
-0.230626
-0.225833
-0.220861
-0.215732
-0.210466
-0.205086
-0.199613
-0.194068
-0.188471
-0.182842
-0.1772
-0.171561
-0.165943
-0.160361
-0.15483
-0.149363
-0.143972
-0.138667
-0.133458
-0.128355
-0.123363
-0.11849
-0.11374
-0.109118
-0.104627
-0.10027
-0.0960471
-0.0919607
-0.0880105
-0.0841962
-0.0805171
-0.0769717
-0.0735583
-0.0702747
-0.0671186
-0.0640872
-0.0611777
-0.0583869
-0.0557116
-0.0531485
-0.0506941
-0.0483449
-0.0460975
-0.0439483
-0.0418938
-0.0399306
-0.0380552
-0.0362642
-0.0345543
-0.0329222
-0.0313648
-0.029879
-0.0284617
-0.0271101
-0.0258213
-0.0245925
-0.0234213
-0.0223049
-0.021241
-0.0202271
-0.0192611
-0.0183408
-0.017464
-0.0166288
-0.0158332
-0.0150754
-0.0143536
-0.0136662
-0.0130115
-0.0123881
-0.0117944
-0.011229
-0.0106906
-0.0101779
-0.00968976
-0.0092249
-0.00878227
-0.0083608
-0.00795947
-0.00757733
-0.00721345
-0.00686697
-0.00653705
-0.00622289
-0.00592373
-0.00563887
-0.0053676
-0.00510928
-0.00486328
-0.00462901
-0.0044059
-0.00419341
-0.00399103
-0.00379827
-0.00361467
-0.00343978
-0.00327318
-0.00311447
-0.00296326
-0.00281919
-0.00268191
-0.0025511
-0.00242642
-0.00230759
-0.00219431
-0.00208632
-0.00198334
-0.00188514
-0.00179148
-0.00170213
-0.00161687
-0.0015355
-0.00145783
-0.00138366
-0.00131282
-0.00124513
-0.00118044
-0.00111859
-0.00105943
-0.00100281
-0.0009486
-0.000896672
-0.000846899
-0.00079916
-0.000753342
-0.000709334
-0.000667029
-0.000626327
-0.00058713
-0.000549343
-0.000512876
-0.00047764
-0.000443552
-0.000410529
-0.000378493
-0.000347366
-0.000317073
-0.000287543
-0.000258703
-0.000230488
-0.000202819
-0.000175659
-0.000148871
-0.000122567
-9.62482e-05
-7.09009e-05
-4.37915e-05
-2.06243e-05
0.28206
0.281936
0.281664
0.281236
0.280653
0.279915
0.279024
0.277976
0.276769
0.275401
0.273869
0.272172
0.270305
0.268266
0.266051
0.263656
0.261078
0.258313
0.255355
0.252202
0.248848
0.245288
0.241519
0.237535
0.233332
0.228904
0.224249
0.219361
0.214236
0.20887
0.20326
0.197403
0.191296
0.184938
0.178326
0.17146
0.16434
0.156968
0.149344
0.141472
0.133356
0.125001
0.116414
0.1076
0.0985703
0.0893333
0.0799003
0.0702838
0.060497
0.0505546
0.0404722
0.0302662
0.0199542
0.00955434
-0.00091442
-0.0114326
-0.0219803
-0.0325373
-0.043083
-0.0535969
-0.0640584
-0.0744472
-0.0847429
-0.0949257
-0.104976
-0.114875
-0.124603
-0.134143
-0.143478
-0.15259
-0.161464
-0.170084
-0.178435
-0.186503
-0.194275
-0.201736
-0.208877
-0.215683
-0.222145
-0.228251
-0.233991
-0.239357
-0.244339
-0.248929
-0.25312
-0.256905
-0.260277
-0.263233
-0.265769
-0.26788
-0.269566
-0.270826
-0.27166
-0.272072
-0.272063
-0.271639
-0.270807
-0.269573
-0.267948
-0.265941
-0.263566
-0.260834
-0.257762
-0.254366
-0.250663
-0.246672
-0.242413
-0.237906
-0.233172
-0.228234
-0.223114
-0.217834
-0.212417
-0.206886
-0.201263
-0.195568
-0.189824
-0.184051
-0.178268
-0.172492
-0.166742
-0.161034
-0.155382
-0.149799
-0.144299
-0.138891
-0.133586
-0.128393
-0.123318
-0.118368
-0.113547
-0.108861
-0.104312
-0.099902
-0.0956328
-0.0915049
-0.0875185
-0.0836729
-0.0799669
-0.0763989
-0.0729669
-0.0696685
-0.066501
-0.0634613
-0.0605464
-0.0577528
-0.0550771
-0.0525157
-0.050065
-0.0477213
-0.0454809
-0.04334
-0.0412951
-0.0393424
-0.0374784
-0.0356996
-0.0340025
-0.0323837
-0.03084
-0.0293682
-0.0279651
-0.0266279
-0.0253535
-0.0241393
-0.0229825
-0.0218804
-0.0208307
-0.0198309
-0.0188788
-0.017972
-0.0171086
-0.0162865
-0.0155037
-0.0147584
-0.0140488
-0.0133732
-0.0127301
-0.0121178
-0.011535
-0.0109801
-0.0104519
-0.00994911
-0.00947045
-0.0090148
-0.00858104