/*--------------------------------*- C++ -*----------------------------------*\
| =========                 |                                                 |
| \\      /  F ield         | OpenFOAM: The Open Source CFD Toolbox           |
|  \\    /   O peration     | Version:  2306                                  |
|   \\  /    A nd           | Website:  www.openfoam.com                      |
|    \\/     M anipulation  |                                                 |
\*---------------------------------------------------------------------------*/
FoamFile
{
    version     2.0;
    format      ascii;
    arch        "LSB;label=32;scalar=64";
    class       surfaceScalarField;
    location    "2.5";
    object      phi;
}
// * * * * * * * * * * * * * * * * * * * * * * * * * * * * * * * * * * * * * //

dimensions      [0 3 -1 0 0 0 0];

oriented        oriented;

internalField   nonuniform List<scalar> 
65152
(
0.00625049
-4.94094e-07
0.00625198
-1.48352e-06
0.00625445
-2.47285e-06
0.00625791
-3.46314e-06
0.00626237
-4.45595e-06
0.00626782
-5.45231e-06
0.00627427
-6.45282e-06
0.00628173
-7.45814e-06
0.0062902
-8.46897e-06
0.00629969
-9.486e-06
0.0063102
-1.05098e-05
0.00632174
-1.15409e-05
0.00633432
-1.25796e-05
0.00634794
-1.36263e-05
0.00636263
-1.46812e-05
0.00637837
-1.57442e-05
0.00639519
-1.68154e-05
0.00641308
-1.78944e-05
0.00643206
-1.89811e-05
0.00645214
-2.00747e-05
0.00647331
-2.11746e-05
0.00649559
-2.22799e-05
0.00651898
-2.33896e-05
0.00654348
-2.45024e-05
0.0065691
-2.56168e-05
0.00659583
-2.67311e-05
0.00662367
-2.78435e-05
0.00665263
-2.8952e-05
0.00668268
-3.00542e-05
0.00671383
-3.11478e-05
0.00674606
-3.22301e-05
0.00677936
-3.32982e-05
0.0068137
-3.43491e-05
0.00684908
-3.53797e-05
0.00688547
-3.63867e-05
0.00692284
-3.73666e-05
0.00696115
-3.83159e-05
0.00700038
-3.92308e-05
0.00704049
-4.01076e-05
0.00708143
-4.09425e-05
0.00712317
-4.17318e-05
0.00716564
-4.24716e-05
0.0072088
-4.31581e-05
0.00725258
-4.37876e-05
0.00729694
-4.43565e-05
0.0073418
-4.48613e-05
0.0073871
-4.52987e-05
0.00743277
-4.56655e-05
0.00747872
-4.59587e-05
0.0075249
-4.61757e-05
0.00757121
-4.6314e-05
0.00761759
-4.63715e-05
0.00766393
-4.63462e-05
0.00771017
-4.62366e-05
0.00775621
-4.60416e-05
0.00780197
-4.576e-05
0.00784736
-4.53914e-05
0.0078923
-4.49354e-05
0.00793669
-4.43921e-05
0.00798045
-4.37619e-05
0.0080235
-4.30454e-05
0.00806574
-4.22436e-05
0.0081071
-4.13576e-05
0.00814749
-4.03891e-05
0.00818683
-3.934e-05
0.00822504
-3.82124e-05
0.00826205
-3.7009e-05
0.00829778
-3.57329e-05
0.00833217
-3.43879e-05
0.00836515
-3.29784e-05
0.00839666
-3.15097e-05
0.00842664
-2.99877e-05
0.00845506
-2.84195e-05
0.00848188
-2.68129e-05
0.00850705
-2.51766e-05
0.00853057
-2.35197e-05
0.00855242
-2.18517e-05
0.00857261
-2.01819e-05
0.00859113
-1.85193e-05
0.008608
-1.68715e-05
0.00862324
-1.52453e-05
0.00863689
-1.3645e-05
0.00864896
-1.20734e-05
0.00865949
-1.05305e-05
0.00866851
-9.01412e-06
0.00867603
-7.51976e-06
0.00868207
-6.04089e-06
0.00868664
-4.56935e-06
0.00868973
-3.09583e-06
0.00869134
-1.61053e-06
0.00869145
-1.03708e-07
0.00869001
1.43359e-06
0.008687
3.0091e-06
0.00868237
4.62878e-06
0.00867608
6.2964e-06
0.00866806
8.01327e-06
0.00865829
9.77818e-06
0.0086467
1.15874e-05
0.00863326
1.34348e-05
0.00861795
1.53122e-05
0.00860074
1.72095e-05
0.00858163
1.91154e-05
0.00856061
2.10172e-05
0.00853771
2.29022e-05
0.00851295
2.47572e-05
0.00848638
2.65693e-05
0.00845805
2.83263e-05
0.00842804
3.00168e-05
0.00839641
3.16302e-05
0.00836325
3.31575e-05
0.00832866
3.45907e-05
0.00829274
3.59233e-05
0.00825559
3.715e-05
0.00821732
3.82669e-05
0.00817805
3.92713e-05
0.00813789
4.01617e-05
0.00809695
4.09375e-05
0.00805535
4.15991e-05
0.0080132
4.21479e-05
0.00797062
4.25859e-05
0.0079277
4.29158e-05
0.00788456
4.3141e-05
0.00784129
4.32651e-05
0.007798
4.32923e-05
0.00775477
4.32272e-05
0.0077117
4.30745e-05
0.00766886
4.28392e-05
0.00762633
4.25263e-05
0.00758419
4.21412e-05
0.0075425
4.1689e-05
0.00750133
4.11751e-05
0.00746072
4.06048e-05
0.00742074
3.99831e-05
0.00738143
3.93151e-05
0.00734282
3.86059e-05
0.00730496
3.78603e-05
0.00726788
3.70828e-05
0.0072316
3.62779e-05
0.00719615
3.54499e-05
0.00716155
3.46028e-05
0.00712781
3.37405e-05
0.00709494
3.28665e-05
0.00706296
3.19843e-05
0.00703186
3.10969e-05
0.00700165
3.02073e-05
0.00697233
2.93182e-05
0.0069439
2.84321e-05
0.00691635
2.75512e-05
0.00688967
2.66776e-05
0.00686386
2.58132e-05
0.0068389
2.49597e-05
0.00681478
2.41184e-05
0.00679149
2.32909e-05
0.00676901
2.24781e-05
0.00674733
2.16811e-05
0.00672643
2.09008e-05
0.00670629
2.01379e-05
0.0066869
1.9393e-05
0.00666823
1.86665e-05
0.00665027
1.79589e-05
0.006633
1.72704e-05
0.0066164
1.66012e-05
0.00660045
1.59515e-05
0.00658513
1.53211e-05
0.00657042
1.47102e-05
0.0065563
1.41185e-05
0.00654275
1.3546e-05
0.00652976
1.29925e-05
0.0065173
1.24576e-05
0.00650536
1.19412e-05
0.00649392
1.14429e-05
0.00648296
1.09623e-05
0.00647246
1.04992e-05
0.00646241
1.00531e-05
0.00645278
9.62359e-06
0.00644357
9.21032e-06
0.00643476
8.81285e-06
0.00642633
8.43073e-06
0.00641826
8.06355e-06
0.00641055
7.71085e-06
0.00640318
7.37221e-06
0.00639613
7.04719e-06
0.0063894
6.73535e-06
0.00638296
6.43625e-06
0.00637681
6.14948e-06
0.00637094
5.87461e-06
0.00636533
5.61123e-06
0.00635997
5.35892e-06
0.00635485
5.1173e-06
0.00634997
4.88596e-06
0.0063453
4.66453e-06
0.00634085
4.45263e-06
0.0063366
4.2499e-06
0.00633254
4.05599e-06
0.00632867
3.87055e-06
0.00632498
3.69325e-06
0.00632145
3.52376e-06
0.00631809
3.36177e-06
0.00631489
3.20698e-06
0.00631183
3.0591e-06
0.00630891
2.91783e-06
0.00630613
2.78291e-06
0.00630347
2.65407e-06
0.00630094
2.53105e-06
0.00629853
2.41362e-06
0.00629623
2.30152e-06
0.00629403
2.19454e-06
0.00629194
2.09246e-06
0.00628994
1.99506e-06
0.00628804
1.90214e-06
0.00628623
1.8135e-06
0.0062845
1.72897e-06
0.00628285
1.64835e-06
0.00628128
1.57148e-06
0.00627978
1.49819e-06
0.00627835
1.42833e-06
0.00627699
1.36174e-06
0.00627569
1.29827e-06
0.00627446
1.2378e-06
0.00627327
1.18018e-06
0.00627215
1.12528e-06
0.00627108
1.07299e-06
0.00627005
1.02319e-06
0.00626908
9.7577e-07
0.00626815
9.30619e-07
0.00626726
8.87637e-07
0.00626641
8.46728e-07
0.0062656
8.07798e-07
0.00626483
7.70761e-07
0.0062641
7.3553e-07
0.0062634
7.02026e-07
0.00626273
6.70172e-07
0.00626209
6.39895e-07
0.00626148
6.11126e-07
0.00626089
5.83797e-07
0.00626033
5.57847e-07
0.0062598
5.33215e-07
0.00625929
5.09844e-07
0.0062588
4.87679e-07
0.00625834
4.6667e-07
0.00625789
4.46767e-07
0.00625746
4.27924e-07
0.00625705
4.10097e-07
0.00625666
3.93244e-07
0.00625628
3.77326e-07
0.00625592
3.62306e-07
0.00625557
3.48147e-07
0.00625524
3.34818e-07
0.00625491
3.22284e-07
0.0062546
3.10522e-07
0.0062543
2.9949e-07
0.00625401
2.89176e-07
0.00625373
2.7956e-07
0.00625346
2.70418e-07
0.0062532
2.62638e-07
2.52661e-07
0.00625049
-9.88699e-07
0.00625198
-2.96531e-06
0.00625445
-4.943e-06
0.00625791
-6.92357e-06
0.00626236
-8.90891e-06
0.00626781
-1.09009e-05
0.00627426
-1.29012e-05
0.00628171
-1.49113e-05
0.00629017
-1.69325e-05
0.00629965
-1.89661e-05
0.00631016
-2.10134e-05
0.00632169
-2.30753e-05
0.00633426
-2.51526e-05
0.00634788
-2.72459e-05
0.00636256
-2.93556e-05
0.0063783
-3.14819e-05
0.00639511
-3.36245e-05
0.00641299
-3.57831e-05
0.00643197
-3.7957e-05
0.00645204
-4.0145e-05
0.00647321
-4.23458e-05
0.00649549
-4.45576e-05
0.00651888
-4.67782e-05
0.00654338
-4.90052e-05
0.006569
-5.12356e-05
0.00659573
-5.34661e-05
0.00662358
-5.56931e-05
0.00665254
-5.79123e-05
0.00668261
-6.01192e-05
0.00671377
-6.2309e-05
0.00674602
-6.44764e-05
0.00677933
-6.66156e-05
0.00681371
-6.87207e-05
0.00684911
-7.07853e-05
0.00688553
-7.28028e-05
0.00692293
-7.47661e-05
0.00696128
-7.66683e-05
0.00700055
-7.85019e-05
0.0070407
-8.02594e-05
0.00708169
-8.19332e-05
0.00712348
-8.35156e-05
0.007166
-8.4999e-05
0.00720922
-8.63758e-05
0.00725307
-8.76385e-05
0.0072975
-8.87798e-05
0.00734243
-8.97928e-05
0.0073878
-9.06708e-05
0.00743354
-9.14073e-05
0.00747958
-9.19966e-05
0.00752584
-9.24331e-05
0.00757223
-9.2712e-05
0.00761869
-9.28289e-05
0.00766513
-9.278e-05
0.00771145
-9.25622e-05
0.00775758
-9.21731e-05
0.00780343
-9.16107e-05
0.00784892
-9.0874e-05
0.00789394
-8.99622e-05
0.00793843
-8.88756e-05
0.00798228
-8.76148e-05
0.00802542
-8.61811e-05
0.00806775
-8.45766e-05
0.00810919
-8.28037e-05
0.00814967
-8.08655e-05
0.0081891
-7.87658e-05
0.00822739
-7.6509e-05
0.00826448
-7.41006e-05
0.0083003
-7.15466e-05
0.00833477
-6.88547e-05
0.00836782
-6.60337e-05
0.0083994
-6.30939e-05
0.00842946
-6.00475e-05
0.00845795
-5.69085e-05
0.00848483
-5.36925e-05
0.00851007
-5.04167e-05
0.00853365
-4.70993e-05
0.00855556
-4.37593e-05
0.00857579
-4.04153e-05
0.00859436
-3.7085e-05
0.00861127
-3.3784e-05
0.00862655
-3.05254e-05
0.00864023
-2.73184e-05
0.00865232
-2.41681e-05
0.00866287
-2.10749e-05
0.00867189
-1.80345e-05
0.0086794
-1.50379e-05
0.00868543
-1.20722e-05
0.00868999
-9.12109e-06
0.00869306
-6.16621e-06
0.00869463
-3.18795e-06
0.0086947
-1.66844e-07
0.00869322
2.91468e-06
0.00869015
6.07235e-06
0.00868546
9.31799e-06
0.0086791
1.26591e-05
0.00867102
1.60984e-05
0.00866116
1.96334e-05
0.00864949
2.32567e-05
0.00863597
2.69562e-05
0.00862057
3.07153e-05
0.00860326
3.45141e-05
0.00858405
3.83296e-05
0.00856293
4.21371e-05
0.00853992
4.59106e-05
0.00851505
4.96238e-05
0.00848837
5.32511e-05
0.00845993
5.67678e-05
0.0084298
6.0151e-05
0.00839805
6.33798e-05
0.00836477
6.64359e-05
0.00833006
6.93035e-05
0.00829401
7.19692e-05
0.00825674
7.44228e-05
0.00821835
7.66562e-05
0.00817895
7.86641e-05
0.00813867
8.04433e-05
0.00809762
8.19929e-05
0.0080559
8.33137e-05
0.00801364
8.44084e-05
0.00797095
8.52811e-05
0.00792793
8.59373e-05
0.00788468
8.63835e-05
0.00784132
8.66273e-05
0.00779794
8.66772e-05
0.00775462
8.65421e-05
0.00771146
8.62316e-05
0.00766855
8.57558e-05
0.00762595
8.51249e-05
0.00758374
8.43493e-05
0.00754199
8.34397e-05
0.00750076
8.24067e-05
0.0074601
8.12608e-05
0.00742007
8.00123e-05
0.00738072
7.86715e-05
0.00734207
7.72483e-05
0.00730418
7.57524e-05
0.00726707
7.41929e-05
0.00723077
7.25789e-05
0.0071953
7.09189e-05
0.00716068
6.92209e-05
0.00712693
6.74927e-05
0.00709406
6.57413e-05
0.00706207
6.39737e-05
0.00703097
6.2196e-05
0.00700076
6.04141e-05
0.00697145
5.86334e-05
0.00694302
5.68589e-05
0.00691548
5.50951e-05
0.00688881
5.33461e-05
0.00686301
5.16156e-05
0.00683806
4.9907e-05
0.00681395
4.82232e-05
0.00679068
4.65669e-05
0.00676821
4.49403e-05
0.00674655
4.33455e-05
0.00672567
4.17842e-05
0.00670555
4.02578e-05
0.00668617
3.87675e-05
0.00666752
3.73142e-05
0.00664959
3.58987e-05
0.00663233
3.45215e-05
0.00661575
3.3183e-05
0.00659982
3.18835e-05
0.00658452
3.06228e-05
0.00656983
2.9401e-05
0.00655573
2.82179e-05
0.0065422
2.70731e-05
0.00652923
2.59662e-05
0.00651679
2.48968e-05
0.00650487
2.38642e-05
0.00649344
2.2868e-05
0.0064825
2.19072e-05
0.00647201
2.09813e-05
0.00646198
2.00895e-05
0.00645237
1.9231e-05
0.00644317
1.84048e-05
0.00643438
1.76103e-05
0.00642596
1.68465e-05
0.00641791
1.61126e-05
0.00641022
1.54077e-05
0.00640286
1.47308e-05
0.00639582
1.40812e-05
0.0063891
1.34579e-05
0.00638268
1.28602e-05
0.00637654
1.22871e-05
0.00637068
1.17377e-05
0.00636508
1.12114e-05
0.00635973
1.07072e-05
0.00635462
1.02243e-05
0.00634974
9.76202e-06
0.00634509
9.31953e-06
0.00634065
8.89609e-06
0.0063364
8.49099e-06
0.00633236
8.10351e-06
0.00632849
7.73296e-06
0.00632481
7.37868e-06
0.00632129
7.04002e-06
0.00631794
6.71636e-06
0.00631474
6.40707e-06
0.00631169
6.11158e-06
0.00630877
5.82933e-06
0.006306
5.55975e-06
0.00630335
5.30232e-06
0.00630082
5.05654e-06
0.00629842
4.8219e-06
0.00629612
4.59794e-06
0.00629393
4.3842e-06
0.00629184
4.18024e-06
0.00628985
3.98564e-06
0.00628795
3.8e-06
0.00628614
3.62291e-06
0.00628442
3.45402e-06
0.00628277
3.29296e-06
0.00628121
3.13939e-06
0.00627971
2.99297e-06
0.00627829
2.8534e-06
0.00627693
2.72036e-06
0.00627563
2.59357e-06
0.0062744
2.47275e-06
0.00627322
2.35763e-06
0.0062721
2.24796e-06
0.00627103
2.1435e-06
0.00627001
2.04401e-06
0.00626903
1.94927e-06
0.0062681
1.85907e-06
0.00626722
1.77321e-06
0.00626637
1.69148e-06
0.00626557
1.61371e-06
0.0062648
1.53972e-06
0.00626407
1.46934e-06
0.00626336
1.40241e-06
0.0062627
1.33877e-06
0.00626206
1.27829e-06
0.00626145
1.22081e-06
0.00626087
1.16622e-06
0.00626031
1.11438e-06
0.00625978
1.06517e-06
0.00625927
1.01848e-06
0.00625878
9.74207e-07
0.00625832
9.32237e-07
0.00625787
8.92477e-07
0.00625744
8.54835e-07
0.00625703
8.19223e-07
0.00625664
7.85556e-07
0.00625627
7.53757e-07
0.0062559
7.23751e-07
0.00625556
6.95468e-07
0.00625522
6.68839e-07
0.0062549
6.43806e-07
0.00625459
6.20297e-07
0.00625429
5.98295e-07
0.006254
5.77622e-07
0.00625373
5.58619e-07
0.00625346
5.40035e-07
0.00625319
5.25553e-07
5.0393e-07
0.00625049
-1.48205e-06
0.00625197
-4.44499e-06
0.00625444
-7.40961e-06
0.00625789
-1.03788e-05
0.00626234
-1.33553e-05
0.00626778
-1.63417e-05
0.00627422
-1.93407e-05
0.00628166
-2.23543e-05
0.00629012
-2.53849e-05
0.00629959
-2.84343e-05
0.00631008
-3.15043e-05
0.0063216
-3.45965e-05
0.00633416
-3.7712e-05
0.00634776
-4.08519e-05
0.00636242
-4.40166e-05
0.00637815
-4.72064e-05
0.00639494
-5.04212e-05
0.00641282
-5.36602e-05
0.00643179
-5.69225e-05
0.00645185
-6.02064e-05
0.00647301
-6.35099e-05
0.00649529
-6.68304e-05
0.00651867
-7.01646e-05
0.00654318
-7.35087e-05
0.0065688
-7.68585e-05
0.00659554
-8.0209e-05
0.0066234
-8.35546e-05
0.00665238
-8.6889e-05
0.00668247
-9.02056e-05
0.00671365
-9.3497e-05
0.00674593
-9.67551e-05
0.00677929
-9.99716e-05
0.00681371
-0.000103137
0.00684916
-0.000106242
0.00688564
-0.000109277
0.0069231
-0.000112232
0.00696153
-0.000115094
0.00700088
-0.000117854
0.00704112
-0.0001205
0.00708221
-0.00012302
0.0071241
-0.000125404
0.00716673
-0.000127638
0.00721007
-0.000129713
0.00725405
-0.000131616
0.00729861
-0.000133337
0.00734368
-0.000134865
0.0073892
-0.00013619
0.00743509
-0.000137302
0.00748129
-0.000138193
0.00752771
-0.000138854
0.00757428
-0.000139278
0.00762091
-0.000139459
0.00766752
-0.000139389
0.00771402
-0.000139066
0.00776033
-0.000138485
0.00780637
-0.000137643
0.00785203
-0.000136539
0.00789724
-0.000135172
0.00794191
-0.000133542
0.00798594
-0.00013165
0.00802926
-0.000129498
0.00807177
-0.000127089
0.00811339
-0.000124427
0.00815404
-0.000121516
0.00819364
-0.000118363
0.00823211
-0.000114974
0.00826936
-0.000111357
0.00830534
-0.000107522
0.00833996
-0.000103479
0.00837317
-9.92425e-05
0.00840491
-9.48273e-05
0.00843511
-9.02517e-05
0.00846374
-8.55366e-05
0.00849075
-8.07054e-05
0.00851612
-7.57837e-05
0.00853982
-7.07987e-05
0.00856184
-6.57787e-05
0.00858217
-6.07516e-05
0.00860083
-5.57436e-05
0.00861783
-5.07785e-05
0.00863318
-4.58755e-05
0.00864691
-4.10487e-05
0.00865905
-3.63058e-05
0.00866962
-3.16475e-05
0.00867865
-2.70677e-05
0.00868617
-2.2553e-05
0.00869218
-1.80845e-05
0.0086967
-1.36379e-05
0.00869971
-9.18592e-06
0.00870123
-4.69938e-06
0.00870121
-1.49026e-07
0.00869963
4.4907e-06
0.00869646
9.24393e-06
0.00869165
1.41282e-05
0.00868516
1.91546e-05
0.00867693
2.43274e-05
0.00866692
2.9643e-05
0.00865508
3.50902e-05
0.00864139
4.0651e-05
0.0086258
4.63007e-05
0.00860831
5.20092e-05
0.00858889
5.77424e-05
0.00856757
6.3463e-05
0.00854435
6.91319e-05
0.00851926
7.471e-05
0.00849235
8.01584e-05
0.00846368
8.54402e-05
0.00843331
9.05208e-05
0.00840132
9.5369e-05
0.0083678
9.9957e-05
0.00833284
0.000104261
0.00829655
0.000108261
0.00825903
0.000111942
0.0082204
0.000115291
0.00818076
0.0001183
0.00814024
0.000120965
0.00809895
0.000123285
0.008057
0.00012526
0.00801452
0.000126895
0.0079716
0.000128195
0.00792837
0.00012917
0.00788492
0.000129829
0.00784137
0.000130184
0.0077978
0.000130247
0.00775431
0.000130032
0.00771098
0.000129554
0.00766791
0.000128827
0.00762517
0.000127868
0.00758283
0.000126691
0.00754095
0.000125314
0.00749961
0.000123751
0.00745885
0.000122019
0.00741873
0.000120134
0.00737929
0.00011811
0.00734058
0.000115963
0.00730262
0.000113708
0.00726546
0.000111357
0.00722911
0.000108926
0.0071936
0.000106426
0.00715895
0.000103869
0.00712518
0.000101268
0.00709229
9.86324e-05
0.00706029
9.5973e-05
0.00702919
9.32992e-05
0.00699898
9.06196e-05
0.00696967
8.79424e-05
0.00694125
8.5275e-05
0.00691373
8.26241e-05
0.00688708
7.99959e-05
0.0068613
7.7396e-05
0.00683637
7.48294e-05
0.0068123
7.23004e-05
0.00678905
6.98131e-05
0.00676662
6.73707e-05
0.00674499
6.49764e-05
0.00672414
6.26327e-05
0.00670406
6.03416e-05
0.00668472
5.81049e-05
0.00666611
5.5924e-05
0.00664821
5.38001e-05
0.006631
5.17339e-05
0.00661445
4.97259e-05
0.00659856
4.77765e-05
0.0065833
4.58856e-05
0.00656864
4.40531e-05
0.00655458
4.22788e-05
0.00654109
4.05621e-05
0.00652816
3.89025e-05
0.00651576
3.7299e-05
0.00650387
3.5751e-05
0.00649248
3.42574e-05
0.00648157
3.28173e-05
0.00647112
3.14294e-05
0.00646112
3.00927e-05
0.00645154
2.88059e-05
0.00644238
2.75678e-05
0.00643361
2.6377e-05
0.00642523
2.52324e-05
0.00641721
2.41326e-05
0.00640954
2.30763e-05
0.00640221
2.20622e-05
0.0063952
2.10888e-05
0.0063885
2.0155e-05
0.0063821
1.92595e-05
0.00637599
1.84008e-05
0.00637015
1.75779e-05
0.00636457
1.67894e-05
0.00635925
1.60341e-05
0.00635416
1.53108e-05
0.0063493
1.46183e-05
0.00634467
1.39555e-05
0.00634024
1.33212e-05
0.00633602
1.27145e-05
0.00633199
1.21341e-05
0.00632814
1.15791e-05
0.00632447
1.10485e-05
0.00632097
1.05413e-05
0.00631763
1.00566e-05
0.00631444
9.59337e-06
0.0063114
9.15085e-06
0.00630851
8.72815e-06
0.00630574
8.32444e-06
0.0063031
7.93894e-06
0.00630059
7.57088e-06
0.00629819
7.21952e-06
0.00629591
6.88415e-06
0.00629373
6.56409e-06
0.00629165
6.25868e-06
0.00628967
5.96728e-06
0.00628778
5.6893e-06
0.00628598
5.42414e-06
0.00628426
5.17125e-06
0.00628262
4.93009e-06
0.00628106
4.70014e-06
0.00627957
4.48092e-06
0.00627815
4.27193e-06
0.0062768
4.07274e-06
0.00627551
3.8829e-06
0.00627428
3.702e-06
0.00627311
3.52965e-06
0.00627199
3.36545e-06
0.00627093
3.20905e-06
0.00626991
3.06009e-06
0.00626894
2.91825e-06
0.00626802
2.7832e-06
0.00626714
2.65464e-06
0.0062663
2.53228e-06
0.00626549
2.41585e-06
0.00626473
2.30507e-06
0.006264
2.1997e-06
0.0062633
2.0995e-06
0.00626264
2.00423e-06
0.006262
1.91367e-06
0.00626139
1.82763e-06
0.00626081
1.7459e-06
0.00626026
1.66828e-06
0.00625973
1.59462e-06
0.00625922
1.52472e-06
0.00625874
1.45843e-06
0.00625828
1.3956e-06
0.00625783
1.33607e-06
0.00625741
1.27972e-06
0.006257
1.22641e-06
0.00625661
1.176e-06
0.00625624
1.1284e-06
0.00625588
1.08348e-06
0.00625553
1.04114e-06
0.0062552
1.00127e-06
0.00625488
9.63797e-07
0.00625457
9.286e-07
0.00625427
8.95675e-07
0.00625399
8.64712e-07
0.00625371
8.36322e-07
0.00625344
8.08433e-07
0.00625318
7.86884e-07
7.54308e-07
0.00625049
-1.97426e-06
0.00625197
-5.92132e-06
0.00625443
-9.87065e-06
0.00625788
-1.38262e-05
0.00626231
-1.77917e-05
0.00626774
-2.17707e-05
0.00627417
-2.57664e-05
0.0062816
-2.9782e-05
0.00629003
-3.38204e-05
0.00629948
-3.78843e-05
0.00630995
-4.1976e-05
0.00632145
-4.60976e-05
0.00633399
-5.02509e-05
0.00634758
-5.44371e-05
0.00636222
-5.86569e-05
0.00637792
-6.29108e-05
0.0063947
-6.71986e-05
0.00641256
-7.15194e-05
0.00643151
-7.58719e-05
0.00645156
-8.0254e-05
0.00647271
-8.4663e-05
0.00649497
-8.90954e-05
0.00651836
-9.35471e-05
0.00654286
-9.80128e-05
0.00656849
-0.000102487
0.00659524
-0.000106963
0.00662312
-0.000111433
0.00665212
-0.00011589
0.00668224
-0.000120324
0.00671347
-0.000124725
0.0067458
-0.000129082
0.00677921
-0.000133385
0.00681369
-0.000137621
0.00684923
-0.000141777
0.00688579
-0.00014584
0.00692335
-0.000149795
0.00696189
-0.00015363
0.00700136
-0.000157327
0.00704174
-0.000160873
0.00708297
-0.000164252
0.00712501
-0.000167448
0.00716782
-0.000170445
0.00721134
-0.000173229
0.0072555
-0.000175784
0.00730026
-0.000178096
0.00734555
-0.000180149
0.00739129
-0.000181931
0.00743741
-0.000183428
0.00748385
-0.000184629
0.00753052
-0.000185522
0.00757733
-0.000186098
0.00762422
-0.000186347
0.0076711
-0.000186263
0.00771787
-0.000185838
0.00776445
-0.000185069
0.00781076
-0.00018395
0.0078567
-0.00018248
0.00790219
-0.000180658
0.00794713
-0.000178483
0.00799144
-0.000175959
0.00803502
-0.000173086
0.00807781
-0.00016987
0.00811969
-0.000166316
0.00816061
-0.00016243
0.00820046
-0.000158219
0.00823918
-0.000153693
0.00827669
-0.000148862
0.0083129
-0.00014374
0.00834777
-0.000138341
0.00838121
-0.000132682
0.00841316
-0.000126784
0.00844358
-0.000120672
0.00847242
-0.000114373
0.00849963
-0.000107918
0.00852519
-0.000101341
0.00854907
-9.4678e-05
0.00857126
-8.79661e-05
0.00859175
-8.12425e-05
0.00861055
-7.45422e-05
0.00862766
-6.78965e-05
0.00864312
-6.13312e-05
0.00865694
-5.48652e-05
0.00866914
-4.85089e-05
0.00867976
-4.22635e-05
0.00868881
-3.61213e-05
0.00869632
-3.0065e-05
0.00870231
-2.40696e-05
0.00870677
-1.81037e-05
0.00870972
-1.21309e-05
0.00871113
-6.11297e-06
0.00871099
-1.0899e-08
0.00870928
6.20819e-06
0.00870594
1.25772e-05
0.00870095
1.91192e-05
0.00869426
2.58491e-05
0.00868581
3.27723e-05
0.00867557
3.98843e-05
0.00866349
4.71704e-05
0.00864953
5.46066e-05
0.00863367
6.21602e-05
0.00861589
6.97912e-05
0.00859618
7.7454e-05
0.00857455
8.5099e-05
0.008551
9.26742e-05
0.00852559
0.000100127
0.00849834
0.000107406
0.00846932
0.000114461
0.00843859
0.000121246
0.00840624
0.000127719
0.00837236
0.000133844
0.00833703
0.000139587
0.00830037
0.000144924
0.00826248
0.000149832
0.00822347
0.000154295
0.00818347
0.000158303
0.00814259
0.00016185
0.00810094
0.000164933
0.00805864
0.000167555
0.00801582
0.000169721
0.00797257
0.000171439
0.00792902
0.000172721
0.00788527
0.000173581
0.00784142
0.000174033
0.00779757
0.000174095
0.00775382
0.000173786
0.00771025
0.000173125
0.00766695
0.000172131
0.00762399
0.000170827
0.00758144
0.000169234
0.00753939
0.000167372
0.00749787
0.000165264
0.00745696
0.000162931
0.0074167
0.000160393
0.00737714
0.000157672
0.00733832
0.000154787
0.00730027
0.000151758
0.00726302
0.000148603
0.00722661
0.000145341
0.00719104
0.000141989
0.00715635
0.000138562
0.00712254
0.000135077
0.00708963
0.000131547
0.00705761
0.000127987
0.0070265
0.000124408
0.0069963
0.000120823
0.006967
0.000117241
0.0069386
0.000113674
0.0069111
0.00011013
0.00688447
0.000106617
0.00685873
0.000103143
0.00683384
9.97139e-05
0.00680981
9.63359e-05
0.00678661
9.30141e-05
0.00676422
8.9753e-05
0.00674264
8.65567e-05
0.00672185
8.34283e-05
0.00670182
8.03708e-05
0.00668254
7.73863e-05
0.00666398
7.44768e-05
0.00664614
7.16437e-05
0.00662899
6.88879e-05
0.0066125
6.62102e-05
0.00659667
6.36108e-05
0.00658146
6.10899e-05
0.00656687
5.86471e-05
0.00655287
5.62821e-05
0.00653943
5.39941e-05
0.00652655
5.17824e-05
0.00651421
4.96458e-05
0.00650238
4.75833e-05
0.00649104
4.55935e-05
0.00648018
4.36749e-05
0.00646978
4.18263e-05
0.00645983
4.00458e-05
0.00645031
3.8332e-05
0.00644119
3.66832e-05
0.00643247
3.50976e-05
0.00642413
3.35735e-05
0.00641615
3.21092e-05
0.00640853
3.07028e-05
0.00640123
2.93526e-05
0.00639427
2.80569e-05
0.00638761
2.68139e-05
0.00638125
2.56218e-05
0.00637517
2.44789e-05
0.00636936
2.33836e-05
0.00636382
2.23341e-05
0.00635852
2.13289e-05
0.00635347
2.03663e-05
0.00634864
1.94448e-05
0.00634403
1.85628e-05
0.00633964
1.77189e-05
0.00633544
1.69115e-05
0.00633143
1.61393e-05
0.00632761
1.54009e-05
0.00632396
1.46949e-05
0.00632049
1.40201e-05
0.00631717
1.33752e-05
0.006314
1.2759e-05
0.00631098
1.21703e-05
0.0063081
1.1608e-05
0.00630536
1.10709e-05
0.00630274
1.05581e-05
0.00630024
1.00685e-05
0.00629786
9.60115e-06
0.00629559
9.15506e-06
0.00629342
8.72933e-06
0.00629136
8.3231e-06
0.00628939
7.93552e-06
0.00628751
7.56578e-06
0.00628572
7.21311e-06
0.00628402
6.87676e-06
0.00628239
6.55602e-06
0.00628084
6.25019e-06
0.00627936
5.95862e-06
0.00627796
5.68068e-06
0.00627661
5.41577e-06
0.00627533
5.1633e-06
0.00627411
4.92272e-06
0.00627295
4.69351e-06
0.00627184
4.47515e-06
0.00627078
4.26715e-06
0.00626977
4.06906e-06
0.00626881
3.88043e-06
0.00626789
3.70084e-06
0.00626702
3.52988e-06
0.00626618
3.36717e-06
0.00626538
3.21234e-06
0.00626462
3.06503e-06
0.0062639
2.92491e-06
0.00626321
2.79166e-06
0.00626255
2.66497e-06
0.00626191
2.54456e-06
0.00626131
2.43014e-06
0.00626074
2.32145e-06
0.00626019
2.21825e-06
0.00625966
2.12029e-06
0.00625916
2.02735e-06
0.00625868
1.9392e-06
0.00625822
1.85565e-06
0.00625778
1.7765e-06
0.00625736
1.70157e-06
0.00625695
1.63068e-06
0.00625656
1.56366e-06
0.00625619
1.50036e-06
0.00625583
1.44063e-06
0.00625549
1.38433e-06
0.00625516
1.33132e-06
0.00625484
1.28149e-06
0.00625454
1.23469e-06
0.00625424
1.19092e-06
0.00625396
1.14974e-06
0.00625368
1.11202e-06
0.00625341
1.07491e-06
0.00625316
1.0463e-06
1.00293e-06
0.00625049
-2.46496e-06
0.00625196
-7.3931e-06
0.00625442
-1.23241e-05
0.00625785
-1.72632e-05
0.00626228
-2.22149e-05
0.00626769
-2.71836e-05
0.0062741
-3.21736e-05
0.0062815
-3.71889e-05
0.00628992
-4.22331e-05
0.00629934
-4.73096e-05
0.00630979
-5.24216e-05
0.00632126
-5.75716e-05
0.00633377
-6.27619e-05
0.00634733
-6.7994e-05
0.00636194
-7.32691e-05
0.00637762
-7.85878e-05
0.00639437
-8.39497e-05
0.0064122
-8.93541e-05
0.00643113
-9.47991e-05
0.00645116
-0.000100282
0.0064723
-0.000105801
0.00649455
-0.000111349
0.00651793
-0.000116924
0.00654243
-0.000122517
0.00656807
-0.000128122
0.00659483
-0.000133731
0.00662274
-0.000139335
0.00665177
-0.000144922
0.00668193
-0.000150483
0.00671321
-0.000156004
0.0067456
-0.000161472
0.00677909
-0.000166874
0.00681366
-0.000172193
0.00684929
-0.000177413
0.00688597
-0.000182518
0.00692367
-0.00018749
0.00696235
-0.000192311
0.00700198
-0.000196962
0.00704253
-0.000201424
0.00708396
-0.000205676
0.00712621
-0.000209701
0.00716924
-0.000213477
0.007213
-0.000216985
0.00725742
-0.000220207
0.00730245
-0.000223123
0.00734802
-0.000225716
0.00739405
-0.000227967
0.00744049
-0.000229862
0.00748724
-0.000231384
0.00753424
-0.00023252
0.0075814
-0.000233256
0.00762863
-0.000233583
0.00767586
-0.00023349
0.00772299
-0.00023297
0.00776994
-0.000232015
0.00781661
-0.000230622
0.00786292
-0.000228788
0.00790877
-0.000226511
0.00795408
-0.000223793
0.00799876
-0.000220634
0.00804271
-0.000217038
0.00808585
-0.000213012
0.0081281
-0.000208561
0.00816936
-0.000203693
0.00820956
-0.000198419
0.00824862
-0.00019275
0.00828645
-0.000186698
0.00832299
-0.000180282
0.00835817
-0.000173518
0.00839192
-0.000166428
0.00842417
-0.00015904
0.00845488
-0.000151382
0.008484
-0.000143488
0.00851148
-0.000135398
0.00853729
-0.000127153
0.00856141
-0.000118797
0.00858382
-0.000110378
0.00860452
-0.00010194
0.00862351
-9.35283e-05
0.00864079
-8.51805e-05
0.00865639
-7.69293e-05
0.00867032
-6.87983e-05
0.00868261
-6.0801e-05
0.00869329
-5.29395e-05
0.00870237
-4.52044e-05
0.00870988
-3.75751e-05
0.00871583
-3.00212e-05
0.00872023
-2.25038e-05
0.00872308
-1.49786e-05
0.00872437
-7.39848e-06
0.00872407
2.85796e-07
0.00872217
8.11243e-06
0.00871862
1.61248e-05
0.00871339
2.43504e-05
0.00870643
3.2808e-05
0.0086977
4.15046e-05
0.00868715
5.04346e-05
0.00867474
5.958e-05
0.00866043
6.89109e-05
0.0086442
7.83865e-05
0.00862604
8.79572e-05
0.00860593
9.7566e-05
0.00858388
0.000107151
0.0085599
0.000116647
0.00853404
0.000125987
0.00850634
0.000135109
0.00847685
0.000143948
0.00844565
0.000152447
0.00841282
0.000160554
0.00837844
0.000168221
0.00834262
0.000175409
0.00830546
0.000182084
0.00826707
0.000188219
0.00822757
0.000193795
0.00818708
0.000198797
0.00814571
0.000203219
0.00810358
0.000207058
0.00806082
0.000210317
0.00801754
0.000213001
0.00797385
0.000215124
0.00792988
0.000216698
0.00788572
0.000217741
0.00784148
0.000218273
0.00779726
0.000218316
0.00775315
0.000217892
0.00770925
0.000217027
0.00766563
0.000215746
0.00762238
0.000214076
0.00757957
0.000212044
0.00753727
0.000209677
0.00749553
0.000207002
0.00745442
0.000204046
0.00741397
0.000200836
0.00737425
0.000197397
0.00733528
0.000193754
0.00729711
0.000189933
0.00725975
0.000185956
0.00722325
0.000181847
0.00718761
0.000177626
0.00715286
0.000173314
0.00711901
0.00016893
0.00708606
0.000164493
0.00705403
0.000160018
0.00702291
0.000155523
0.00699271
0.000151021
0.00696343
0.000146526
0.00693505
0.00014205
0.00690758
0.000137605
0.006881
0.0001332
0.00685529
0.000128845
0.00683046
0.000124547
0.00680648
0.000120315
0.00678334
0.000116154
0.00676102
0.00011207
0.00673951
0.000108069
0.00671879
0.000104153
0.00669883
0.000100327
0.00667962
9.65927e-05
0.00666115
9.29531e-05
0.00664338
8.94098e-05
0.00662631
8.59638e-05
0.0066099
8.26159e-05
0.00659415
7.93666e-05
0.00657902
7.62158e-05
0.0065645
7.31632e-05
0.00655058
7.02082e-05
0.00653722
6.73498e-05
0.00652442
6.4587e-05
0.00651214
6.19185e-05
0.00650038
5.93427e-05
0.00648912
5.68581e-05
0.00647833
5.44627e-05
0.006468
5.21548e-05
0.00645812
4.99323e-05
0.00644866
4.77932e-05
0.0064396
4.57353e-05
0.00643094
4.37566e-05
0.00642266
4.18548e-05
0.00641475
4.00277e-05
0.00640717
3.8273e-05
0.00639994
3.65886e-05
0.00639302
3.49722e-05
0.00638642
3.34217e-05
0.0063801
3.19348e-05
0.00637407
3.05094e-05
0.00636831
2.91434e-05
0.00636281
2.78346e-05
0.00635756
2.65811e-05
0.00635255
2.53808e-05
0.00634776
2.42318e-05
0.00634319
2.31321e-05
0.00633883
2.20799e-05
0.00633467
2.10734e-05
0.00633069
2.01107e-05
0.00632691
1.91902e-05
0.00632329
1.83102e-05
0.00631984
1.7469e-05
0.00631655
1.66652e-05
0.00631341
1.58971e-05
0.00631042
1.51634e-05
0.00630757
1.44625e-05
0.00630484
1.37932e-05
0.00630225
1.31541e-05
0.00629977
1.25439e-05
0.00629741
1.19615e-05
0.00629516
1.14056e-05
0.00629302
1.08751e-05
0.00629097
1.03689e-05
0.00628902
9.88591e-06
0.00628716
9.4252e-06
0.00628539
8.98576e-06
0.0062837
8.56667e-06
0.00628209
8.16703e-06
0.00628055
7.78598e-06
0.00627909
7.4227e-06
0.00627769
7.07641e-06
0.00627636
6.74636e-06
0.00627509
6.43181e-06
0.00627388
6.13209e-06
0.00627273
5.84652e-06
0.00627163
5.57448e-06
0.00627058
5.31536e-06
0.00626958
5.06858e-06
0.00626863
4.83359e-06
0.00626772
4.60986e-06
0.00626685
4.39688e-06
0.00626603
4.19419e-06
0.00626524
4.0013e-06
0.00626448
3.81779e-06
0.00626377
3.64325e-06
0.00626308
3.47725e-06
0.00626243
3.31944e-06
0.0062618
3.16944e-06
0.0062612
3.02692e-06
0.00626063
2.89153e-06
0.00626009