/*--------------------------------*- C++ -*----------------------------------*\
| =========                 |                                                 |
| \\      /  F ield         | OpenFOAM: The Open Source CFD Toolbox           |
|  \\    /   O peration     | Version:  2306                                  |
|   \\  /    A nd           | Website:  www.openfoam.com                      |
|    \\/     M anipulation  |                                                 |
\*---------------------------------------------------------------------------*/
FoamFile
{
    version     2.0;
    format      ascii;
    arch        "LSB;label=32;scalar=64";
    class       volScalarField;
    location    "2.5";
    object      T;
}
// * * * * * * * * * * * * * * * * * * * * * * * * * * * * * * * * * * * * * //

dimensions      [0 0 0 1 0 0 0];

internalField   nonuniform List<scalar> 
32768
(
300
300
300
300
300
300
300
300
299.999
299.999
299.999
299.998
299.998
299.997
299.996
299.995
299.993
299.991
299.988
299.984
299.98
299.974
299.967
299.958
299.947
299.934
299.917
299.897
299.873
299.843
299.808
299.765
299.715
299.655
299.584
299.501
299.403
299.289
299.157
299.004
298.827
298.624
298.391
298.126
297.824
297.482
297.095
296.66
296.171
295.625
295.015
294.338
293.586
292.755
291.84
290.833
289.73
288.523
287.208
285.778
284.227
282.548
280.737
278.788
276.694
274.451
272.055
269.499
266.782
263.898
260.844
257.619
254.221
250.648
246.901
242.979
238.884
234.619
230.185
225.588
220.832
215.923
210.868
205.673
200.347
194.9
189.34
183.678
177.925
172.092
166.191
160.235
154.235
148.206
142.159
136.109
130.069
124.053
118.075
112.15
106.291
100.511
94.826
89.2481
83.7907
78.4667
73.288
68.2662
63.4119
58.7346
54.243
49.9446
45.8454
41.9505
38.2633
34.786
31.5193
28.4624
25.6134
22.9688
20.5243
18.274
16.2113
14.3286
12.6176
11.0694
9.67469
8.42367
7.30651
6.3133
5.43421
4.65956
3.97997
3.38641
2.87029
2.42348
2.03837
1.70789
1.42553
1.18532
0.981858
0.810249
0.666124
0.54559
0.445208
0.361955
0.293192
0.236627
0.190285
0.15247
0.121735
0.0968524
0.0767856
0.0606648
0.0477633
0.0374769
0.0293062
0.0228398
0.0177409
0.0137348
0.0105985
0.00815183
0.00624978
0.00477624
0.00363858
0.00276321
0.00209191
0.00157881
0.00118792
0.000891104
0.000666439
0.000496931
0.00036944
0.000273853
0.000202406
0.000149168
0.000109618
8.03248e-05
5.86937e-05
4.27677e-05
3.10764e-05
2.25189e-05
1.62731e-05
1.17277e-05
8.42905e-06
6.04198e-06
4.31938e-06
3.07974e-06
2.19009e-06
1.55337e-06
1.09891e-06
7.75399e-07
5.45728e-07
3.83107e-07
2.68264e-07
1.87375e-07
1.30549e-07
9.07301e-08
6.28996e-08
4.34966e-08
3.00014e-08
2.06351e-08
1.41434e-08
9.64107e-09
6.49885e-09
4.25862e-09
2.56504e-09
1.10127e-09
-4.87034e-10
-2.70393e-09
-6.39482e-09
-1.30966e-08
-2.56965e-08
-4.96829e-08
-9.5531e-08
-1.83254e-07
-3.5109e-07
-6.72067e-07
-1.2856e-06
-2.45768e-06
-4.6956e-06
-8.96637e-06
-1.71124e-05
-3.26425e-05
-6.22364e-05
-0.000118604
-0.000225923
-0.000430161
-0.000818692
-0.00155752
-0.00296197
-0.00563074
-0.0107003
-0.0203269
-0.0386015
-0.073282
-0.139077
-0.263865
-0.500475
-0.94899
-1.79896
-3.40933
-6.45957
-12.2358
-23.1716
-43.8711
-83.0428
-157.156
-297.348
-562.484
-1063.82
-2011.58
-3802.97
-7188.3
-13584.7
-25667.9
300
300
300
300
300
300
300
300
299.999
299.999
299.999
299.998
299.998
299.997
299.996
299.995
299.993
299.991
299.988
299.984
299.98
299.974
299.967
299.958
299.947
299.934
299.917
299.897
299.872
299.843
299.807
299.765
299.714
299.654
299.584
299.5
299.403
299.289
299.156
299.003
298.826
298.623
298.39
298.124
297.822
297.48
297.093
296.658
296.169
295.623
295.013
294.335
293.583
292.752
291.837
290.83
289.726
288.52
287.205
285.775
284.224
282.546
280.735
278.786
276.693
274.451
272.055
269.501
266.784
263.902
260.85
257.626
254.23
250.659
246.913
242.993
238.9
234.637
230.206
225.611
220.857
215.95
210.897
205.705
200.381
194.936
189.378
183.718
177.967
172.135
166.236
160.281
154.282
148.253
142.207
136.157
130.117
124.101
118.123
112.197
106.337
100.557
94.8699
89.2905
83.8316
78.5057
73.3252
68.3014
63.445
58.7656
54.2718
49.9712
45.8699
41.9728
38.2836
34.8042
31.5355
28.4768
25.6261
22.9799
20.5339
18.2822
16.2183
14.3345
12.6225
11.0735
9.67797
8.4263
7.30858
6.3149
5.43541
4.66043
3.98058
3.38682
2.87053
2.42359
2.03839
1.70784
1.42543
1.1852
0.981712
0.810096
0.665971
0.545443
0.44507
0.361829
0.293077
0.236526
0.190196
0.152393
0.121668
0.0967955
0.0767375
0.0606245
0.0477297
0.0374492
0.0292835
0.0228213
0.0177259
0.0137227
0.0105888
0.00814408
0.00624363
0.00477139
0.00363477
0.00276022
0.00208958
0.00157701
0.00118653
0.000890034
0.00066562
0.000496306
0.000368966
0.000273493
0.000202135
0.000148964
0.000109465
8.02111e-05
5.86091e-05
4.2705e-05
3.10301e-05
2.24848e-05
1.62481e-05
1.17094e-05
8.41574e-06
6.0323e-06
4.31237e-06
3.07467e-06
2.18644e-06
1.55075e-06
1.09703e-06
7.74061e-07
5.44775e-07
3.8243e-07
2.67786e-07
1.87037e-07
1.30311e-07
9.05632e-08
6.27827e-08
4.3415e-08
2.99446e-08
2.05956e-08
1.41161e-08
9.62217e-09
6.48582e-09
4.24965e-09
2.55888e-09
1.09704e-09
-4.89946e-10
-2.70596e-09
-6.39625e-09
-1.30977e-08
-2.56973e-08
-4.96835e-08
-9.55314e-08
-1.83254e-07
-3.51088e-07
-6.72061e-07
-1.28558e-06
-2.45764e-06
-4.69553e-06
-8.9662e-06
-1.7112e-05
-3.26418e-05
-6.22348e-05
-0.000118601
-0.000225916
-0.000430148
-0.000818665
-0.00155747
-0.00296187
-0.00563053
-0.0106998
-0.0203261
-0.0385999
-0.0732789
-0.139071
-0.263853
-0.500453
-0.948946
-1.79888
-3.40916
-6.45926
-12.2352
-23.1704
-43.8689
-83.0386
-157.148
-297.333
-562.456
-1063.76
-2011.48
-3802.79
-7187.98
-13584.1
-25667.1
300
300
300
300
300
300
300
300
299.999
299.999
299.999
299.998
299.998
299.997
299.996
299.995
299.993
299.991
299.988
299.984
299.98
299.974
299.967
299.958
299.947
299.934
299.917
299.897
299.872
299.843
299.807
299.765
299.714
299.654
299.583
299.5
299.402
299.288
299.155
299.002
298.825
298.622
298.389
298.123
297.821
297.478
297.091
296.656
296.167
295.62
295.01
294.332
293.58
292.75
291.834
290.827
289.724
288.518
287.204
285.775
284.225
282.548
280.738
278.791
276.699
274.459
272.066
269.514
266.8
263.92
260.872
257.652
254.259
250.692
246.951
243.035
238.947
234.689
230.263
225.673
220.925
216.023
210.975
205.787
200.469
195.028
189.475
183.819
178.071
172.244
166.347
160.395
154.398
148.371
142.326
136.277
130.237
124.221
118.242
112.314
106.452
100.669
94.9797
89.397
83.9344
78.6046
73.4198
68.3914
63.5302
58.8459
54.3471
50.0413
45.9349
42.0328
38.3386
34.8544
31.581
28.5178
25.6628
23.0127
20.5629
18.3077
16.2406
14.3539
12.6393
11.0878
9.69018
8.43661
7.31724
6.32212
5.44138
4.66534
3.98458
3.39005
2.87312
2.42565
2.04
1.7091
1.4264
1.18593
0.982263
0.810503
0.666266
0.545652
0.445214
0.361923
0.293137
0.236559
0.190212
0.152397
0.121665
0.0967869
0.0767264
0.0606123
0.0477176
0.0374377
0.0292729
0.0228119
0.0177177
0.0137157
0.0105829
0.00813912
0.00623954
0.00476805
0.00363206
0.00275805
0.00208785
0.00157564
0.00118546
0.000889192
0.000664965
0.000495799
0.000368576
0.000273195
0.000201908
0.000148792
0.000109335
8.01133e-05
5.8536e-05
4.26505e-05
3.09897e-05
2.24548e-05
1.6226e-05
1.16932e-05
8.40387e-06
6.02366e-06
4.30609e-06
3.07012e-06
2.18316e-06
1.54839e-06
1.09534e-06
7.72849e-07
5.43911e-07
3.81816e-07
2.67351e-07
1.8673e-07
1.30095e-07
9.04111e-08
6.26762e-08
4.33406e-08
2.98928e-08
2.05597e-08
1.40911e-08
9.60493e-09
6.47392e-09
4.24144e-09
2.55319e-09
1.09303e-09
-4.92891e-10
-2.70834e-09
-6.39855e-09
-1.31004e-08
-2.57013e-08
-4.969e-08
-9.55426e-08
-1.83274e-07
-3.51122e-07
-6.72121e-07
-1.28568e-06
-2.45782e-06
-4.69583e-06
-8.96673e-06
-1.71129e-05
-3.26433e-05
-6.22373e-05
-0.000118605
-0.000225923
-0.000430158
-0.00081868
-0.00155749
-0.0029619
-0.00563056
-0.0106999
-0.0203261
-0.0385997
-0.0732782
-0.139069
-0.263849
-0.500443
-0.948925
-1.79883
-3.40907
-6.45908
-12.2348
-23.1697
-43.8673
-83.0357
-157.142
-297.322
-562.434
-1063.72
-2011.4
-3802.64
-7187.72
-13583.7
-25666.4
300
300
300
300
300
300
300
300
299.999
299.999
299.999
299.998
299.998
299.997
299.996
299.995
299.993
299.991
299.988
299.984
299.98
299.974
299.967
299.958
299.947
299.933
299.917
299.897
299.872
299.842
299.807
299.764
299.714
299.654
299.583
299.499
299.401
299.287
299.154
299.001
298.823
298.62
298.387
298.121
297.818
297.475
297.088
296.653
296.164
295.617
295.007
294.329
293.577
292.746
291.831
290.825
289.723
288.518
287.204
285.776
284.227
282.552
280.745
278.8
276.712
274.475
272.085
269.537
266.827
263.952
260.909
257.695
254.308
250.748
247.013
243.105
239.024
234.773
230.355
225.773
221.032
216.139
211.098
205.919
200.608
195.174
189.628
183.978
178.237
172.414
166.523
160.574
154.581
148.556
142.513
136.465
130.426
124.409
118.428
112.499
106.634
100.847
95.1533
89.5656
84.0974
78.7614
73.5699
68.5345
63.6659
58.9739
54.4673
50.1536
46.0393
42.1293
38.4272
34.9355
31.6547
28.5845
25.7227
23.0662
20.6105
18.3498
16.2775
14.3861
12.6672
11.1119
9.71084
8.45421
7.33214
6.33464
5.45184
4.67402
3.99173
3.3959
2.87788
2.42949
2.04309
1.71155
1.42834
1.18745
0.98344
0.811408
0.666956
0.546173
0.445603
0.36221
0.293345
0.236709
0.190317
0.152468
0.121712
0.0968175
0.0767448
0.0606224
0.047722
0.0374384
0.0292714
0.0228091
0.0177144
0.0137122
0.0105795
0.00813603
0.00623679
0.00476566
0.00363004
0.00275636
0.00208646
0.0015745
0.00118454
0.00088846
0.000664386
0.000495344
0.000368221
0.00027292
0.000201697
0.00014863
0.000109212
8.00198e-05
5.84655e-05
4.25976e-05
3.09502e-05
2.24255e-05
1.62043e-05
1.16772e-05
8.3921e-06
6.01504e-06
4.29981e-06
3.06556e-06
2.17986e-06
1.54601e-06
1.09363e-06
7.71624e-07
5.43037e-07
3.81194e-07
2.66909e-07
1.86418e-07
1.29875e-07
9.02565e-08
6.25678e-08
4.32648e-08
2.984e-08
2.0523e-08
1.40657e-08
9.58734e-09
6.46176e-09
4.23302e-09
2.54729e-09
1.08877e-09
-4.96203e-10
-2.71134e-09
-6.40193e-09
-1.31052e-08
-2.57089e-08
-4.97031e-08
-9.55656e-08
-1.83315e-07
-3.51196e-07
-6.72252e-07
-1.28592e-06
-2.45824e-06
-4.69657e-06
-8.96804e-06
-1.71153e-05
-3.26474e-05
-6.22444e-05
-0.000118618
-0.000225944
-0.000430195
-0.000818745
-0.0015576
-0.00296209
-0.00563088
-0.0107004
-0.020327
-0.0386011
-0.0732805
-0.139073
-0.263854
-0.500451
-0.948935
-1.79885
-3.40908
-6.45906
-12.2347
-23.1694
-43.8668
-83.0344
-157.139
-297.316
-562.421
-1063.7
-2011.35
-3802.55
-7187.54
-13583.4
-25665.7
300
300
300
300
300
300
300
300
299.999
299.999
299.999
299.998
299.998
299.997
299.996
299.995
299.993
299.991
299.988
299.984
299.98
299.974
299.967
299.958
299.947
299.933
299.917
299.896
299.872
299.842
299.807
299.764
299.713
299.653
299.582
299.498
299.4
299.286
299.153
298.999
298.822
298.618
298.384
298.118
297.815
297.472
297.085
296.649
296.16
295.613
295.003
294.325
293.573
292.743
291.828
290.823
289.721
288.517
287.205
285.779
284.232
282.56
280.755
278.813
276.729
274.496
272.111
269.569
266.865
263.996
260.96
257.754
254.375
250.823
247.098
243.199
239.128
234.887
230.48
225.908
221.179
216.296
211.266
206.097
200.796
195.372
189.835
184.194
178.461
172.645
166.76
160.817
154.829
148.808
142.767
136.72
130.681
124.664
118.682
112.749
106.88
101.089
95.3894
89.795
84.3192
78.9749
73.7745
68.7297
63.8511
59.1488
54.6317
50.3073
46.1822
42.2615
38.549
35.0469
31.7562
28.6763
25.8054
23.1402
20.6763
18.4081
16.3288
14.431
12.7062
11.1456
9.73979
8.47893
7.35311
6.35234
5.46667
4.68637
4.00196
3.40431
2.88475
2.43507
2.04758
1.71515
1.4312
1.18971
0.985216
0.812791
0.668024
0.546991
0.446224
0.362678
0.293694
0.236966
0.190505
0.152604
0.121808
0.0968844
0.0767905
0.0606528
0.0477415
0.0374504
0.0292781
0.0228124
0.0177154
0.0137119
0.0105784
0.00813455
0.00623518
0.00476408
0.00362857
0.00275506
0.00208533
0.00157355
0.00118375
0.000887813
0.000663862
0.000494926
0.00036789
0.00027266
0.000201494
0.000148473
0.000109092
7.99281e-05
5.83959e-05
4.25451e-05
3.09107e-05
2.2396e-05
1.61824e-05
1.1661e-05
8.38016e-06
6.00628e-06
4.29341e-06
3.0609e-06
2.17648e-06
1.54357e-06
1.09187e-06
7.70365e-07
5.42137e-07
3.80553e-07
2.66454e-07
1.86096e-07
1.29647e-07
9.00966e-08
6.24557e-08
4.31865e-08
2.97854e-08
2.0485e-08
1.40394e-08
9.56912e-09
6.44915e-09
4.22425e-09
2.5411e-09
1.08421e-09
-4.99919e-10
-2.71497e-09
-6.4064e-09
-1.31118e-08
-2.572e-08
-4.97226e-08
-9.56004e-08
-1.83377e-07
-3.51308e-07
-6.72454e-07
-1.28628e-06
-2.45889e-06
-4.69774e-06
-8.97012e-06
-1.7119e-05
-3.26539e-05
-6.22561e-05
-0.000118638
-0.000225981
-0.00043026
-0.000818858
-0.0015578
-0.00296243
-0.00563148
-0.0107014
-0.0203287
-0.0386042
-0.0732857
-0.139081
-0.263869
-0.500475
-0.948974
-1.79891
-3.40918
-6.45921
-12.2349
-23.1697
-43.8671
-83.0346
-157.139
-297.315
-562.417
-1063.68
-2011.32
-3802.49
-7187.41
-13583.1
-25665.1
300
300
300
300
300
300
300
300
299.999
299.999
299.999
299.998
299.998
299.997
299.996
299.995
299.993
299.991
299.988
299.984
299.98
299.974
299.967
299.958
299.947
299.933
299.917
299.896
299.872
299.842
299.806
299.763
299.713
299.652
299.581
299.497
299.399
299.284
299.151
298.997
298.819
298.615
298.381
298.115
297.812
297.468
297.081
296.644
296.155
295.608
294.998
294.32
293.569
292.739
291.824
290.82
289.719
288.516
287.206
285.782
284.238
282.568
280.768
278.83
276.75
274.523
272.144
269.608
266.911
264.051
261.023
257.826
254.458
250.917
247.203
243.316
239.257
235.029
230.634
226.077
221.36
216.491
211.474
206.318
201.03
195.618
190.093
184.463
178.74
172.934
167.057
161.121
155.138
149.121
143.084
137.04
131.001
124.983
118.999
113.063
107.19
101.393
95.6859
90.0832
84.5982
79.2437
74.0322
68.9756
64.0847
59.3695
54.8392
50.5015
46.3629
42.4288
38.703
35.188
31.8847
28.7928
25.9103
23.2342
20.7601
18.4822
16.3941
14.4881
12.756
11.1887
9.7768
8.51057
7.38
6.37504
5.48574
4.70228
4.01515
3.41518
2.89365
2.44231
2.05344
1.71986
1.43496
1.19269
0.987561
0.814624
0.669448
0.548088
0.447064
0.363315
0.294173
0.237324
0.190769
0.152797
0.121948
0.0969841
0.0768606
0.0607013
0.0477744
0.0374721
0.029292
0.0228208
0.0177202
0.0137142
0.0105792
0.00813439
0.00623449
0.00476314
0.00362754
0.00275405
0.0020844
0.00157273
0.00118304
0.000887217
0.000663371
0.000494526
0.000367569
0.000272406
0.000201294
0.000148317
0.000108971
7.98353e-05
5.83251e-05
4.24914e-05
3.08703e-05
2.23657e-05
1.61598e-05
1.16442e-05
8.36777e-06
5.99717e-06
4.28674e-06
3.05604e-06
2.17295e-06
1.54102e-06
1.09003e-06
7.69044e-07
5.41192e-07
3.7988e-07
2.65976e-07
1.85757e-07
1.29408e-07
8.99285e-08
6.23378e-08
4.3104e-08
2.97279e-08
2.04451e-08
1.40117e-08
9.54995e-09
6.43587e-09
4.215e-09
2.53452e-09
1.07927e-09
-5.0408e-10
-2.71925e-09
-6.41197e-09
-1.31205e-08
-2.57346e-08
-4.97484e-08
-9.56467e-08
-1.83461e-07
-3.51459e-07
-6.72725e-07
-1.28677e-06
-2.45977e-06
-4.69932e-06
-8.97295e-06
-1.7124e-05
-3.2663e-05
-6.22723e-05
-0.000118667
-0.000226032
-0.000430351
-0.000819019
-0.00155809
-0.00296293
-0.00563236
-0.010703
-0.0203314
-0.0386088
-0.0732937
-0.139095
-0.263893
-0.500515
-0.949042
-1.79902
-3.40936
-6.45951
-12.2354
-23.1705
-43.8683
-83.0364
-157.141
-297.318
-562.42
-1063.69
-2011.32
-3802.46
-7187.33
-13582.9
-25664.6
300
300
300
300
300
300
300
300
299.999
299.999
299.999
299.998
299.998
299.997
299.996
299.995
299.993
299.991
299.988
299.984
299.98
299.974
299.967
299.958
299.947
299.933
299.916
299.896
299.871
299.841
299.806
299.763
299.712
299.651
299.58
299.496
299.397
299.282
299.149
298.995
298.817
298.612
298.378
298.111
297.807
297.464
297.076
296.639
296.149
295.602
294.992
294.314
293.562
292.733
291.819
290.815
289.716
288.515
287.207
285.785
284.244
282.578
280.781
278.848
276.774
274.553
272.18
269.652
266.965
264.114
261.097
257.91
254.554
251.025
247.325
243.452
239.408
235.195
230.816
226.274
221.573
216.72
211.719
206.579
201.306
195.909
190.397
184.781
179.07
173.275
167.408
161.48
155.505
149.494
143.462
137.42
131.383
125.364
119.378
113.438
107.559
101.755
96.0404
90.4281
84.9322
79.5657
74.3412
69.2706
64.365
59.6346
55.0886
50.7349
46.5803
42.6301
38.8885
35.358
32.0396
28.9332
26.0369
23.3477
20.8611
18.5718
16.473
14.5572
12.8161
11.2407
9.82161
8.54889
7.41258
6.40258
5.50887
4.72159
4.03117
3.4284
2.90449
2.45114
2.06058
1.72561
1.43955
1.19633
0.990437
0.816878
0.671201
0.549443
0.448103
0.364106
0.294771
0.237772
0.191101
0.153042
0.122126
0.0971126
0.076952
0.0607654
0.0478186
0.037502
0.0293118
0.0228334
0.0177279
0.0137186
0.0105814
0.00813519
0.00623445
0.00476261
0.00362679
0.00275321
0.00208357
0.00157196
0.00118236
0.000886635
0.000662883
0.000494124
0.000367243
0.000272144
0.000201087
0.000148155
0.000108845
7.97381e-05
5.82507e-05
4.24349e-05
3.08276e-05
2.23336e-05
1.61358e-05
1.16264e-05
8.35459e-06
5.98747e-06
4.27962e-06
3.05085e-06
2.16918e-06
1.53829e-06
1.08806e-06
7.67631e-07
5.40181e-07
3.79159e-07
2.65463e-07
1.85394e-07
1.29152e-07
8.97484e-08
6.22116e-08
4.30158e-08
2.96664e-08
2.04023e-08
1.3982e-08
9.52944e-09
6.42166e-09
4.20507e-09
2.52743e-09
1.07389e-09
-5.08738e-10
-2.72423e-09
-6.41864e-09
-1.3131e-08
-2.57527e-08
-4.97804e-08
-9.57043e-08
-1.83565e-07
-3.51647e-07
-6.73065e-07
-1.28738e-06
-2.46087e-06
-4.7013e-06
-8.97652e-06
-1.71304e-05
-3.26745e-05
-6.22928e-05
-0.000118704
-0.000226098
-0.000430467
-0.000819225
-0.00155845
-0.00296358
-0.0056335
-0.010705
-0.0203349
-0.038615
-0.0733044
-0.139114
-0.263925
-0.50057
-0.949136
-1.79918
-3.40963
-6.45997
-12.2362
-23.1717
-43.8703
-83.0395
-157.146
-297.325
-562.43
-1063.7
-2011.33
-3802.46
-7187.29
-13582.7
-25664.2
300
300
300
300
300
300
300
300
299.999
299.999
299.999
299.998
299.998
299.997
299.996
299.995
299.993
299.991
299.988
299.984
299.98
299.974
299.967
299.958
299.946
299.933
299.916
299.896
299.871
299.841
299.805
299.762
299.711
299.65
299.578
299.494
299.395
299.28
299.147
298.992
298.813
298.608
298.374
298.106
297.802
297.458
297.069
296.632
296.142
295.594
294.984
294.306
293.555
292.725
291.812
290.809
289.711
288.512
287.205
285.786
284.248
282.586
280.794
278.866
276.798
274.584
272.22
269.7
267.022
264.182
261.176
258.003
254.66
251.146
247.46
243.603
239.576
235.381
231.019
226.495
221.813
216.978
211.996
206.874
201.618
196.239
190.743
185.142
179.446
173.664
167.809
161.892
155.925
149.922
143.894
137.856
131.821
125.802
119.814
113.87
107.986
102.174
96.45
90.8269
85.3187
79.9385
74.6991
69.6126
64.6902
59.9423
55.3782
51.0061
46.833
42.8643
39.1044
35.5559
32.2201
29.0968
26.1844
23.4799
20.979
18.6762
16.565
14.6378
12.8863
11.3015
9.8739
8.59362
7.45061
6.43472
5.53587
4.74413
4.04988
3.44383
2.91714
2.46145
2.06893
1.73232
1.44492
1.2006
0.993801
0.819515
0.673255
0.551031
0.449322
0.365035
0.295474
0.238298
0.191493
0.153331
0.122337
0.097265
0.0770609
0.0608421
0.0478718
0.0375382
0.0293359
0.0228491
0.0177376
0.0137243
0.0105844
0.00813654
0.00623473
0.00476228
0.00362612
0.0027524
0.00208275
0.00157118
0.00118166
0.000886023
0.000662365
0.000493695
0.000366893
0.000271863
0.000200864
0.00014798
0.000108708
7.96327e-05
5.81699e-05
4.23733e-05
3.0781e-05
2.22986e-05
1.61097e-05
1.16069e-05
8.3402e-06
5.97687e-06
4.27186e-06
3.04518e-06
2.16506e-06
1.53531e-06
1.08592e-06
7.66089e-07
5.39078e-07
3.78372e-07
2.64905e-07
1.84999e-07
1.28874e-07
8.95524e-08
6.20741e-08
4.29198e-08
2.95995e-08
2.03559e-08
1.39498e-08
9.50715e-09
6.40621e-09
4.19428e-09
2.51969e-09
1.06796e-09
-5.13951e-10
-2.72992e-09
-6.42643e-09
-1.31434e-08
-2.57741e-08
-4.98186e-08
-9.5773e-08
-1.83689e-07
-3.51872e-07
-6.73472e-07
-1.28812e-06
-2.4622e-06
-4.70369e-06
-8.98081e-06
-1.71382e-05
-3.26883e-05
-6.23176e-05
-0.000118748
-0.000226177
-0.000430608
-0.000819477
-0.0015589
-0.00296437
-0.0056349
-0.0107074
-0.0203393
-0.0386226
-0.0733178
-0.139137
-0.263965
-0.50064
-0.949257
-1.79939
-3.40999
-6.46056
-12.2372
-23.1734
-43.873
-83.0439
-157.153
-297.335
-562.446
-1063.72
-2011.35
-3802.48
-7187.29
-13582.6
-25663.9
300
300
300
300
300
300
300
300
299.999
299.999
299.999
299.998
299.998
299.997
299.996
299.995
299.993
299.991
299.988
299.984
299.98
299.974
299.966
299.957
299.946
299.933
299.916
299.895
299.87
299.84
299.804
299.761
299.71
299.649
299.577
299.492
299.393
299.278
299.144
298.988
298.809
298.604
298.369
298.1
297.796
297.451
297.061
296.624
296.133
295.585
294.974
294.295
293.544
292.715
291.802
290.8
289.703
288.505
287.201
285.784
284.25
282.592
280.804
278.882
276.821
274.614
272.258
269.748
267.081
264.252
261.259
258.1
254.772
251.274
247.605
243.766
239.758
235.581
231.24
226.736
222.075
217.261
212.299
207.197
201.962
196.602
191.125
185.542
179.862
174.095
168.254
162.349
156.393
150.398
144.377
138.344
132.311
126.292
120.302
114.355
108.464
102.645
96.911
91.2762
85.7545
80.3593
75.1035
69.9992
65.0581
60.2906
55.7063
51.3135
47.1195
43.13
39.3494
35.7806
32.425
29.2826
26.352
23.6301
21.1129
18.7949
16.6696
14.7294
12.9661
11.3706
9.9333
8.64443
7.4938
6.47121
5.56652
4.76972
4.07111
3.46133
2.93148
2.47312
2.07838
1.73992
1.45099
1.20542
0.997603
0.822494
0.675572
0.552822
0.450696
0.366082
0.296265
0.238891
0.191934
0.153655
0.122574
0.0974358
0.0771827
0.0609278
0.0479312
0.0375787
0.0293628
0.0228665
0.0177484
0.0137306
0.0105878
0.00813798
0.006235
0.00476186
0.00362534
0.00275148
0.0020818
0.00157029
0.00118086
0.000885331
0.000661781
0.000493212
0.0003665
0.000271548
0.000200613
0.000147783
0.000108555
7.95146e-05
5.80795e-05
4.23045e-05
3.0729e-05
2.22596e-05
1.60805e-05
1.15852e-05
8.32417e-06
5.96508e-06
4.26322e-06
3.03888e-06
2.16049e-06
1.532e-06
1.08353e-06
7.64379e-07
5.37855e-07
3.77501e-07
2.64287e-07
1.84562e-07
1.28565e-07
8.93356e-08
6.19223e-08
4.28137e-08
2.95257e-08
2.03046e-08
1.39143e-08
9.48259e-09
6.3892e-09
4.18239e-09
2.51115e-09
1.06139e-09
-5.19785e-10
-2.73637e-09
-6.43534e-09
-1.31577e-08
-2.57989e-08
-4.98628e-08
-9.58527e-08
-1.83833e-07
-3.52132e-07
-6.73943e-07
-1.28897e-06
-2.46374e-06
-4.70647e-06
-8.98581e-06
-1.71471e-05
-3.27045e-05
-6.23466e-05
-0.0001188
-0.00022627
-0.000430774
-0.000819772
-0.00155942
-0.0029653
-0.00563655
-0.0107104
-0.0203444
-0.0386317
-0.0733337
-0.139165
-0.264014
-0.500725
-0.949403
-1.79964
-3.41042
-6.4613
-12.2384
-23.1755
-43.8765
-83.0495
-157.162
-297.35
-562.467
-1063.75
-2011.4
-3802.53
-7187.33
-13582.6
-25663.6
300
300
300
300
300
300
300
300
299.999
299.999
299.999
299.998
299.998
299.997
299.996
299.995
299.993
299.991
299.988
299.984
299.979
299.974
299.966
299.957
299.946
299.932
299.915
299.895
299.87
299.84
299.804
299.76
299.709
299.647
299.575
299.49
299.391
299.275
299.14
298.984
298.805
298.598
298.362
298.093
297.788
297.442
297.052
296.613
296.122
295.573
294.961
294.282
293.531
292.701
291.789
290.787
289.691
288.494
287.192
285.778
284.247
282.593
280.81
278.894
276.839
274.64
272.293
269.793
267.137
264.321
261.342
258.197
254.885
251.404
247.754
243.934
239.946
235.791
231.471
226.99
222.351
217.56
212.621
207.542
202.329
196.991
191.535
185.972
180.311
174.562
168.736
162.845
156.901
150.917
144.904
138.876
132.846
126.829
120.838
114.887
108.991
103.163
97.4191
91.7719
86.2359
80.8245
75.5509
70.4275
65.4659
60.677
56.0705
51.655
47.438
43.4254
39.6219
36.0306
32.6531
29.4895
26.5386
23.7975
21.2621
18.9272
16.7861
14.8314
13.0549
11.4474
9.9994
8.70093
7.54181
6.51176
5.60055
4.79811
4.09464
3.48072
2.94735
2.48604
2.08882
1.74831
1.45769
1.21073
1.00179
0.825766
0.678115
0.554784
0.452199
0.367224
0.297126
0.239535
0.192412
0.154006
0.122829
0.097619
0.0773128
0.0610188
0.0479938
0.0376209
0.0293905
0.0228841
0.0177591
0.0137366
0.0105907
0.008139
0.00623485
0.00476106
0.00362423
0.00275026
0.00208061
0.00156919
0.00117989
0.000884504
0.000661089
0.000492643
0.00036604
0.00027118
0.000200323
0.000147556
0.000108379
7.93791e-05
5.79759e-05
4.2226e-05
3.06698e-05
2.22151e-05
1.60473e-05
1.15606e-05
8.306e-06
5.95173e-06
4.25346e-06
3.03177e-06
2.15533e-06
1.52827e-06
1.08085e-06
7.62455e-07
5.36481e-07
3.76523e-07
2.63593e-07
1.84071e-07
1.2822e-07
8.9093e-08
6.17525e-08
4.26953e-08
2.94433e-08
2.02474e-08
1.38747e-08
9.45522e-09
6.37025e-09
4.16915e-09
2.50164e-09
1.05407e-09
-5.26309e-10
-2.74362e-09
-6.4454e-09
-1.31739e-08
-2.58269e-08
-4.99128e-08
-9.59429e-08
-1.83996e-07
-3.52428e-07
-6.74479e-07
-1.28994e-06
-2.46548e-06
-4.70962e-06
-8.9915e-06
-1.71574e-05
-3.27229e-05
-6.23796e-05
-0.000118859
-0.000226375
-0.000430963
-0.00082011
-0.00156003
-0.00296637
-0.00563845
-0.0107137
-0.0203504
-0.0386422
-0.0733521
-0.139197
-0.26407
-0.500823
-0.949573
-1.79993
-3.41092
-6.46216
-12.2399
-23.1779
-43.8805
-83.0563
-157.173
-297.367
-562.494
-1063.79
-2011.45
-3802.6
-7187.39
-13582.6
-25663.5
300
300
300
300
300
300
300
300
299.999
299.999
299.999
299.998
299.998
299.997
299.996
299.995
299.993
299.991
299.988
299.984
299.979
299.974
299.966
299.957
299.946
299.932
299.915
299.894
299.869
299.839
299.803
299.759
299.707
299.646
299.573
299.488
299.388
299.271
299.136
298.979
298.799
298.592
298.355
298.085
297.779
297.432
297.04
296.601
296.108
295.558
294.945
294.265
293.513
292.683
291.77
290.769
289.673
288.478
287.177
285.766
284.237
282.587
280.809
278.898
276.85
274.659
272.321
269.831
267.187
264.383
261.418
258.289
254.994
251.531
247.9
244.101
240.135
236.002
231.706
227.249
222.635
217.868
212.955
207.9
202.712
197.398
191.965
186.424
180.784
175.054
169.247
163.372
157.442
151.469
145.466
139.446
133.421
127.406
121.415
115.461
109.559
103.724
97.9692
92.3093
86.7584
81.3301
76.0377
70.8939
65.9105
61.0985
56.4682
52.0282
47.7863
43.7487
39.9203
36.3044
32.9029
29.7162
26.7431
23.9809
21.4256
19.072
16.9137
14.9432
13.1521
11.5315
10.0717
8.76269
7.59425
6.55601
5.63766
4.82904
4.12026
3.5018
2.96459
2.50005
2.10013
1.75738
1.46491
1.21645
1.00628
0.829278
0.680837
0.556879
0.453799
0.368436
0.298037
0.240214
0.192912
0.154372
0.123093
0.0978077
0.0774455
0.0611107
0.0480562
0.0376622
0.0294171
0.0229004
0.0177684
0.0137414
0.0105926
0.00813902
0.00623384
0.00475953
0.00362252
0.00274856
0.00207902
0.00156778
0.00117868
0.000883482
0.000660245
0.000491957
0.00036549
0.000270744
0.00019998
0.000147289
0.000108173
7.92209e-05
5.78555e-05
4.21348e-05
3.06012e-05
2.21638e-05
1.60092e-05
1.15324e-05
8.28518e-06
5.93645e-06
4.2423e-06
3.02365e-06
2.14945e-06
1.52403e-06
1.0778e-06
7.60271e-07
5.34923e-07
3.75415e-07
2.62808e-07
1.83517e-07
1.27829e-07
8.88192e-08
6.1561e-08
4.25617e-08
2.93504e-08
2.01831e-08
1.38302e-08
9.42447e-09
6.34897e-09
4.15429e-09
2.49098e-09
1.04587e-09
-5.336e-10
-2.75171e-09
-6.45661e-09
-1.3192e-08
-2.58582e-08
-4.99685e-08
-9.60435e-08
-1.84178e-07
-3.52758e-07
-6.75076e-07
-1.29102e-06
-2.46744e-06
-4.71314e-06
-8.99785e-06
-1.71688e-05
-3.27434e-05
-6.24165e-05
-0.000118925
-0.000226494
-0.000431175
-0.000820488
-0.0015607
-0.00296757
-0.00564058
-0.0107175
-0.020357
-0.0386539
-0.0733728
-0.139234
-0.264134
-0.500934
-0.949766
-1.80027
-3.41149
-6.46314
-12.2416
-23.1807
-43.8853
-83.064
-157.186
-297.387
-562.526
-1063.84
-2011.52
-3802.69
-7187.49
-13582.7
-25663.3
300
300
300
300
300
300
300
300
299.999
299.999
299.999
299.998
299.998
299.997
299.996
299.995
299.993
299.991
299.988
299.984
299.979
299.973
299.966
299.957
299.946
299.932
299.915
299.894
299.869
299.838
299.801
299.758
299.706
299.644
299.571
299.485
299.384
299.267
299.131
298.974
298.792
298.584
298.346
298.075
297.767
297.419
297.026
296.585
296.091
295.539
294.925
294.244
293.491
292.66
291.746
290.744
289.649
288.454
287.154
285.744
284.218
282.571
280.798
278.892
276.85
274.667
272.337
269.858
267.225
264.434
261.484
258.37
255.092
251.648
248.037
244.26
240.316
236.207
231.936
227.504
222.916
218.177
213.29
208.262
203.101
197.813
192.406
186.889
181.272
175.564
169.776
163.92
158.006
152.047
146.056
140.044
134.026
128.015
122.025
116.069
110.163
104.32
98.5552
92.8828
87.3168
81.8712
76.5594
71.3943
66.3881
61.5519
56.8963
52.4302
48.1617
44.0974
40.2423
36.6001
33.1729
29.9612
26.9641
24.179
21.6023
19.2285
17.0515
15.0638
13.257
11.6222
10.1496
8.82921
7.65068
6.60359
5.67751
4.86221
4.1477
3.52435
2.98301
2.51498
2.11217
1.76701
1.47257
1.2225
1.01103
0.83297
0.68369
0.559066
0.455462
0.369691
0.298975
0.240909
0.193422
0.154741
0.123358
0.0979943
0.0775751
0.0611989
0.0481147
0.0376998
0.0294401
0.0229136
0.0177751
0.0137439
0.0105924
0.00813743
0.00623151
0.00475694
0.00361994
0.00274616
0.0020769
0.00156595
0.00117713
0.000882201
0.000659201
0.000491118
0.000364822
0.000270218
0.00019957
0.000146971
0.000107929
7.90346e-05
5.77141e-05
4.20282e-05
3.05213e-05
2.21042e-05
1.59649e-05
1.14997e-05
8.26112e-06
5.91884e-06
4.22946e-06
3.01433e-06
2.1427e-06
1.51917e-06
1.07431e-06
7.57777e-07
5.33145e-07
3.74153e-07
2.61914e-07
1.82886e-07
1.27386e-07
8.85085e-08
6.13439e-08
4.24105e-08
2.92453e-08
2.01102e-08
1.37799e-08
9.38974e-09
6.32495e-09
4.13754e-09
2.47898e-09
1.03666e-09
-5.41739e-10
-2.76067e-09
-6.46899e-09
-1.32118e-08
-2.58926e-08
-5.00299e-08
-9.61541e-08
-1.84379e-07
-3.53121e-07
-6.75733e-07
-1.29221e-06
-2.46958e-06
-4.71702e-06
-9.00484e-06
-1.71814e-05
-3.27661e-05
-6.24572e-05
-0.000118998
-0.000226625
-0.000431409
-0.000820906
-0.00156144
-0.0029689
-0.00564294
-0.0107217
-0.0203644
-0.038667
-0.0733958
-0.139274
-0.264205
-0.501057
-0.949981
-1.80064
-3.41213
-6.46424
-12.2434
-23.1839
-43.8905
-83.0728
-157.2
-297.41
-562.562
-1063.89
-2011.6
-3802.8
-7187.61
-13582.7
-25663.2
300
300
300
300
300
300
300
300
299.999
299.999
299.999
299.998
299.998
299.997
299.996
299.995
299.993
299.99
299.988
299.984
299.979
299.973
299.966
299.957
299.945
299.931
299.914
299.893
299.868
299.837
299.8
299.756
299.704
299.641
299.568
299.481
299.38
299.262
299.125
298.967
298.785
298.575
298.336
298.063
297.754
297.404
297.009
296.566
296.07
295.516
294.9
294.217
293.462
292.63
291.715
290.712
289.615
288.42
287.121
285.712
284.187
282.543
280.772
278.872
276.835
274.659
272.337
269.868
267.245
264.468
261.531
258.433
255.173
251.748
248.157
244.402
240.481
236.397
232.151
227.746
223.186
218.474
213.616
208.617
203.484
198.224
192.844
187.354
181.762
176.079
170.314
164.478
158.583
152.64
146.662
140.662
134.652
128.647
122.659
116.703
110.793
104.944
99.1703
93.4858
87.9051
82.4423
77.1109
71.9241
66.8944
62.0332
57.3512