/*--------------------------------*- C++ -*----------------------------------*\
| =========                 |                                                 |
| \\      /  F ield         | OpenFOAM: The Open Source CFD Toolbox           |
|  \\    /   O peration     | Version:  2306                                  |
|   \\  /    A nd           | Website:  www.openfoam.com                      |
|    \\/     M anipulation  |                                                 |
\*---------------------------------------------------------------------------*/
FoamFile
{
    version     2.0;
    format      ascii;
    arch        "LSB;label=32;scalar=64";
    class       volVectorField;
    location    "2.5";
    object      U;
}
// * * * * * * * * * * * * * * * * * * * * * * * * * * * * * * * * * * * * * //

dimensions      [0 1 -1 0 0 0 0];

internalField   nonuniform List<vector> 
32768
(
(1.00001 -3.94502e-05 0)
(1.00016 -0.000118502 0)
(1.00047 -0.000197648 0)
(1.00095 -0.000276886 0)
(1.00158 -0.000356315 0)
(1.00238 -0.000436024 0)
(1.00333 -0.000516072 0)
(1.00444 -0.000596508 0)
(1.00571 -0.000677384 0)
(1.00715 -0.000758755 0)
(1.00875 -0.000840666 0)
(1.01051 -0.000923157 0)
(1.01244 -0.00100626 0)
(1.01454 -0.00109 0)
(1.0168 -0.00117438 0)
(1.01924 -0.00125942 0)
(1.02184 -0.00134511 0)
(1.02462 -0.00143143 0)
(1.02757 -0.00151835 0)
(1.03069 -0.00160583 0)
(1.03399 -0.00169381 0)
(1.03747 -0.00178222 0)
(1.04112 -0.00187098 0)
(1.04495 -0.00195997 0)
(1.04896 -0.0020491 0)
(1.05315 -0.00213821 0)
(1.05752 -0.00222718 0)
(1.06206 -0.00231582 0)
(1.06678 -0.00240396 0)
(1.07168 -0.0024914 0)
(1.07675 -0.00257794 0)
(1.08199 -0.00266334 0)
(1.0874 -0.00274737 0)
(1.09298 -0.00282976 0)
(1.09872 -0.00291027 0)
(1.10463 -0.0029886 0)
(1.11068 -0.00306448 0)
(1.11689 -0.00313761 0)
(1.12323 -0.0032077 0)
(1.12972 -0.00327444 0)
(1.13634 -0.00333752 0)
(1.14307 -0.00339664 0)
(1.14993 -0.0034515 0)
(1.15688 -0.00350181 0)
(1.16394 -0.00354726 0)
(1.17108 -0.0035876 0)
(1.17829 -0.00362254 0)
(1.18557 -0.00365184 0)
(1.19291 -0.00367525 0)
(1.20028 -0.00369258 0)
(1.20768 -0.00370361 0)
(1.2151 -0.00370818 0)
(1.22252 -0.00370614 0)
(1.22993 -0.00369736 0)
(1.23732 -0.00368175 0)
(1.24466 -0.00365922 0)
(1.25196 -0.00362973 0)
(1.25919 -0.00359326 0)
(1.26634 -0.00354982 0)
(1.27339 -0.00349942 0)
(1.28034 -0.00344212 0)
(1.28717 -0.003378 0)
(1.29386 -0.00330715 0)
(1.3004 -0.00322971 0)
(1.30678 -0.00314581 0)
(1.31299 -0.00305565 0)
(1.31901 -0.00295942 0)
(1.32483 -0.00285738 0)
(1.33045 -0.00274983 0)
(1.33584 -0.00263712 0)
(1.341 -0.00251966 0)
(1.34592 -0.00239796 0)
(1.3506 -0.00227256 0)
(1.35502 -0.0021441 0)
(1.35918 -0.00201326 0)
(1.36307 -0.00188078 0)
(1.3667 -0.00174742 0)
(1.37007 -0.00161393 0)
(1.37316 -0.00148101 0)
(1.37599 -0.0013493 0)
(1.37856 -0.00121931 0)
(1.38087 -0.00109142 0)
(1.38293 -0.000965815 0)
(1.38474 -0.000842517 0)
(1.3863 -0.000721346 0)
(1.38762 -0.00060194 0)
(1.38871 -0.000483772 0)
(1.38955 -0.00036619 0)
(1.39017 -0.000248446 0)
(1.39055 -0.000129755 0)
(1.39068 -9.33574e-06 0)
(1.39058 0.000113527 0)
(1.39023 0.000239454 0)
(1.38962 0.000368923 0)
(1.38875 0.000502233 0)
(1.3876 0.00063949 0)
(1.38618 0.000780598 0)
(1.38447 0.000925256 0)
(1.38247 0.00107298 0)
(1.38018 0.0012231 0)
(1.37758 0.00137481 0)
(1.37467 0.00152722 0)
(1.37146 0.00167931 0)
(1.36794 0.00183005 0)
(1.36413 0.0019784 0)
(1.36002 0.00212332 0)
(1.35563 0.00226384 0)
(1.35096 0.00239904 0)
(1.34602 0.00252809 0)
(1.34084 0.00265025 0)
(1.33541 0.0027649 0)
(1.32977 0.0028715 0)
(1.32392 0.00296965 0)
(1.31788 0.00305902 0)
(1.31167 0.00313939 0)
(1.30531 0.00321066 0)
(1.29882 0.00327276 0)
(1.29221 0.00332574 0)
(1.28551 0.00336971 0)
(1.27872 0.00340482 0)
(1.27188 0.00343129 0)
(1.26499 0.00344938 0)
(1.25807 0.0034594 0)
(1.25115 0.00346167 0)
(1.24422 0.00345656 0)
(1.23731 0.00344444 0)
(1.23044 0.00342571 0)
(1.2236 0.00340078 0)
(1.21683 0.00337008 0)
(1.21012 0.00333401 0)
(1.20349 0.003293 0)
(1.19694 0.00324747 0)
(1.19049 0.00319783 0)
(1.18415 0.00314449 0)
(1.17791 0.00308785 0)
(1.17179 0.00302828 0)
(1.1658 0.00296617 0)
(1.15993 0.00290186 0)
(1.15419 0.0028357 0)
(1.14858 0.002768 0)
(1.14311 0.00269908 0)
(1.13778 0.00262923 0)
(1.1326 0.00255871 0)
(1.12755 0.00248777 0)
(1.12264 0.00241666 0)
(1.11788 0.00234557 0)
(1.11326 0.00227473 0)
(1.10878 0.00220429 0)
(1.10445 0.00213444 0)
(1.10025 0.00206532 0)
(1.09619 0.00199706 0)
(1.09226 0.00192979 0)
(1.08847 0.0018636 0)
(1.08481 0.0017986 0)
(1.08128 0.00173486 0)
(1.07787 0.00167245 0)
(1.07459 0.00161142 0)
(1.07143 0.00155184 0)
(1.06838 0.00149373 0)
(1.06545 0.00143712 0)
(1.06263 0.00138204 0)
(1.05993 0.00132851 0)
(1.05732 0.00127653 0)
(1.05482 0.0012261 0)
(1.05242 0.00117722 0)
(1.05011 0.00112988 0)
(1.0479 0.00108408 0)
(1.04578 0.00103979 0)
(1.04374 0.000996991 0)
(1.04179 0.00095567 0)
(1.03992 0.000915797 0)
(1.03813 0.000877345 0)
(1.03641 0.000840286 0)
(1.03477 0.000804589 0)
(1.0332 0.000770221 0)
(1.03169 0.00073715 0)
(1.03025 0.000705343 0)
(1.02887 0.000674765 0)
(1.02755 0.000645381 0)
(1.02629 0.000617156 0)
(1.02509 0.000590056 0)
(1.02393 0.000564045 0)
(1.02283 0.000539088 0)
(1.02178 0.000515152 0)
(1.02077 0.000492201 0)
(1.01981 0.000470203 0)
(1.01889 0.000449124 0)
(1.01801 0.000428931 0)
(1.01718 0.000409593 0)
(1.01638 0.000391078 0)
(1.01561 0.000373356 0)
(1.01488 0.000356397 0)
(1.01419 0.000340171 0)
(1.01352 0.000324651 0)
(1.01289 0.000309809 0)
(1.01228 0.000295618 0)
(1.01171 0.000282053 0)
(1.01116 0.000269088 0)
(1.01063 0.000256698 0)
(1.01013 0.000244862 0)
(1.00965 0.000233555 0)
(1.0092 0.000222756 0)
(1.00876 0.000212443 0)
(1.00835 0.000202597 0)
(1.00795 0.000193197 0)
(1.00758 0.000184225 0)
(1.00722 0.000175662 0)
(1.00687 0.000167491 0)
(1.00655 0.000159695 0)
(1.00624 0.000152257 0)
(1.00594 0.000145163 0)
(1.00565 0.000138396 0)
(1.00538 0.000131943 0)
(1.00513 0.000125791 0)
(1.00488 0.000119924 0)
(1.00465 0.000114332 0)
(1.00442 0.000109002 0)
(1.00421 0.000103922 0)
(1.00401 9.90812e-05 0)
(1.00382 9.44689e-05 0)
(1.00363 9.00748e-05 0)
(1.00346 8.58893e-05 0)
(1.00329 8.1903e-05 0)
(1.00313 7.81071e-05 0)
(1.00298 7.44929e-05 0)
(1.00283 7.10524e-05 0)
(1.00269 6.77777e-05 0)
(1.00256 6.46616e-05 0)
(1.00243 6.16969e-05 0)
(1.00231 5.88768e-05 0)
(1.0022 5.61949e-05 0)
(1.00209 5.36451e-05 0)
(1.00198 5.12215e-05 0)
(1.00188 4.89186e-05 0)
(1.00179 4.6731e-05 0)
(1.0017 4.46538e-05 0)
(1.00161 4.2682e-05 0)
(1.00153 4.08112e-05 0)
(1.00145 3.9037e-05 0)
(1.00137 3.73552e-05 0)
(1.0013 3.5762e-05 0)
(1.00123 3.42537e-05 0)
(1.00116 3.28266e-05 0)
(1.0011 3.14776e-05 0)
(1.00103 3.02033e-05 0)
(1.00098 2.9001e-05 0)
(1.00092 2.78675e-05 0)
(1.00086 2.68006e-05 0)
(1.00081 2.57971e-05 0)
(1.00076 2.48557e-05 0)
(1.00071 2.39724e-05 0)
(1.00066 2.31472e-05 0)
(1.00062 2.2377e-05 0)
(1.00057 2.16464e-05 0)
(1.00054 2.10255e-05 0)
(1.00047 2.02116e-05 0)
(1.00001 -0.000118524 0)
(1.00016 -0.000355728 0)
(1.00047 -0.000593129 0)
(1.00095 -0.000830845 0)
(1.00158 -0.00106913 0)
(1.00237 -0.00130823 0)
(1.00333 -0.00154833 0)
(1.00444 -0.0017896 0)
(1.00571 -0.0020322 0)
(1.00715 -0.00227628 0)
(1.00874 -0.00252199 0)
(1.01051 -0.00276945 0)
(1.01244 -0.00301875 0)
(1.01453 -0.00326996 0)
(1.01679 -0.00352313 0)
(1.01923 -0.00377827 0)
(1.02183 -0.00403536 0)
(1.02461 -0.00429436 0)
(1.02755 -0.00455517 0)
(1.03068 -0.00481766 0)
(1.03398 -0.00508167 0)
(1.03745 -0.00534698 0)
(1.04111 -0.00561334 0)
(1.04494 -0.00588044 0)
(1.04895 -0.00614794 0)
(1.05313 -0.00641542 0)
(1.0575 -0.00668246 0)
(1.06205 -0.00694855 0)
(1.06677 -0.00721315 0)
(1.07167 -0.00747567 0)
(1.07674 -0.00773548 0)
(1.08199 -0.00799189 0)
(1.0874 -0.00824419 0)
(1.09298 -0.00849162 0)
(1.09873 -0.00873337 0)
(1.10464 -0.00896862 0)
(1.1107 -0.00919652 0)
(1.11691 -0.00941617 0)
(1.12326 -0.00962669 0)
(1.12976 -0.00982716 0)
(1.13638 -0.0100167 0)
(1.14313 -0.0101943 0)
(1.14999 -0.0103591 0)
(1.15696 -0.0105103 0)
(1.16402 -0.0106469 0)
(1.17117 -0.0107681 0)
(1.1784 -0.0108731 0)
(1.18569 -0.0109612 0)
(1.19304 -0.0110316 0)
(1.20042 -0.0110837 0)
(1.20784 -0.0111169 0)
(1.21527 -0.0111308 0)
(1.2227 -0.0111247 0)
(1.23013 -0.0110984 0)
(1.23753 -0.0110516 0)
(1.24489 -0.0109841 0)
(1.2522 -0.0108956 0)
(1.25944 -0.0107862 0)
(1.26661 -0.0106558 0)
(1.27368 -0.0105045 0)
(1.28064 -0.0103325 0)
(1.28748 -0.0101401 0)
(1.29419 -0.0099274 0)
(1.30075 -0.00969494 0)
(1.30714 -0.00944312 0)
(1.31336 -0.00917247 0)
(1.3194 -0.00888363 0)
(1.32523 -0.00857735 0)
(1.33086 -0.00825452 0)
(1.33626 -0.00791621 0)
(1.34143 -0.00756367 0)
(1.34637 -0.00719836 0)
(1.35105 -0.00682195 0)
(1.35548 -0.00643633 0)
(1.35966 -0.00604356 0)
(1.36356 -0.00564585 0)
(1.3672 -0.00524546 0)
(1.37057 -0.00484464 0)
(1.37368 -0.0044455 0)
(1.37651 -0.00404995 0)
(1.37909 -0.00365954 0)
(1.3814 -0.00327536 0)
(1.38346 -0.00289803 0)
(1.38527 -0.00252759 0)
(1.38684 -0.00216351 0)
(1.38816 -0.00180471 0)
(1.38925 -0.00144962 0)
(1.39009 -0.00109629 0)
(1.3907 -0.00074249 0)
(1.39108 -0.000385862 0)
(1.39121 -2.40711e-05 0)
(1.3911 0.000345023 0)
(1.39073 0.000723284 0)
(1.39012 0.00111214 0)
(1.38923 0.00151249 0)
(1.38808 0.00192465 0)
(1.38665 0.00234833 0)
(1.38493 0.00278265 0)
(1.38291 0.00322612 0)
(1.3806 0.00367678 0)
(1.37799 0.00413222 0)
(1.37506 0.00458968 0)
(1.37184 0.0050462 0)
(1.36831 0.00549866 0)
(1.36448 0.00594392 0)
(1.36035 0.00637888 0)
(1.35594 0.0068006 0)
(1.35125 0.00720634 0)
(1.3463 0.00759359 0)
(1.34109 0.00796015 0)
(1.33565 0.00830413 0)
(1.32998 0.00862395 0)
(1.32411 0.00891835 0)
(1.31805 0.00918639 0)
(1.31183 0.00942742 0)
(1.30545 0.00964106 0)
(1.29894 0.00982719 0)
(1.29231 0.00998593 0)
(1.28559 0.0101176 0)
(1.27879 0.0102226 0)
(1.27192 0.0103017 0)
(1.26502 0.0103557 0)
(1.25809 0.0103854 0)
(1.25114 0.0103918 0)
(1.2442 0.0103761 0)
(1.23728 0.0103394 0)
(1.23039 0.0102828 0)
(1.22355 0.0102076 0)
(1.21676 0.0101151 0)
(1.21004 0.0100064 0)
(1.2034 0.00988302 0)
(1.19685 0.00974603 0)
(1.19039 0.00959674 0)
(1.18404 0.00943635 0)
(1.17779 0.00926605 0)
(1.17167 0.00908701 0)
(1.16567 0.00890034 0)
(1.15979 0.0087071 0)
(1.15405 0.00850831 0)
(1.14844 0.00830494 0)
(1.14297 0.00809792 0)
(1.13764 0.00788811 0)
(1.13245 0.00767632 0)
(1.12741 0.0074633 0)
(1.1225 0.00724975 0)
(1.11774 0.00703632 0)
(1.11312 0.00682362 0)
(1.10864 0.00661217 0)
(1.10431 0.00640248 0)
(1.10011 0.006195 0)
(1.09605 0.00599012 0)
(1.09213 0.0057882 0)
(1.08834 0.00558957 0)
(1.08468 0.00539449 0)
(1.08115 0.0052032 0)
(1.07775 0.00501592 0)
(1.07447 0.00483281 0)
(1.07131 0.00465402 0)
(1.06827 0.00447967 0)
(1.06534 0.00430983 0)
(1.06253 0.00414459 0)
(1.05982 0.00398399 0)
(1.05722 0.00382804 0)
(1.05472 0.00367676 0)
(1.05232 0.00353013 0)
(1.05002 0.00338814 0)
(1.04781 0.00325074 0)
(1.04569 0.00311789 0)
(1.04366 0.00298953 0)
(1.04171 0.0028656 0)
(1.03984 0.00274601 0)
(1.03806 0.00263068 0)
(1.03634 0.00251953 0)
(1.0347 0.00241247 0)
(1.03313 0.00230941 0)
(1.03163 0.00221023 0)
(1.03019 0.00211484 0)
(1.02881 0.00202314 0)
(1.0275 0.00193502 0)
(1.02624 0.00185038 0)
(1.02503 0.00176912 0)
(1.02388 0.00169112 0)
(1.02278 0.00161628 0)
(1.02173 0.00154451 0)
(1.02073 0.00147569 0)
(1.01977 0.00140973 0)
(1.01885 0.00134652 0)
(1.01797 0.00128597 0)
(1.01714 0.00122799 0)
(1.01634 0.00117247 0)
(1.01558 0.00111934 0)
(1.01485 0.00106849 0)
(1.01416 0.00101984 0)
(1.01349 0.000973304 0)
(1.01286 0.000928803 0)
(1.01226 0.000886256 0)
(1.01168 0.000845584 0)
(1.01113 0.000806712 0)
(1.01061 0.000769567 0)
(1.01011 0.000734079 0)
(1.00963 0.00070018 0)
(1.00918 0.000667803 0)
(1.00874 0.000636885 0)
(1.00833 0.000607365 0)
(1.00793 0.000579184 0)
(1.00756 0.000552285 0)
(1.0072 0.000526614 0)
(1.00686 0.000502117 0)
(1.00653 0.000478743 0)
(1.00622 0.000456445 0)
(1.00592 0.000435176 0)
(1.00564 0.00041489 0)
(1.00537 0.000395545 0)
(1.00512 0.000377099 0)
(1.00487 0.000359512 0)
(1.00464 0.000342748 0)
(1.00441 0.000326768 0)
(1.0042 0.000311539 0)
(1.004 0.000297027 0)
(1.00381 0.000283199 0)
(1.00362 0.000270026 0)
(1.00345 0.000257479 0)
(1.00328 0.000245529 0)
(1.00312 0.000234149 0)
(1.00297 0.000223314 0)
(1.00282 0.000213 0)
(1.00269 0.000203183 0)
(1.00255 0.000193841 0)
(1.00243 0.000184954 0)
(1.00231 0.0001765 0)
(1.00219 0.00016846 0)
(1.00208 0.000160816 0)
(1.00198 0.000153551 0)
(1.00188 0.000146647 0)
(1.00178 0.000140089 0)
(1.00169 0.000133862 0)
(1.00161 0.000127951 0)
(1.00152 0.000122343 0)
(1.00144 0.000117024 0)
(1.00137 0.000111983 0)
(1.00129 0.000107207 0)
(1.00122 0.000102685 0)
(1.00116 9.8407e-05 0)
(1.00109 9.43629e-05 0)
(1.00103 9.05431e-05 0)
(1.00097 8.69386e-05 0)
(1.00092 8.3541e-05 0)
(1.00086 8.03424e-05 0)
(1.00081 7.73349e-05 0)
(1.00076 7.45116e-05 0)
(1.00071 7.18669e-05 0)
(1.00066 6.93869e-05 0)
(1.00062 6.70948e-05 0)
(1.00057 6.48772e-05 0)
(1.00054 6.30921e-05 0)
(1.00047 6.05559e-05 0)
(1.00001 -0.000197631 0)
(1.00016 -0.000592856 0)
(1.00047 -0.000988329 0)
(1.00095 -0.00138439 0)
(1.00158 -0.00178141 0)
(1.00237 -0.00217976 0)
(1.00332 -0.00257977 0)
(1.00443 -0.00298172 0)
(1.0057 -0.00338592 0)
(1.00714 -0.00379261 0)
(1.00873 -0.00420204 0)
(1.01049 -0.0046144 0)
(1.01242 -0.00502986 0)
(1.01451 -0.00544853 0)
(1.01677 -0.0058705 0)
(1.0192 -0.00629578 0)
(1.02181 -0.00672435 0)
(1.02458 -0.00715614 0)
(1.02753 -0.00759098 0)
(1.03065 -0.00802868 0)
(1.03395 -0.00846895 0)
(1.03742 -0.00891143 0)
(1.04107 -0.00935571 0)
(1.0449 -0.00980127 0)
(1.04891 -0.0102475 0)
(1.0531 -0.0106939 0)
(1.05747 -0.0111395 0)
(1.06202 -0.0115836 0)
(1.06674 -0.0120252 0)
(1.07165 -0.0124635 0)
(1.07672 -0.0128972 0)
(1.08198 -0.0133254 0)
(1.0874 -0.0137467 0)
(1.09299 -0.01416 0)
(1.09874 -0.0145638 0)
(1.10466 -0.0149569 0)
(1.11073 -0.0153377 0)
(1.11696 -0.0157048 0)
(1.12332 -0.0160567 0)
(1.12983 -0.0163918 0)
(1.13647 -0.0167086 0)
(1.14324 -0.0170057 0)
(1.15012 -0.0172814 0)
(1.1571 -0.0175343 0)
(1.16419 -0.0177629 0)
(1.17136 -0.0179658 0)
(1.17861 -0.0181417 0)
(1.18593 -0.0182892 0)
(1.1933 -0.0184073 0)
(1.20071 -0.0184948 0)
(1.20815 -0.0185508 0)
(1.21561 -0.0185743 0)
(1.22307 -0.0185646 0)
(1.23052 -0.0185212 0)
(1.23795 -0.0184434 0)
(1.24534 -0.0183309 0)
(1.25268 -0.0181836 0)
(1.25996 -0.0180012 0)
(1.26715 -0.0177838 0)
(1.27425 -0.0175316 0)
(1.28124 -0.0172447 0)
(1.28811 -0.0169237 0)
(1.29485 -0.016569 0)
(1.30143 -0.0161812 0)
(1.30785 -0.0157611 0)
(1.3141 -0.0153096 0)
(1.32016 -0.0148277 0)
(1.32602 -0.0143167 0)
(1.33168 -0.0137781 0)
(1.3371 -0.0132137 0)
(1.3423 -0.0126255 0)
(1.34726 -0.012016 0)
(1.35197 -0.0113879 0)
(1.35642 -0.0107444 0)
(1.36061 -0.0100889 0)
(1.36454 -0.00942509 0)
(1.3682 -0.00875669 0)
(1.37159 -0.00808743 0)
(1.37471 -0.00742086 0)
(1.37756 -0.00676012 0)
(1.38014 -0.00610779 0)
(1.38247 -0.00546574 0)
(1.38454 -0.00483497 0)
(1.38635 -0.00421558 0)
(1.38792 -0.00360671 0)
(1.38924 -0.00300659 0)
(1.39033 -0.00241263 0)
(1.39117 -0.0018216 0)
(1.39177 -0.00122983 0)
(1.39214 -0.000633395 0)
(1.39226 -2.8441e-05 0)
(1.39213 0.000588597 0)
(1.39175 0.00122082 0)
(1.39112 0.00187058 0)
(1.39021 0.0025394 0)
(1.38904 0.00322781 0)
(1.38758 0.00393533 0)
(1.38584 0.00466049 0)
(1.3838 0.00540083 0)
(1.38145 0.00615308 0)
(1.37881 0.00691323 0)
(1.37586 0.00767671 0)
(1.3726 0.00843855 0)
(1.36903 0.00919357 0)
(1.36517 0.00993651 0)
(1.36101 0.0106622 0)
(1.35656 0.0113658 0)
(1.35183 0.0120426 0)
(1.34684 0.0126885 0)
(1.34159 0.0132999 0)
(1.33611 0.0138734 0)
(1.33041 0.0144066 0)
(1.3245 0.0148972 0)
(1.3184 0.0153438 0)
(1.31214 0.0157453 0)
(1.30572 0.0161009 0)
(1.29917 0.0164106 0)
(1.2925 0.0166745 0)
(1.28574 0.0168931 0)
(1.27891 0.0170672 0)
(1.27201 0.017198 0)
(1.26507 0.0172868 0)
(1.25811 0.0173351 0)
(1.25113 0.0173446 0)
(1.24417 0.0173171 0)
(1.23722 0.0172545 0)
(1.2303 0.0171588 0)
(1.22343 0.017032 0)
(1.21662 0.0168764 0)
(1.20988 0.0166939 0)
(1.20322 0.0164868 0)
(1.19665 0.0162571 0)
(1.19018 0.0160069 0)
(1.18381 0.0157382 0)
(1.17756 0.0154531 0)
(1.17142 0.0151535 0)
(1.16541 0.0148411 0)
(1.15953 0.0145179 0)
(1.15378 0.0141855 0)
(1.14817 0.0138455 0)
(1.1427 0.0134995 0)
(1.13736 0.0131489 0)
(1.13217 0.0127951 0)
(1.12712 0.0124393 0)
(1.12222 0.0120826 0)
(1.11746 0.0117263 0)
(1.11284 0.0113711 0)
(1.10836 0.0110182 0)
(1.10403 0.0106682 0)
(1.09983 0.0103219 0)
(1.09578 0.00998008 0)
(1.09186 0.0096432 0)
(1.08807 0.00931183 0)
(1.08442 0.00898643 0)
(1.0809 0.00866739 0)
(1.0775 0.00835506 0)
(1.07422 0.00804973 0)
(1.07107 0.00775162 0)
(1.06804 0.00746093 0)
(1.06512 0.00717781 0)
(1.06231 0.00690236 0)
(1.05961 0.00663466 0)
(1.05701 0.00637474 0)
(1.05452 0.00612262 0)
(1.05213 0.00587827 0)
(1.04983 0.00564166 0)
(1.04763 0.00541272 0)
(1.04552 0.00519138 0)
(1.04349 0.00497752 0)
(1.04155 0.00477105 0)
(1.03969 0.00457182 0)
(1.0379 0.00437972 0)
(1.0362 0.00419458 0)
(1.03456 0.00401626 0)
(1.033 0.00384459 0)
(1.0315 0.00367941 0)
(1.03006 0.00352055 0)
(1.02869 0.00336783 0)
(1.02738 0.00322109 0)
(1.02613 0.00308014 0)
(1.02493 0.00294482 0)
(1.02378 0.00281494 0)
(1.02268 0.00269033 0)
(1.02164 0.00257082 0)
(1.02064 0.00245624 0)
(1.01968 0.00234642 0)
(1.01877 0.00224119 0)
(1.0179 0.00214038 0)
(1.01706 0.00204385 0)
(1.01627 0.00195143 0)
(1.01551 0.00186297 0)
(1.01478 0.00177832 0)
(1.01409 0.00169733 0)
(1.01343 0.00161987 0)
(1.0128 0.00154579 0)
(1.0122 0.00147497 0)
(1.01163 0.00140727 0)
(1.01108 0.00134257 0)
(1.01056 0.00128074 0)
(1.01006 0.00122167 0)
(1.00959 0.00116524 0)
(1.00913 0.00111135 0)
(1.0087 0.00105989 0)
(1.00829 0.00101076 0)
(1.0079 0.000963857 0)
(1.00752 0.000919088 0)
(1.00717 0.000876361 0)
(1.00683 0.00083559 0)
(1.0065 0.00079669 0)
(1.00619 0.00075958 0)
(1.0059 0.000724181 0)
(1.00562 0.000690421 0)
(1.00535 0.000658225 0)
(1.00509 0.000627527 0)
(1.00485 0.000598259 0)
(1.00462 0.000570359 0)
(1.00439 0.000543766 0)
(1.00418 0.000518421 0)
(1.00398 0.000494271 0)
(1.00379 0.00047126 0)
(1.00361 0.000449338 0)
(1.00343 0.000428457 0)
(1.00327 0.00040857 0)
(1.00311 0.000389633 0)
(1.00296 0.000371602 0)
(1.00281 0.000354439 0)
(1.00267 0.000338102 0)
(1.00254 0.000322557 0)
(1.00242 0.000307767 0)
(1.0023 0.000293699 0)
(1.00218 0.00028032 0)
(1.00207 0.0002676 0)
(1.00197 0.00025551 0)
(1.00187 0.000244022 0)
(1.00178 0.000233109 0)
(1.00168 0.000222747 0)
(1.0016 0.000212911 0)
(1.00152 0.000203578 0)
(1.00144 0.000194728 0)
(1.00136 0.000186339 0)
(1.00129 0.000178391 0)
(1.00122 0.000170867 0)
(1.00115 0.000163749 0)
(1.00109 0.000157019 0)
(1.00103 0.000150663 0)
(1.00097 0.000144665 0)
(1.00091 0.000139012 0)
(1.00086 0.000133689 0)
(1.00081 0.000128685 0)
(1.00076 0.000123986 0)
(1.00071 0.000119589 0)
(1.00066 0.000115456 0)
(1.00062 0.000111662 0)
(1.00057 0.000107941 0)
(1.00054 0.000105055 0)
(1.00047 0.000100724 0)
(1.00001 -0.000276485 0)
(1.00016 -0.000829356 0)
(1.00047 -0.00138258 0)
(1.00094 -0.00193666 0)
(1.00158 -0.00249213 0)
(1.00237 -0.00304946 0)
(1.00331 -0.00360912 0)
(1.00442 -0.00417155 0)
(1.00569 -0.00473715 0)
(1.00712 -0.00530628 0)
(1.00871 -0.00587929 0)
(1.01047 -0.00645644 0)
(1.01239 -0.00703799 0)
(1.01448 -0.00762409 0)
(1.01674 -0.00821487 0)
(1.01917 -0.00881037 0)
(1.02177 -0.00941055 0)
(1.02454 -0.0100153 0)
(1.02748 -0.0106244 0)
(1.0306 -0.0112376 0)
(1.0339 -0.0118545 0)
(1.03737 -0.0124746 0)
(1.04102 -0.0130973 0)
(1.04485 -0.0137219 0)
(1.04886 -0.0143477 0)
(1.05305 -0.0149735 0)
(1.05743 -0.0155986 0)
(1.06198 -0.0162216 0)
(1.06671 -0.0168412 0)
(1.07161 -0.0174563 0)
(1.0767 -0.0180652 0)
(1.08196 -0.0186663 0)
(1.08739 -0.019258 0)
(1.09299 -0.0198384 0)
(1.09876 -0.0204058 0)
(1.10469 -0.020958 0)
(1.11078 -0.0214933 0)
(1.11702 -0.0220093 0)
(1.12341 -0.0225041 0)
(1.12994 -0.0229755 0)
(1.13661 -0.0234212 0)
(1.1434 -0.0238392 0)
(1.1503 -0.0242274 0)
(1.15732 -0.0245835 0)
(1.16444 -0.0249055 0)
(1.17164 -0.0251915 0)
(1.17893 -0.0254395 0)
(1.18628 -0.0256478 0)
(1.19369 -0.0258147 0)
(1.20114 -0.0259386 0)
(1.20862 -0.0260182 0)
(1.21612 -0.0260522 0)
(1.22362 -0.0260396 0)
(1.23112 -0.0259796 0)
(1.23859 -0.0258713 0)
(1.24603 -0.0257143 0)
(1.25341 -0.0255082 0)
(1.26073 -0.025253 0)
(1.26796 -0.0249486 0)
(1.27511 -0.0245952 0)
(1.28214 -0.0241933 0)
(1.28906 -0.0237434 0)
(1.29583 -0.0232462 0)
(1.30246 -0.0227026 0)
(1.30893 -0.0221136 0)
(1.31521 -0.0214806 0)
(1.32132 -0.0208051 0)
(1.32722 -0.0200887 0)
(1.33291 -0.0193336 0)
(1.33837 -0.0185422 0)
(1.34361 -0.0177175 0)
(1.3486 -0.0168628 0)
(1.35334 -0.015982 0)
(1.35783 -0.0150795 0)
(1.36205 -0.0141601 0)
(1.36601 -0.0132287 0)
(1.36969 -0.0122907 0)
(1.37311 -0.0113513 0)
(1.37625 -0.0104153 0)
(1.37912 -0.0094872 0)
(1.38173 -0.00857057 0)
(1.38407 -0.00766804 0)
(1.38615 -0.00678106 0)
(1.38797 -0.00590979 0)
(1.38955 -0.00505307 0)
(1.39087 -0.00420848 0)
(1.39195 -0.00337246 0)
(1.39279 -0.00254056 0)
(1.39338 -0.00170766 0)
(1.39373 -0.000868365 0)
(1.39383 -1.72811e-05 0)
(1.39369 0.000850526 0)
(1.39328 0.00173938 0)
(1.39262 0.0026526 0)
(1.39169 0.00359227 0)
(1.39048 0.00455917 0)
(1.38899 0.00555263 0)
(1.3872 0.00657059 0)
(1.38512 0.00760968 0)
(1.38274 0.0086653 0)
(1.38005 0.00973185 0)
(1.37705 0.0108029 0)
(1.37374 0.0118716 0)
(1.37012 0.0129306 0)
(1.36621 0.0139726 0)
(1.36199 0.0149902 0)
(1.35749 0.0159767 0)
(1.3527 0.0169256 0)
(1.34766 0.017831 0)
(1.34235 0.0186877 0)
(1.33681 0.0194913 0)
(1.33105 0.0202381 0)
(1.32508 0.0209251 0)
(1.31892 0.0215501 0)
(1.3126 0.0221115 0)
(1.30612 0.0226086 0)
(1.29951 0.023041 0)
(1.29279 0.0234091 0)
(1.28598 0.0237135 0)
(1.27909 0.0239554 0)
(1.27214 0.0241365 0)
(1.26515 0.0242585 0)
(1.25814 0.0243236 0)
(1.25112 0.0243343 0)
(1.24411 0.024293 0)
(1.23712 0.0242025 0)
(1.23017 0.0240656 0)
(1.22326 0.0238853 0)
(1.21642 0.0236644 0)
(1.20965 0.023406 0)
(1.20296 0.0231131 0)
(1.19636 0.0227886 0)
(1.18987 0.0224354 0)
(1.18348 0.0220565 0)
(1.17721 0.0216547 0)
(1.17106 0.0212326 0)
(1.16503 0.0207928 0)
(1.15914 0.0203379 0)
(1.15338 0.0198703 0)
(1.14776 0.0193922 0)
(1.14228 0.0189058 0)
(1.13694 0.0184131 0)
(1.13174 0.0179159 0)
(1.12669 0.0174161 0)
(1.12179 0.0169153 0)
(1.11703 0.016415 0)
(1.11241 0.0159166 0)
(1.10794 0.0154213 0)
(1.10361 0.0149303 0)
(1.09942 0.0144446 0)
(1.09537 0.0139651 0)
(1.09146 0.0134928 0)
(1.08768 0.0130282 0)
(1.08403 0.0125721 0)
(1.08052 0.012125 0)
(1.07713 0.0116873 0)
(1.07386 0.0112595 0)
(1.07072 0.0108419 0)
(1.06769 0.0104347 0)
(1.06478 0.0100382 0)
(1.06198 0.00965246 0)
(1.05929 0.00927762 0)
(1.05671 0.00891372 0)
(1.05423 0.00856077 0)
(1.05184 0.00821875 0)
(1.04956 0.00788758 0)
(1.04736 0.00756718 0)
(1.04526 0.00725744 0)
(1.04324 0.0069582 0)
(1.04131 0.00666931 0)
(1.03945 0.00639059 0)
(1.03768 0.00612185 0)
(1.03598 0.00586287 0)
(1.03435 0.00561344 0)
(1.03279 0.00537334 0)
(1.0313 0.00514232 0)
(1.02988 0.00492016 0)
(1.02851 0.0047066 0)
(1.02721 0.00450141 0)
(1.02596 0.00430433 0)
(1.02477 0.00411512 0)
(1.02363 0.00393354 0)
(1.02254 0.00375933 0)
(1.0215 0.00359225 0)
(1.0205 0.00343208 0)
(1.01955 0.00327856 0)
(1.01864 0.00313146 0)
(1.01778 0.00299056 0)
(1.01695 0.00285563 0)
(1.01616 0.00272646 0)
(1.01541 0.00260282 0)
(1.01469 0.00248452 0)
(1.014 0.00237133 0)
(1.01334 0.00226308 0)
(1.01272 0.00215956 0)
(1.01212 0.00206059 0)
(1.01155 0.00196598 0)
(1.01101 0.00187557 0)
(1.01049 0.00178917 0)
(1.00999 0.00170663 0)
(1.00952 0.00162779 0)
(1.00907 0.0015525 0)
(1.00864 0.0014806 0)
(1.00823 0.00141195 0)
(1.00784 0.00134642 0)
(1.00747 0.00128387 0)
(1.00712 0.00122417 0)
(1.00678 0.00116721 0)
(1.00646 0.00111286 0)
(1.00615 0.00106102 0)
(1.00586 0.00101156 0)
(1.00558 0.0009644 0)
(1.00531 0.000919423 0)
(1.00506 0.000876537 0)
(1.00481 0.000835651 0)
(1.00458 0.000796675 0)
(1.00436 0.000759526 0)
(1.00415 0.000724122 0)
(1.00395 0.000690385 0)
(1.00376 0.000658241 0)
(1.00358 0.000627619 0)
(1.00341 0.00059845 0)
(1.00324 0.000570671 0)
(1.00308 0.000544218 0)
(1.00293 0.000519032 0)
(1.00279 0.000495057 0)
(1.00265 0.000472238 0)
(1.00252 0.000450524 0)
(1.0024 0.000429865 0)
(1.00228 0.000410214 0)
(1.00217 0.000391527 0)
(1.00206 0.00037376 0)
(1.00196 0.000356873 0)
(1.00186 0.000340826 0)
(1.00176 0.000325584 0)
(1.00167 0.00031111 0)
(1.00159 0.000297372 0)
(1.0015 0.000284336 0)
(1.00143 0.000271975 0)
(1.00135 0.000260257 0)
(1.00128 0.000249156 0)
(1.00121 0.000238647 0)
(1.00114 0.000228705 0)
(1.00108 0.000219305 0)
(1.00102 0.000210428 0)
(1.00096 0.00020205 0)
(1.00091 0.000194154 0)
(1.00085 0.00018672 0)
(1.0008 0.000179731 0)
(1.00075 0.000173167 0)
(1.0007 0.000167028 0)
(1.00066 0.000161253 0)
(1.00061 0.000155961 0)
(1.00056 0.000150757 0)
(1.00053 0.000146744 0)
(1.00047 0.000140664 0)
(1.00001 -0.000355111 0)
(1.00016 -0.00106521 0)
(1.00047 -0.00177577 0)
(1.00094 -0.00248748 0)
(1.00157 -0.00320099 0)
(1.00236 -0.00391694 0)
(1.0033 -0.00463592 0)
(1.00441 -0.0053585 0)
(1.00567 -0.00608521 0)
(1.0071 -0.00681654 0)
(1.00869 -0.00755292 0)
(1.01044 -0.00829473 0)
(1.01236 -0.00904226 0)
(1.01445 -0.00979576 0)
(1.0167 -0.0105554 0)
(1.01912 -0.0113212 0)
(1.02172 -0.0120931 0)
(1.02448 -0.0128711 0)
(1.02742 -0.0136548 0)
(1.03054 -0.014444 0)
(1.03383 -0.015238 0)
(1.0373 -0.0160363 0)
(1.04095 -0.0168382 0)
(1.04478 -0.0176427 0)
(1.0488 -0.0184488 0)
(1.05299 -0.0192553 0)
(1.05736 -0.0200609 0)
(1.06192 -0.020864 0)
(1.06665 -0.0216632 0)
(1.07157 -0.0224565 0)
(1.07666 -0.0232421 0)
(1.08193 -0.0240178 0)
(1.08738 -0.0247817 0)
(1.09299 -0.0255312 0)
(1.09878 -0.026264 0)
(1.10473 -0.0269776 0)
(1.11084 -0.0276693 0)
(1.11711 -0.0283365 0)
(1.12352 -0.0289764 0)
(1.13008 -0.0295861 0)
(1.13678 -0.030163 0)
(1.1436 -0.0307042 0)
(1.15055 -0.0312069 0)
(1.15761 -0.0316683 0)
(1.16476 -0.0320858 0)
(1.17201 -0.0324567 0)
(1.17935 -0.0327788 0)
(1.18675 -0.0330495 0)
(1.1942 -0.0332667 0)
(1.20171 -0.0334285 0)
(1.20924 -0.033533 0)
(1.2168 -0.0335786 0)
(1.22436 -0.033564 0)
(1.23191 -0.0334881 0)
(1.23944 -0.0333499 0)
(1.24693 -0.0331487 0)
(1.25437 -0.0328842 0)
(1.26175 -0.0325562 0)
(1.26905 -0.0321647 0)
(1.27625 -0.03171 0)
(1.28334 -0.0311927 0)
(1.29031 -0.0306134 0)
(1.29715 -0.0299731 0)
(1.30383 -0.0292729 0)
(1.31035 -0.0285144 0)
(1.3167 -0.027699 0)
(1.32285 -0.0268287 0)
(1.3288 -0.0259059 0)
(1.33455 -0.0249332 0)
(1.34006 -0.0239137 0)
(1.34534 -0.0228512 0)
(1.35038 -0.02175 0)
(1.35517 -0.0206151 0)
(1.3597 -0.019452 0)
(1.36397 -0.0182668 0)
(1.36796 -0.0170659 0)
(1.37168 -0.0158561 0)
(1.37513 -0.014644 0)
(1.37831 -0.0134359 0)
(1.38121 -0.0122374 0)
(1.38384 -0.0110531 0)
(1.3862 -0.00988649 0)
(1.3883 -0.00873942 0)
(1.39013 -0.00761216 0)
(1.39171 -0.00650332 0)
(1.39304 -0.00540986 0)
(1.39412 -0.00432732 0)
(1.39495 -0.00325007 0)
(1.39553 -0.00217163 0)
(1.39586 -0.00108515 0)
(1.39594 1.62087e-05 0)
(1.39576 0.00113881 0)
(1.39533 0.00228812 0)
(1.39463 0.00346837 0)
(1.39366 0.00468228 0)
(1.3924 0.00593084 0)
(1.39086 0.00721322 0)
(1.38903 0.00852682 0)
(1.38689 0.0098673 0)
(1.38445 0.0112288 0)
(1.3817 0.0126041 0)
(1.37864 0.0139851 0)
(1.37527 0.0153627 0)
(1.37158 0.0167277 0)
(1.36759 0.0180705 0)
(1.36331 0.0193819 0)
(1.35873 0.0206528 0)
(1.35387 0.0218751 0)
(1.34875 0.023041 0)
(1.34337 0.024144 0)
(1.33775 0.0251782 0)
(1.3319 0.0261389 0)
(1.32585 0.0270223 0)
(1.31962 0.0278254 0)
(1.31321 0.0285464 0)
(1.30666 0.029184 0)
(1.29998 0.0297381 0)
(1.29318 0.0302089 0)
(1.28629 0.0305974 0)
(1.27933 0.0309052 0)
(1.27231 0.0311344 0)
(1.26526 0.0312873 0)
(1.25818 0.0313668 0)
(1.2511 0.0313759 0)
(1.24403 0.0313182 0)
(1.23698 0.0311969 0)
(1.22998 0.0310159 0)
(1.22303 0.030779 0)
(1.21614 0.0304899 0)
(1.20933 0.0301525 0)
(1.2026 0.0297708 0)
(1.19597 0.0293486 0)
(1.18944 0.0288897 0)
(1.18303 0.0283978 0)
(1.17673 0.0278765 0)
(1.17056 0.0273293 0)
(1.16452 0.0267596 0)
(1.15861 0.0261707 0)
(1.15283 0.0255655 0)
(1.1472 0.0249472 0)
(1.14171 0.0243183 0)
(1.13637 0.0236816 0)
(1.13117 0.0230394 0)
(1.12612 0.022394 0)
(1.12121 0.0217475 0)
(1.11645 0.0211019 0)
(1.11184 0.0204589 0)
(1.10737 0.0198201 0)
(1.10305 0.019187 0)
(1.09887 0.018561 0)
(1.09483 0.0179431 0)
(1.09092 0.0173345 0)
(1.08715 0.0167361 0)
(1.08352 0.0161487 0)
(1.08001 0.0155731 0)
(1.07663 0.0150097 0)
(1.07338 0.0144591 0)
(1.07025 0.0139217 0)
(1.06723 0.0133978 0)
(1.06433 0.0128878 0)
(1.06155 0.0123917 0)
(1.05887 0.0119096 0)
(1.0563 0.0114417 0)
(1.05383 0.010988 0)
(1.05146 0.0105483 0)
(1.04918 0.0101227 0)
(1.047 0.00971098 0)
(1.04491 0.00931297 0)
(1.0429 0.00892852 0)
(1.04098 0.00855739 0)
(1.03914 0.00819937 0)
(1.03738 0.0078542 0)
(1.03569 0.0075216 0)
(1.03407 0.00720129 0)
(1.03252 0.00689299 0)
(1.03104 0.00659638 0)
(1.02963 0.00631115 0)
(1.02827 0.006037 0)
(1.02698 0.0057736 0)
(1.02574 0.00552064 0)
(1.02456 0.00527779 0)
(1.02342 0.00504475 0)
(1.02234 0.00482118 0)
(1.02131 0.00460678 0)
(1.02032 0.00440125 0)
(1.01938 0.00420426 0)
(1.01848 0.00401553 0)
(1.01762 0.00383476 0)
(1.0168 0.00366166 0)
(1.01602 0.00349595 0)
(1.01527 0.00333734 0)
(1.01455 0.00318558 0)
(1.01387 0.00304041 0)
(1.01322 0.00290155 0)
(1.0126 0.00276878 0)
(1.01201 0.00264184 0)
(1.01144 0.0025205 0)
(1.01091 0.00240455 0)
(1.01039 0.00229375 0)
(1.0099 0.0021879 0)
(1.00943 0.0020868 0)
(1.00899 0.00199024 0)
(1.00856 0.00189804 0)
(1.00816 0.00181002 0)
(1.00777 0.00172599 0)
(1.0074 0.00164579 0)
(1.00705 0.00156925 0)
(1.00671 0.00149621 0)
(1.0064 0.00142653 0)
(1.00609 0.00136006 0)
(1.0058 0.00129666 0)
(1.00552 0.00123619 0)
(1.00526 0.00117853 0)
(1.00501 0.00112355 0)
(1.00477 0.00107113 0)
(1.00454 0.00102117 0)
(1.00432 0.000973542 0)
(1.00411 0.000928156 0)
(1.00392 0.000884907 0)
(1.00373 0.000843701 0)
(1.00355 0.000804446 0)
(1.00337 0.000767056 0)
(1.00321 0.000731446 0)
(1.00306 0.000697537 0)
(1.00291 0.000665252 0)
(1.00276 0.00063452 0)
(1.00263 0.00060527 0)
(1.0025 0.000577437 0)
(1.00238 0.000550956 0)
(1.00226 0.000525767 0)
(1.00215 0.000501814 0)
(1.00204 0.000479041 0)
(1.00194 0.000457395 0)
(1.00184 0.000436827 0)
(1.00175 0.00041729 0)
(1.00166 0.000398739 0)