/*--------------------------------*- C++ -*----------------------------------*\
| =========                 |                                                 |
| \\      /  F ield         | OpenFOAM: The Open Source CFD Toolbox           |
|  \\    /   O peration     | Version:  2312                                  |
|   \\  /    A nd           | Website:  www.openfoam.com                      |
|    \\/     M anipulation  |                                                 |
\*---------------------------------------------------------------------------*/
FoamFile
{
    version     2.0;
    format      ascii;
    arch        "LSB;label=32;scalar=64";
    class       volScalarField;
    location    "0.015";
    object      G;
}
// * * * * * * * * * * * * * * * * * * * * * * * * * * * * * * * * * * * * * //

dimensions      [1 0 -3 0 0 0 0];

internalField   nonuniform List<scalar> 
900
(
89539.1
108182
114116
116833
118509
119706
120603
121288
121816
122221
122530
122759
122921
123024
123075
123075
123024
122921
122759
122530
122221
121816
121288
120603
119706
118509
116834
114116
108183
89539.2
66962.5
85074.6
94835.6
100341
103724
106003
107631
108835
109739
110421
110931
111305
111567
111733
111814
111814
111733
111567
111305
110932
110421
109740
108835
107632
106004
103725
100342
94836.1
85075.1
66962.9
57537.4
71298.1
80902.8
87477
91943.1
95056.4
97294
98941.9
100172
101093
101777
102275
102622
102841
102947
102947
102841
102622
102275
101777
101093
100172
98941.6
97293.7
95056.1
91942.7
87476.7
80902.4
71297.8
57537
50895.6
61564.4
69921.6
76393.8
81182.9
84694
87283
89210.6
90654.4
91735.3
92537.4
93120.1
93525.1
93780.5
93904
93904.1
93780.6
93525.3
93120.4
92537.8
91735.7
90654.9
89211.2
87283.6
84694.6
81183.5
76394.5
69922.2
61564.7
50896
45121.8
53720
60792.2
66668.6
71286.7
74827.1
77515
79550.2
81087.9
82243.8
83102.7
83726.5
84159.7
84432.7
84564.8
84565
84433.5
84160.9
83728.3
83104.9
82246.4
81090.9
79553.5
77518.7
74830.8
71290.3
66672.3
60795.9
53723.6
45125.3
39711
46833.8
52783.6
57918.4
62122.5
65457.4
68055
70056.6
71586.3
72744.2
73608
74236.8
74673.8
74949.3
75082.4
75082.5
74949.5
74674.2
74237.2
73608.5
72744.6
71586.9
70057.4
68056
65458.5
62123.5
57919.3
52784.5
46834.7
39711.9
34650.4
40625.4
45633.7
50041.3
53745.1
56755
59147.3
61019.1
62465.4
63568.5
64395.8
64999.9
65420.5
65685.8
65813.9
65813.5
65684.6
65418.4
64996.9
64391.9
63563.7
62460
61013.5
59141.8
56749.7
53739.8
50035.8
45627.9
40619.7
34644.6
29939.5
35008.6
39223.5
42969.1
46167.1
48808
50938.7
52626.7
53943.3
54954.6
55717
56275.7
56665.6
56911.9
57030.9
57030.5
56910.7
56663.5
56272.6
55712.9
54949.5
53937.4
52620.5
50932.7
48802.2
46161.3
42963.1
39217.2
35002.2
29932.9
25639.5
29941
33485.7
36644.8
39368.5
41640.7
43493.3
44975.1
46140
47040.4
47722.5
48224.2
48575.4
48798
48906.1
48906.5
48799.3
48577.4
48226.4
47724.6
47042.2
46141.4
44976.5
43494.9
41642.5
39370.4
36646.6
33487.2
29942.3
25640.4
21764.9
25412.1
28385.2
31031.4
33326.9
35253.6
36835.7
38110.2
39118.5
39902
40498.2
40938.4
41247.7
41444.4
41540.7
41542.3
41449.1
41254.9
40947.4
40508.2
39912.5
39129.3
38121.3
36847.2
35265.5
33339
31043.4
28397
25423.6
21775.9
18322.2
21409.1
23894.4
26096.4
28014.1
29629.3
30961.4
32040.1
32897.7
33567.1
34078.5
34457.4
34724.6
34895.2
34979.3
34981.6
34902
34735.1
34470.7
34093.6
33583.4
32914.7
32057.8
30979.8
29648.3
28033.4
26115.8
23913.6
21428
18340.6
15304.3
17909.4
19979
21799.8
23389.6
24730.8
25839.7
26740.8
27460
28023.3
28455
28775.9
29002.8
29148.1
29220
29222.4
29155
29013.6
28789.8
28471.2
28041
27478.9
26760.8
25860.6
24752.5
23411.8
21822.2
20001.3
17931.5
15325.8
12691.4
14880.8
16597.4
18093.6
19402.3
20507.1
21421.3
22165.9
22761.8
23229.7
23589.3
23857.1
24046.9
24168.6
24228.8
24230.9
24174.5
24056.3
23869.4
23603.8
23246
22779.5
22184.9
21441.4
20528.2
19424
18115.6
16619.4
14902.7
12712.9
10453.4
12284.5
13702.5
14924.7
15995
16898.5
17646.1
18255.6
18744.2
19128.7
19424.6
19645.4
19801.9
19902.4
19952.1
19953.6
19907
19809.3
19655.3
19436.6
19142.5
18759.5
18272.1
17663.8
16917.3
16014.4
14944.6
13722.5
12304.5
10473.1
8555.94
10078.6
11245.4
12237.9
13107.8
13842
14448.8
14943.7
15340.8
15653.6
15894.6
16074.6
16202.3
16284.2
16324.7
16325.9
16287.7
16208.1
16082.4
15904.3
15664.9
15353.4
14957.4
14463.7
13857.9
13124.4
12255.1
11262.7
10096
8573.09
6961.37
8220.06
9176.3
9977.99
10680.7
11273.9
11763.2
12162
12482.2
12734.6
12929.2
13074.5
13177.7
13243.8
13276.5
13277.5
13246.7
13182.4
13081
12937.2
12743.9
12492.7
12173.5
11775.6
11287.1
10694.7
9992.45
9190.98
8234.8
6975.99
5631.96
6666.51
7447.2
8091.4
8655.84
9132.38
9524.65
9844.06
10100.4
10302.5
10458.4
10574.8
10657.5
10710.6
10736.8
10737.7
10713
10661.6
10580.4
10465.2
10310.5
10109.3
9853.67
9535.04
9143.52
8667.59
8103.56
7459.58
6678.97
5644.34
4532.04
5377.57
6012.55
6527.7
6978.59
7359.48
7672.27
7926.55
8130.56
8291.36
8415.34
8508.01
8573.82
8616.11
8637.09
8637.85
8618.38
8577.52
8513
8421.43
8298.33
8138.23
7934.82
7681.14
7368.92
6988.54
6538
6023.04
5388.13
4542.54
3629.09
4315.66
4830.24
5240.35
5598.63
5901.59
6149.81
6351.16
6512.6
6639.81
6737.87
6811.18
6863.27
6896.79
6913.47
6914.18
6898.88
6866.67
6815.73
6743.37
6646.05
6519.4
6358.42
6157.5
5909.73
5607.16
5249.16
4839.19
4324.67
3638.03
2891.9
3446.56
3862.1
4187.25
4470.5
4710.36
4906.46
5065.15
5192.25
5292.37
5369.53
5427.23
5468.24
5494.67
5507.87
5508.53
5496.6
5471.35
5431.37
5374.51
5297.98
5198.33
5071.58
4913.22
4717.45
4477.88
4194.85
3869.8
3454.3
2899.57
2293.77
2739.68
3074.1
3330.92
3553.76
3742.84
3897.13
4021.65
4121.26
4199.68
4260.12
4305.3
4337.45
4358.19
4368.59
4369.18
4359.93
4340.25
4309.03
4264.59
4204.72
4126.69
4027.36
3903.09
3749.04
3560.18
3337.5
3080.76
2746.35
2300.37
1811.36
2168.11
2436.35
2638.5
2813.01
2961.43
3082.36
3179.67
3257.41
3318.58
3365.71
3400.94
3426.02
3442.22
3450.38
3450.9
3443.76
3428.51
3404.25
3369.68
3323.05
3262.23
3184.73
3087.6
2966.85
2818.6
2644.21
2442.11
2173.87
1817.04
1424.44
1708.52
1922.97
2081.59
2217.64
2333.66
2428.11
2503.88
2564.3
2611.83
2648.43
2675.79
2695.27
2707.88
2714.25
2714.7
2709.22
2697.44
2678.68
2651.9
2615.75
2568.53
2508.31
2432.69
2338.37
2222.49
2086.52
1927.93
1713.47
1429.32
1115.72
1340.86
1511.77
1635.88
1741.51
1831.83
1905.34
1964.14
2010.93
2047.71
2076.03
2097.2
2112.27
2122.04
2126.99
2127.38
2123.19
2114.13
2099.68
2079.03
2051.11
2014.6
1967.98
1909.31
1835.9
1745.67
1640.11
1516.02
1345.1
1119.89
870.581
1048.19
1183.96
1280.83
1362.5
1432.54
1489.56
1535.04
1571.15
1599.51
1621.34
1637.65
1649.28
1656.81
1660.65
1660.98
1657.79
1650.85
1639.76
1623.9
1602.41
1574.3
1538.34
1492.96
1436.02
1366.05
1284.43
1187.58
1051.8
874.127
676.804
816.273
923.787
999.198
1062.1
1116.2
1160.28
1195.35
1223.12
1244.91
1261.68
1274.21
1283.14
1288.93
1291.89
1292.17
1289.74
1284.46
1275.98
1263.83
1247.37
1225.79
1198.15
1163.16
1119.14
1065.1
1002.24
926.841
819.313
679.793
524.26
633.264
718.121
776.692
824.945
866.561
900.533
927.483
948.772
965.455
978.289
987.878
994.711
999.149
1001.43
1001.66
999.825
995.808
989.355
980.089
967.51
951.007
929.832
902.95
869.029
827.463
779.243
720.677
635.807
526.759
404.427
489.158
555.859
601.216
638.069
669.928
696.001
716.639
732.895
745.618
755.402
762.711
767.92
771.307
773.052
773.239
771.862
768.822
763.928
756.888
747.319
734.749
718.59
698.007
671.976
640.157
603.329
557.977
491.265
406.499
312.394
378.22
430.693
465.881
494.036
518.417
538.429
554.242
566.657
576.357
583.813
589.382
593.352
595.935
597.27
597.423
596.389
594.092
590.383
585.038
577.762
568.191
555.857
540.092
520.112
495.764
467.63
432.445
379.964
314.112
222.533
269.419
307.547
332.764
352.576
369.79
384.007
395.239
404.035
410.902
416.182
420.129
422.943
424.777
425.727
425.841
425.115
423.495
420.875
417.097
411.952
405.184
396.449
385.253
371.062
353.873
334.076
308.862
270.729
223.826
)
;

boundaryField
{
    fixedWall_Bottom
    {
        type            calculated;
        value           nonuniform List<scalar> 
30
(
120101
122015
123180
124096
124808
125373
125821
126176
126455
126673
126840
126965
127053
127109
127137
127137
127109
127053
126965
126841
126673
126455
126176
125821
125373
124809
124096
123180
122016
120101
)
;
    }
    fixedWall_Right
    {
        type            calculated;
        value           nonuniform List<scalar> 
30
(
60425.9
54445.2
49905.7
45428.2
40879.9
36288.3
31816.3
27587.7
23678.5
20132.4
16968.7
14187.3
11773.5
9702.78
7944.66
6465.88
5232.62
4212.11
3373.68
2689.4
2134.33
1686.66
1327.52
1040.84
813.056
632.855
490.866
379.22
293.37
209.647
)
;
    }
    fixedWall_Left
    {
        type            calculated;
        value           nonuniform List<scalar> 
30
(
60425.9
54444.8
49906.1
45427.9
40876.5
36287.5
31822.2
27594.3
23677.7
20121.7
16950.8
14166.2
11752.5
9683.54
7927.89
6451.6
5220.54
4201.87
3364.94
2681.9
2127.88
1681.1
1322.74
1036.75
809.585
629.927
488.417
377.189
291.686
208.378
)
;
    }
    fixedWall_Top
    {
        type            calculated;
        value           nonuniform List<scalar> 
30
(
220.355
266.478
304.108
328.971
348.508
365.5
379.538
390.63
399.317
406.098
411.313
415.212
417.992
419.804
420.742
420.854
420.137
418.535
415.947
412.215
407.133
400.447
391.821
380.765
366.752
349.785
330.263
305.403
267.77
221.633
)
;
    }
    frontAndBack
    {
        type            empty;
    }
}


// ************************************************************************* //
