/*--------------------------------*- C++ -*----------------------------------*\
| =========                 |                                                 |
| \\      /  F ield         | OpenFOAM: The Open Source CFD Toolbox           |
|  \\    /   O peration     | Version:  2312                                  |
|   \\  /    A nd           | Website:  www.openfoam.com                      |
|    \\/     M anipulation  |                                                 |
\*---------------------------------------------------------------------------*/
FoamFile
{
    version     2.0;
    format      ascii;
    arch        "LSB;label=32;scalar=64";
    class       volScalarField;
    location    "0.015";
    object      ILambda_8_0;
}
// * * * * * * * * * * * * * * * * * * * * * * * * * * * * * * * * * * * * * //

dimensions      [1 0 -3 0 0 0 0];

internalField   nonuniform List<scalar> 
900
(
8501.73
16388.9
18575.5
18614.4
18261.8
18040.2
17970.6
17972.2
17990.3
18004.5
18012
18015
18015.8
18015.9
18015.7
18015.5
18015.4
18015.4
18015.3
18015.3
18015.3
18015.3
18015.3
18015.3
18015.3
18015.3
18015.3
18015.3
18015.3
18015.3
810.611
7911.39
14402.4
17803.1
18766.8
18643
18309.6
18082.8
17984.7
17960
17963.4
17972.3
17979.4
17983.5
17985.6
17986.4
17986.7
17986.7
17986.7
17986.7
17986.7
17986.7
17986.7
17986.7
17986.7
17986.7
17986.7
17986.7
17986.7
17986.7
-697.79
1718.81
7461.22
13292.2
17079.6
18691.8
18989.6
18798.1
18554.5
18393.5
18315
18286.1
18280
18281.7
18284.7
18287
18288.4
18289.1
18289.5
18289.6
18289.6
18289.7
18289.7
18289.7
18289.6
18289.6
18289.6
18289.6
18289.6
18289.6
-424.39
-586.353
2061.78
7131.99
12438.6
16264.7
18268.2
18977
19046.4
18910.3
18765.9
18669.3
18618
18595.5
18587.7
18586.1
18586.5
18587.3
18588
18588.4
18588.6
18588.7
18588.7
18588.7
18588.7
18588.7
18588.7
18588.7
18588.7
18588.7
-80.5784
-722.561
-386.533
2275.97
6775.8
11464.6
15044.4
17173.3
18160.5
18479.9
18499.9
18428.5
18354.6
18303.6
18274.6
18260.5
18254.6
18252.5
18252.1
18252.1
18252.3
18252.4
18252.5
18252.6
18252.6
18252.6
18252.6
18252.6
18252.6
18252.6
40.9818
-322.122
-807.256
-142.147
2416.36
6291.52
10257.7
13394.7
15423.7
16517.5
16999.7
17154.9
17168.5
17137.9
17104.3
17080
17065.4
17057.7
17054.1
17052.6
17052.1
17051.9
17051.9
17052
17052
17052
17052
17052
17052.1
17052.1
41.4694
-45.2424
-497.499
-740.864
153.859
2484.96
5694.38
8913.23
11518
13302
14359.2
14903.1
15140.3
15220.2
15232.2
15221.7
15208
15197.3
15190.6
15186.9
15185
15184.1
15183.7
15183.6
15183.6
15183.6
15183.6
15183.6
15183.6
15183.6
17.753
45.0637
-173.853
-565.974
-547.543
450.704
2464.01
5026.87
7548.19
9618.53
11094
12026.1
12552.9
12818.5
12935.5
12977.6
12986.9
12984.5
12979.5
12975.3
12972.4
12970.7
12969.8
12969.4
12969.2
12969.1
12969.1
12969.1
12969.1
12969.1
2.85581
44.4621
-12.484
-274.666
-519.68
-296.878
684.973
2343.59
4326.1
6242.36
7829.94
8993.68
9762.72
10225.7
10480.6
10608.4
10665.9
10688
10694.2
10694.4
10692.9
10691.4
10690.3
10689.6
10689.2
10689
10688.8
10688.8
10688.8
10688.8
-2.10399
23.889
32.3198
-86.4587
-309.4
-396.417
-58.1692
824.411
2137.28
3628.98
5047.9
6229.33
7112.99
7716.44
8096.57
8318.7
8439.3
8499.9
8527.75
8539.11
8542.91
8543.62
8543.31
8542.82
8542.41
8542.13
8541.97
8541.88
8541.83
8541.81
-2.39255
8.77103
29.508
-5.23166
-137.442
-281.028
-246.556
127.264
869.569
1874.23
2969.57
3996.45
4853.46
5503.87
5959.06
6255.61
6436.57
6540.34
6596.28
6624.56
6637.84
6643.53
6645.65
6646.25
6646.28
6646.16
6646.02
6645.92
6645.86
6645.82
-1.49563
1.69551
17.0069
16.4347
-43.1347
-151.366
-215.07
-108.679
246.328
839.648
1586.57
2373.59
3101.77
3709.82
4176.19
4508.73
4731.03
4871.2
4954.89
5002.29
5027.78
5040.76
5046.97
5049.75
5050.86
5051.25
5051.33
5051.32
5051.28
5051.25
-0.713547
-0.574944
7.52717
15.3328
-4.30689
-65.4143
-134.93
-138.583
-2.71128
304.493
759.962
1301.55
1856.11
2363.13
2786.23
3113.24
3349.79
3511.15
3615.53
3679.81
3717.6
3738.84
3750.26
3756.11
3758.97
3760.28
3760.84
3761.06
3761.12
3761.14
-0.272088
-0.861531
2.53868
9.38835
6.51198
-21.4421
-69.4371
-102.405
-70.0002
66.64
315.905
654.211
1038.41
1422.35
1769.6
2058.94
2283.82
2448.34
2562.37
2637.66
2685.18
2713.94
2730.66
2740.01
2745.04
2747.64
2748.93
2749.53
2749.8
2749.93
-0.0762266
-0.603437
0.491354
4.61125
6.71604
-3.43709
-29.9936
-60.3641
-66.52
-17.9108
103.667
296.452
540.9
808.202
1069.81
1304.08
1498.9
1650.93
1763.14
1841.93
1894.81
1928.87
1949.97
1962.57
1969.84
1973.89
1976.07
1977.21
1977.77
1978.09
-0.00698111
-0.32711
-0.133875
1.88452
4.3899
1.98717
-10.4184
-30.444
-45.1268
-35.188
16.2805
116.378
259.99
432.513
615.294
790.962
946.866
1076.21
1177.44
1252.67
1306.06
1342.39
1366.17
1381.19
1390.36
1395.79
1398.9
1400.63
1401.55
1402.11
0.00994396
-0.15051
-0.219291
0.614867
2.32758
2.55836
-2.2955
-13.3047
-25.7102
-29.1806
-11.7468
35.1145
113.124
216.898
336.201
459.253
575.65
678.103
762.887
829.367
879.056
914.625
939.105
955.355
965.785
972.271
976.187
978.484
979.788
980.609
0.00985187
-0.0599095
-0.158693
0.123688
1.06045
1.81351
0.361288
-4.89358
-12.8762
-18.8513
-15.6528
3.55603
42.5883
100.907
174.016
255.054
336.734
412.918
479.468
534.397
577.522
609.9
633.245
649.467
660.362
667.45
671.928
674.679
676.315
677.395
0.00632794
-0.0200603
-0.0896061
-0.0239391
0.416916
1.02917
0.848268
-1.32929
-5.72144
-10.5427
-12.0457
-5.71314
12.0608
42.6613
84.8467
135.252
189.43
242.956
292.259
335.028
370.233
397.895
418.737
433.857
444.448
451.633
456.363
459.392
461.27
462.561
0.0033839
-0.00492596
-0.0437094
-0.0463115
0.134923
0.506794
0.674712
-0.0743788
-2.21435
-5.28115
-7.56063
-6.44443
0.704839
15.6219
38.5621
68.2649
102.374
138.083
172.749
204.324
231.538
253.879
271.44
284.71
294.385
301.21
305.88
308.986
310.987
312.416
0.0016093
-0.000181834
-0.0190009
-0.0346705
0.0288708
0.221569
0.411005
0.234452
-0.693341
-2.38942
-4.18931
-4.75041
-2.41189
4.26022
15.9967
32.6049
53.0501
75.7569
98.9923
121.202
141.228
158.386
172.434
183.476
191.841
197.965
202.311
205.308
207.308
208.788
0.000696859
0.000809806
-0.00737673
-0.0201674
-0.003128
0.0854862
0.216122
0.22656
-0.123539
-0.965937
-2.10763
-2.93307
-2.50765
0.15321
5.7716
14.5825
26.2719
40.0744
54.9724
69.9161
84.0047
96.5918
107.316
116.075
122.958
128.181
132.02
134.759
136.649
138.096
0.000275996
0.000714559
-0.00248985
-0.0102039
-0.00860319
0.0278219
0.101884
0.15038
0.0444721
-0.334334
-0.970824
-1.61988
-1.80525
-0.928241
1.55818
5.9833
12.363
20.3994
29.5617
39.2099
48.719
57.5737
65.4189
72.069
77.4859
81.7416
84.976
87.3608
89.0599
90.4046
9.87696e-05
0.00044337
-0.000662018
-0.00466044
-0.00673631
0.0063949
0.0434922
0.084304
0.0673779
-0.0852993
-0.407169
-0.820455
-1.10577
-0.932401
0.0584059
2.15087
5.47255
9.9597
15.3756
21.368
27.5434
33.5353
39.053
43.9044
47.9971
51.3226
53.9339
55.9214
57.3816
58.5751
3.06191e-05
0.000235085
-7.69391e-05
-0.00194345
-0.00403179
-0.000171812
0.0166528
0.0423008
0.0505334
-0.00247326
-0.151664
-0.384444
-0.611225
-0.664531
-0.331842
0.58933
2.23524
4.63846
7.71961
11.3071
15.1748
19.0855
22.8272
26.2382
29.2162
31.7173
33.7447
35.3361
36.5406
37.5566
7.1224e-06
0.000112785
6.1702e-05
-0.000736065
-0.00210008
-0.0014413
0.00549341
0.0194019
0.0304379
0.0165974
-0.0465878
-0.166337
-0.312136
-0.406359
-0.333209
0.0356154
0.807729
2.04125
3.72953
5.80269
8.14338
10.6103
13.0628
15.3799
17.4728
19.2884
20.8067
22.0349
22.9918
23.8244
2.69675e-07
5.00947e-05
6.61343e-05
-0.00024621
-0.000993427
-0.00120182
0.00135725
0.00816894
0.0161999
0.0154246
-0.00854064
-0.0655008
-0.148637
-0.225514
-0.237696
-0.11069
0.228766
0.834072
1.72499
2.88258
4.25333
5.76025
7.31697
8.84124
10.2651
11.5403
12.6399
13.5562
14.2904
14.949
-1.08011e-06
2.07785e-05
4.3635e-05
-6.65855e-05
-0.000433796
-0.000742257
6.11834e-05
0.00312503
0.00788215
0.0101988
0.00252578
-0.0225538
-0.0660384
-0.116231
-0.145865
-0.114762
0.0222734
0.304839
0.757112
1.38181
2.15935
3.05185
4.01035
4.98303
5.92252
6.79103
7.56291
8.22502
8.77043
9.27473
-9.3663e-07
8.04394e-06
2.39712e-05
-9.51937e-06
-0.000175539
-0.000396278
-0.000215911
0.00105526
0.00355691
0.00577645
0.0040885
-0.00607985
-0.0272878
-0.0563406
-0.0815541
-0.0826229
-0.0336475
0.0914514
0.312846
0.639928
1.06899
1.58385
2.15897
2.76389
3.36796
3.94418
4.47179
4.93749
5.33162
5.7071
-6.50694e-07
2.43695e-06
1.19664e-05
8.39878e-06
-5.52754e-05
-0.000186567
-0.000227606
0.000174266
0.00130418
0.00283289
0.00333918
0.000445668
-0.00809058
-0.0225278
-0.0392676
-0.0498908
-0.0417434
-9.17645e-05
0.0887565
0.234321
0.439718
0.700878
1.00729
1.34388
1.69351
2.03943
2.36719
2.66605
2.92676
3.18392
)
;

boundaryField
{
    fixedWall_Bottom
    {
        type            greyDiffusiveRadiation;
        refValue        uniform 18049.5;
        refGradient     uniform 0;
        valueFraction   uniform 1;
        source          uniform 0;
        value           uniform 18049.5;
    }
    fixedWall_Right
    {
        type            greyDiffusiveRadiation;
        refValue        uniform 0;
        refGradient     uniform 0;
        valueFraction   uniform 0;
        source          uniform 0;
        value           nonuniform List<scalar> 
30
(
18015.3
17986.7
18289.6
18588.7
18252.6
17052.1
15183.6
12969.1
10688.8
8541.81
6645.82
5051.25
3761.14
2749.93
1978.09
1402.11
980.609
677.395
462.561
312.416
208.788
138.096
90.4046
58.5751
37.5566
23.8244
14.949
9.27473
5.7071
3.18392
)
;
    }
    fixedWall_Left
    {
        type            greyDiffusiveRadiation;
        refValue        uniform 0;
        refGradient     uniform 0;
        valueFraction   uniform 1;
        source          uniform 0;
        value           uniform 0;
    }
    fixedWall_Top
    {
        type            greyDiffusiveRadiation;
        refValue        uniform 0;
        refGradient     uniform 0;
        valueFraction   uniform 0;
        source          uniform 0;
        value           nonuniform List<scalar> 
30
(
-6.50694e-07
2.43695e-06
1.19664e-05
8.39878e-06
-5.52754e-05
-0.000186567
-0.000227606
0.000174266
0.00130418
0.00283289
0.00333918
0.000445668
-0.00809058
-0.0225278
-0.0392676
-0.0498908
-0.0417434
-9.17645e-05
0.0887565
0.234321
0.439718
0.700878
1.00729
1.34388
1.69351
2.03943
2.36719
2.66605
2.92676
3.18392
)
;
    }
    frontAndBack
    {
        type            empty;
    }
}


// ************************************************************************* //
