/*--------------------------------*- C++ -*----------------------------------*\
| =========                 |                                                 |
| \\      /  F ield         | OpenFOAM: The Open Source CFD Toolbox           |
|  \\    /   O peration     | Version:  2312                                  |
|   \\  /    A nd           | Website:  www.openfoam.com                      |
|    \\/     M anipulation  |                                                 |
\*---------------------------------------------------------------------------*/
FoamFile
{
    version     2.0;
    format      ascii;
    arch        "LSB;label=32;scalar=64";
    class       volScalarField;
    location    "0.015";
    object      ILambda_14_0;
}
// * * * * * * * * * * * * * * * * * * * * * * * * * * * * * * * * * * * * * //

dimensions      [1 0 -3 0 0 0 0];

internalField   nonuniform List<scalar> 
900
(
1900.64
5231.41
8028.94
10342.7
12243.7
13787.2
15017.3
15978.3
16714.9
17269.2
17678.6
17975.3
18186.1
18332.9
18432.9
18499.3
18542.2
18568.8
18584.7
18593.4
18597.7
18599.3
18599.3
18598.5
18597.4
18596.1
18595
18593.9
18593.1
18592.3
-507.196
-886.423
-637.269
116.967
1256.62
2663.96
4218.43
5810.31
7352.69
8784.47
10068.3
11186.5
12136.8
12927.2
13572.3
14090.1
14499.3
14818.4
15064.1
15251.1
15392
15497
15574.6
15631.4
15672.6
15702.3
15723.6
15738.7
15749.1
15758.3
-61.3823
-327.148
-658.918
-958.011
-1130.66
-1102.46
-838.528
-346.228
336.71
1156.52
2055.27
2979.22
3883.8
4735.61
5512.47
6202.13
6800.35
7308.9
7733.6
8082.7
8365.59
8591.89
8770.82
8910.77
9019.16
9102.33
9165.61
9213.43
9248.68
9280.99
5.39271
-2.85654
-61.0744
-191.541
-391.842
-629.502
-855.035
-1020.31
-1090.66
-1049.23
-896.083
-644.289
-315.028
67.0343
477.429
894.383
1300.2
1681.77
2030.37
2341.17
2612.49
2844.99
3040.98
3203.78
3337.22
3445.28
3531.82
3600.51
3653.59
3704.35
0.691793
8.22976
21.2793
27.8678
8.54654
-51.5953
-154.494
-289.038
-435.99
-573.947
-684.194
-753.609
-775.661
-749.958
-680.949
-576.282
-445.203
-297.233
-141.191
15.4023
166.615
308.148
437.212
552.312
652.988
739.557
812.865
874.17
923.884
973.874
-0.0756283
0.0466538
3.76335
13.8939
28.2229
39.389
38.5901
19.4827
-19.7339
-76.2081
-143.67
-214.216
-280.012
-334.563
-373.418
-394.36
-397.214
-383.426
-355.542
-316.707
-270.228
-219.253
-166.548
-114.385
-64.4992
-18.1119
24.0121
61.5486
93.7314
128.228
0.0491549
-0.251425
-0.765317
0.0873606
4.13604
11.7771
21.374
29.8682
33.937
31.0626
20.1583
1.68845
-22.6085
-50.2095
-78.34
-104.428
-126.418
-142.932
-153.292
-157.451
-155.861
-149.318
-138.815
-125.407
-110.119
-93.8667
-77.4268
-61.3794
-46.5678
-29.1962
0.0195079
0.0334169
-0.238164
-0.772982
-1.02634
-0.21498
2.18732
6.11649
10.8892
15.4227
18.5615
19.3786
17.3673
12.5025
5.18918
-3.861
-13.781
-23.6923
-32.8182
-40.557
-46.5148
-50.5048
-52.5221
-52.7061
-51.2959
-48.5883
-44.9026
-40.5338
-35.9419
-29.6488
-0.000948941
0.026923
0.022535
-0.122495
-0.430743
-0.760322
-0.849309
-0.439128
0.603184
2.22102
4.17782
6.12268
7.68002
8.53312
8.48168
7.46597
5.56034
2.94468
-0.135427
-3.41026
-6.62209
-9.55177
-12.0346
-13.9662
-15.3
-16.0398
-16.2289
-15.9311
-15.2966
-13.8768
-0.00177902
0.00330694
0.0191865
0.0212585
-0.0298601
-0.153986
-0.325159
-0.472243
-0.504199
-0.34504
0.0376253
0.620162
1.32813
2.05451
2.68373
3.11436
3.27568
3.13609
2.70325
2.0181
1.14495
0.160292
-0.857758
-1.83799
-2.72199
-3.46728
-4.04824
-4.45265
-4.70141
-4.69863
-0.000424984
-0.000795469
0.00297884
0.0110211
0.0155212
0.00349259
-0.0348508
-0.0980174
-0.170454
-0.226315
-0.237636
-0.183315
-0.0556583
0.137208
0.373155
0.620937
0.846477
1.01891
1.11523
1.12286
1.04026
0.875688
0.644943
0.368449
0.0683753
-0.233874
-0.519636
-0.773549
-0.988531
-1.15868
-2.6842e-05
-0.000380532
-0.000248029
0.0015375
0.0050403
0.00810611
0.00682387
-0.00255287
-0.021349
-0.0470953
-0.0736758
-0.0928716
-0.0966443
-0.0793456
-0.039206
0.0212118
0.0955644
0.175009
0.249822
0.310981
0.351415
0.366776
0.355694
0.319576
0.262083
0.188423
0.104573
0.016717
-0.0695342
-0.161094
1.14555e-05
-6.68443e-05
-0.000198146
-0.000105686
0.000570776
0.00189734
0.00334486
0.00382979
0.00212247
-0.00257418
-0.0101509
-0.0194284
-0.0283602
-0.0345174
-0.0356854
-0.0303949
-0.0182572
-4.41096e-05
0.0224701
0.0468391
0.0703569
0.0904648
0.105082
0.112824
0.11309
0.106039
0.0924713
0.0736716
0.0515212
0.0215477
4.40068e-06
-2.796e-06
-4.22152e-05
-8.9867e-05
-5.77429e-05
0.000163821
0.000612809
0.00117406
0.0015692
0.00143555
0.000463675
-0.00146425
-0.00419006
-0.00727964
-0.0101051
-0.0119816
-0.0123171
-0.010739
-0.00716728
-0.00182802
0.00479093
0.0120242
0.0191333
0.0254094
0.0302599
0.0332674
0.0342168
0.0330903
0.0302186
0.0238441
8.51222e-07
1.73755e-06
-3.95163e-06
-2.00191e-05
-3.74502e-05
-3.00501e-05
3.48255e-05
0.000173728
0.000365372
0.000543193
0.000608626
0.000461492
3.636e-05
-0.000668318
-0.0015782
-0.00255177
-0.00340662
-0.00395589
-0.00404519
-0.00358192
-0.00255153
-0.00101892
0.000883452
0.00297701
0.00506314
0.00694922
0.00847062
0.00950294
0.010033
0.00954781
9.49791e-08
5.91977e-07
4.09465e-07
-2.25314e-06
-8.18142e-06
-1.4503e-05
-1.37937e-05
3.41722e-06
4.32945e-05
0.00010302
0.000167832
0.000212706
0.000208568
0.000131103
-3.07429e-05
-0.000269278
-0.000557208
-0.000851579
-0.00110139
-0.00125692
-0.00127869
-0.00114419
-0.00085136
-0.00041859
0.000118512
0.000712515
0.0013107
0.00186023
0.00233067
0.00261379
-3.95742e-10
1.12073e-07
2.50117e-07
6.02789e-08
-9.77739e-07
-3.02558e-06
-5.25822e-06
-5.64857e-06
-1.52145e-06
9.1968e-06
2.6533e-05
4.74998e-05
6.61238e-05
7.4602e-05
6.52904e-05
3.29389e-05
-2.34883e-05
-9.9919e-05
-0.000187436
-0.000273612
-0.000344584
-0.000387391
-0.000392105
-0.000353367
-0.000271122
-0.000150514
-1.0201e-06
0.000164507
0.000334916
0.000499021
-3.18591e-09
1.35861e-08
5.83832e-08
9.23727e-08
-5.93849e-10
-3.64801e-07
-1.03768e-06
-1.7985e-06
-2.11061e-06
-1.23808e-06
1.46817e-06
6.21132e-06
1.24634e-05
1.88845e-05
2.3508e-05
2.41597e-05
1.90017e-05
7.05377e-06
-1.14479e-05
-3.49426e-05
-6.07134e-05
-8.52874e-05
-0.00010498
-0.000116468
-0.000117294
-0.00010621
-8.33228e-05
-5.0141e-05
-8.92427e-06
4.34097e-05
-9.50504e-10
5.11957e-10
9.04939e-09
2.47947e-08
3.22024e-08
-3.80175e-09
-1.22762e-07
-3.34969e-07
-5.8455e-07
-7.33285e-07
-5.83749e-07
5.65006e-08
1.28785e-06
3.03983e-06
5.03234e-06
6.79665e-06
7.757e-06
7.3547e-06
5.18385e-06
1.10498e-06
-4.69071e-06
-1.16812e-05
-1.90768e-05
-2.59322e-05
-3.12857e-05
-3.42981e-05
-3.43676e-05
-3.12256e-05
-2.49999e-05
-1.34218e-05
-1.92482e-10
-2.58261e-10
8.60149e-10
4.35403e-09
9.47433e-09
1.09524e-08
-1.31774e-09
-3.81519e-08
-1.02761e-07
-1.8169e-07
-2.40232e-07
-2.26667e-07
-8.63243e-08
2.17767e-07
6.84137e-07
1.25944e-06
1.8379e-06
2.27558e-06
2.41691e-06
2.12768e-06
1.3268e-06
9.56754e-09
-1.74264e-06
-3.76823e-06
-5.84539e-06
-7.72229e-06
-9.15127e-06
-9.92448e-06
-9.9429e-06
-8.38906e-06
-3.07339e-11
-9.21602e-11
-1.71814e-11
5.25062e-10
1.79436e-09
3.39009e-09
3.68287e-09
-1.57147e-10
-1.10862e-08
-3.01577e-08
-5.42904e-08
-7.49813e-08
-7.89799e-08
-5.12888e-08
2.00449e-08
1.38669e-07
2.95868e-07
4.69162e-07
6.24347e-07
7.20795e-07
7.19e-07
5.88756e-07
3.16192e-07
-9.18003e-08
-6.06643e-07
-1.1808e-06
-1.75353e-06
-2.25858e-06
-2.64918e-06
-2.71295e-06
-3.86485e-12
-2.02312e-11
-3.04557e-11
2.53528e-11
2.43966e-10
6.72459e-10
1.15924e-09
1.22744e-09
1.00402e-10
-3.02848e-09
-8.50444e-09
-1.56615e-08
-2.24668e-08
-2.55967e-08
-2.1057e-08
-5.27068e-09
2.36284e-08
6.46623e-08
1.13398e-07
1.62099e-07
2.00693e-07
2.18406e-07
2.05729e-07
1.56346e-07
6.86138e-08
-5.36837e-08
-2.01427e-07
-3.60934e-07
-5.20149e-07
-6.38658e-07
-3.17586e-13
-3.49939e-12
-8.65451e-12
-7.93026e-12
1.90649e-11
9.82024e-11
2.36101e-10
3.83023e-10
4.04576e-10
9.08477e-11
-7.77455e-10
-2.31086e-09
-4.37602e-09
-6.49909e-09
-7.86319e-09
-7.4316e-09
-4.18902e-09
2.54839e-09
1.28333e-08
2.58829e-08
4.00381e-08
5.29158e-08
6.17392e-08
6.379e-08
5.6896e-08
3.98626e-08
1.2769e-08
-2.28567e-08
-6.51639e-08
-1.09849e-07
9.99323e-15
-4.97898e-13
-1.74862e-12
-3.13626e-12
-1.50086e-12
9.35294e-12
3.60681e-11
7.89859e-11
1.23062e-10
1.3146e-10
4.81584e-11
-1.86142e-10
-6.05801e-10
-1.18715e-09
-1.82274e-09
-2.31577e-09
-2.40324e-09
-1.80821e-09
-3.12278e-10
2.16821e-09
5.52171e-09
9.41448e-09
1.33075e-08
1.65184e-08
1.83195e-08
1.80548e-08
1.52549e-08
9.75053e-09
1.54748e-09
-9.92066e-09
1.19013e-14
-5.55378e-14
-2.88245e-13
-7.25587e-13
-1.01815e-12
-9.32545e-14
3.82975e-12
1.24153e-11
2.54425e-11
3.8599e-11
4.20032e-11
2.08692e-11
-4.07297e-11
-1.53165e-10
-3.1319e-10
-4.97193e-10
-6.58705e-10
-7.32387e-10
-6.45054e-10
-3.32227e-10
2.43085e-10
1.07376e-09
2.09842e-09
3.20087e-09
4.22043e-09
4.97196e-09
5.2724e-09
4.97459e-09
3.97331e-09
1.789e-09
3.44177e-15
-3.4721e-15
-3.94859e-14
-1.32713e-13
-2.68352e-13
-3.06547e-13
8.82332e-14
1.40937e-12
4.06895e-12
7.94555e-12
1.185e-11
1.31779e-11
8.06578e-12
-7.73079e-12
-3.72588e-11
-8.04158e-11
-1.32206e-10
-1.81883e-10
-2.1353e-10
-2.0831e-10
-1.48167e-10
-2.03213e-11
1.7837e-10
4.38233e-10
7.35611e-10
1.03421e-09
1.28884e-09
1.45225e-09
1.48294e-09
1.21543e-09
7.55502e-16
4.25382e-16
-4.19738e-15
-2.03804e-14
-5.33814e-14
-9.20004e-14
-8.75756e-14
5.93238e-14
4.8215e-13
1.28267e-12
2.41729e-12
3.56773e-12
4.05775e-12
2.88735e-12
-1.0652e-12
-8.67378e-12
-2.00947e-11
-3.43228e-11
-4.89273e-11
-6.01035e-11
-6.31132e-11
-5.30921e-11
-2.61026e-11
1.97672e-11
8.34947e-11
1.6062e-10
2.43281e-10
3.21039e-10
3.8347e-10
3.89025e-10
1.44928e-16
2.23309e-16
-2.19339e-16
-2.59703e-15
-8.88155e-15
-1.96515e-14
-2.99332e-14
-2.41614e-14
2.60516e-14
1.5623e-13
3.91623e-13
7.18937e-13
1.05503e-12
1.22661e-12
9.77128e-13
1.27032e-14
-1.91201e-12
-4.88153e-12
-8.70798e-12
-1.2855e-11
-1.64299e-11
-1.8265e-11
-1.70897e-11
-1.17708e-11
-1.58193e-12
1.35524e-11
3.2885e-11
5.48172e-11
7.7509e-11
9.28403e-11
2.55372e-17
5.77683e-17
4.52259e-17
-2.42939e-16
-1.25496e-15
-3.47736e-15
-6.79649e-15
-9.38561e-15
-6.53683e-15
9.63949e-15
4.84988e-14
1.16361e-13
2.09541e-13
3.06762e-13
3.64141e-13
3.16436e-13
8.73319e-14
-3.90742e-13
-1.14996e-12
-2.1594e-12
-3.30406e-12
-4.37844e-12
-5.10024e-12
-5.14586e-12
-4.20431e-12
-2.04126e-12
1.43699e-12
6.13398e-12
1.18777e-11
1.75268e-11
4.47509e-18
1.30809e-17
2.29339e-17
1.81131e-18
-1.3515e-16
-5.29397e-16
-1.30915e-15
-2.40064e-15
-3.23035e-15
-2.43267e-15
2.21299e-15
1.33471e-14
3.29186e-14
6.04602e-14
9.11549e-14
1.1441e-13
1.13795e-13
6.90585e-14
-3.95422e-14
-2.25012e-13
-4.86666e-13
-8.04127e-13
-1.13415e-12
-1.41181e-12
-1.55677e-12
-1.48448e-12
-1.12092e-12
-4.19515e-13
6.55172e-13
2.08509e-12
)
;

boundaryField
{
    fixedWall_Bottom
    {
        type            greyDiffusiveRadiation;
        refValue        uniform 18049.5;
        refGradient     uniform 0;
        valueFraction   uniform 1;
        source          uniform 0;
        value           uniform 18049.5;
    }
    fixedWall_Right
    {
        type            greyDiffusiveRadiation;
        refValue        uniform 0;
        refGradient     uniform 0;
        valueFraction   uniform 0;
        source          uniform 0;
        value           nonuniform List<scalar> 
30
(
18592.3
15758.3
9280.99
3704.35
973.874
128.228
-29.1962
-29.6488
-13.8768
-4.69863
-1.15868
-0.161094
0.0215477
0.0238441
0.00954781
0.00261379
0.000499021
4.34097e-05
-1.34218e-05
-8.38906e-06
-2.71295e-06
-6.38658e-07
-1.09849e-07
-9.92066e-09
1.789e-09
1.21543e-09
3.89025e-10
9.28403e-11
1.75268e-11
2.08509e-12
)
;
    }
    fixedWall_Left
    {
        type            greyDiffusiveRadiation;
        refValue        uniform 0;
        refGradient     uniform 0;
        valueFraction   uniform 1;
        source          uniform 0;
        value           uniform 0;
    }
    fixedWall_Top
    {
        type            greyDiffusiveRadiation;
        refValue        uniform 0;
        refGradient     uniform 0;
        valueFraction   uniform 0;
        source          uniform 0;
        value           nonuniform List<scalar> 
30
(
4.47509e-18
1.30809e-17
2.29339e-17
1.81131e-18
-1.3515e-16
-5.29397e-16
-1.30915e-15
-2.40064e-15
-3.23035e-15
-2.43267e-15
2.21299e-15
1.33471e-14
3.29186e-14
6.04602e-14
9.11549e-14
1.1441e-13
1.13795e-13
6.90585e-14
-3.95422e-14
-2.25012e-13
-4.86666e-13
-8.04127e-13
-1.13415e-12
-1.41181e-12
-1.55677e-12
-1.48448e-12
-1.12092e-12
-4.19515e-13
6.55172e-13
2.08509e-12
)
;
    }
    frontAndBack
    {
        type            empty;
    }
}


// ************************************************************************* //
