/*--------------------------------*- C++ -*----------------------------------*\
| =========                 |                                                 |
| \\      /  F ield         | OpenFOAM: The Open Source CFD Toolbox           |
|  \\    /   O peration     | Version:  2312                                  |
|   \\  /    A nd           | Website:  www.openfoam.com                      |
|    \\/     M anipulation  |                                                 |
\*---------------------------------------------------------------------------*/
FoamFile
{
    version     2.0;
    format      ascii;
    arch        "LSB;label=32;scalar=64";
    class       volScalarField;
    location    "0.015";
    object      ILambda_10_0;
}
// * * * * * * * * * * * * * * * * * * * * * * * * * * * * * * * * * * * * * //

dimensions      [1 0 -3 0 0 0 0];

internalField   nonuniform List<scalar> 
900
(
6394.18
13955.5
17378.9
18485.6
18584.1
18383.3
18178.8
18049
17986.2
17964
17960.9
17964.7
17969.7
17973.7
17976.4
17978.1
17979
17979.4
17979.7
17979.8
17979.8
17979.8
17979.8
17979.8
17979.8
17979.8
17979.8
17979.8
17979.8
17979.8
-290.73
3709.39
9276.95
13944.6
16871.1
18265.5
18701.7
18691.1
18542.9
18395.6
18290.7
18228
18195.3
18180.5
18175
18173.9
18174.3
18175.1
18175.8
18176.4
18176.7
18176.9
18177
18177.1
18177.1
18177.2
18177.2
18177.2
18177.2
18177.2
-604.401
-521.035
2007.09
6291.87
10846.4
14518
16912
18199
18751.2
18905.1
18884.7
18811.6
18739.6
18685.7
18650.8
18630.4
18619.4
18614
18611.6
18610.7
18610.4
18610.4
18610.5
18610.6
18610.7
18610.7
18610.7
18610.8
18610.8
18610.8
-127.894
-777.743
-771.165
878.882
4123.32
8068.43
11732.9
14554.5
16430.7
17526.9
18087.5
18328.8
18403.6
18404.5
18380.4
18353.7
18332.2
18317.3
18308
18302.5
18299.5
18298
18297.2
18296.8
18296.7
18296.7
18296.7
18296.7
18296.7
18296.7
33.1513
-232.845
-791.849
-912.604
156.375
2515.31
5634.85
8808.95
11524.3
13565.8
14947.8
15801.1
16283.1
16530.3
16642.5
16684.1
16692.9
16688.8
16681.4
16674.5
16669.4
16665.9
16663.8
16662.5
16661.8
16661.4
16661.2
16661.1
16661.1
16661
25.2035
27.9269
-260.757
-750.416
-912.761
-228.3
1411.97
3707.27
6195.77
8485.28
10353.7
11740.8
12692.2
13300.9
13665.6
13870.5
13977.8
14029.4
14051.5
14059
14060.2
14059
14057.4
14055.9
14054.9
14054.1
14053.7
14053.4
14053.3
14053.2
2.43413
51.4334
12.7933
-260.629
-650.368
-791.701
-353.096
749.903
2352.66
4170.63
5933.33
7458.89
8667.12
9556.76
10172.2
10575
10825.6
10974.1
11057.9
11102.7
11125.4
11136
11140.5
11142
11142.3
11142.1
11141.8
11141.5
11141.3
11141.1
-3.98936
20.0769
56.2766
-8.02575
-237.017
-518.267
-616.483
-331.136
395.283
1474.51
2737.79
4010.56
5161.18
6117.23
6858.7
7401.16
7778.36
8029.01
8188.78
8286.72
8344.52
8377.37
8395.32
8404.72
8409.4
8411.58
8412.51
8412.85
8412.92
8412.92
-2.74772
1.40111
30.3875
45.2676
-26.3955
-199.769
-387.325
-444.993
-255.675
216.761
925.177
1771.88
2649.11
3468.66
4175.02
4745.05
5180.21
5496.83
5717.62
5865.8
5961.84
6022.06
6058.68
6080.28
6092.65
6099.51
6103.2
6105.11
6106.06
6106.6
-0.934479
-2.898
8.35582
30.4707
28.0443
-36.7685
-158.212
-275.645
-303.935
-176.442
128.198
584.601
1137.03
1720.96
2280.26
2776.23
3189.17
3515.14
3760.91
3938.84
4063.08
4147.03
4202.06
4237.13
4258.89
4272.06
4279.84
4284.32
4286.81
4288.42
-0.106141
-2.09924
-0.057966
11.8453
24.0261
12.6269
-38.7433
-118.819
-188.471
-198.657
-112.237
82.8062
372.588
725.577
1103.96
1473.29
1808.19
2094.06
2325.9
2505.78
2640.01
2736.76
2804.33
2850.19
2880.5
2900.04
2912.35
2919.94
2924.48
2927.61
0.0912604
-0.882275
-1.47848
2.60388
11.5003
15.862
2.20074
-34.9841
-85.2476
-124.499
-125.039
-66.544
57.4578
239.229
461.018
701.005
938.607
1157.88
1348.85
1507.18
1632.96
1729.19
1800.39
1851.5
1887.18
1911.46
1927.61
1938.11
1944.75
1949.55
0.0794913
-0.244054
-0.983047
-0.244565
3.79015
9.038
8.88781
-3.36743
-28.5461
-58.7886
-79.7526
-76.0502
-36.7419
41.5131
154.327
291.735
441.288
590.934
730.971
854.934
959.595
1044.39
1110.65
1160.76
1197.55
1223.86
1242.22
1254.74
1263.04
1269.32
0.0398217
-0.0243774
-0.428215
-0.598969
0.694226
3.67787
6.11802
4.05116
-5.47083
-21.6525
-39.1596
-49.6703
-44.7593
-18.6297
30.3683
99.7115
183.814
275.64
368.238
455.846
534.438
601.803
657.296
701.429
735.438
760.907
779.492
792.737
801.898
809.132
0.0150966
0.0212438
-0.137998
-0.374507
-0.140572
1.0884
2.90769
3.65018
1.19027
-5.56844
-15.5287
-25.2912
-30.1268
-25.4828
-8.33388
22.0934
64.3336
115.26
170.925
227.37
281.235
330.086
372.492
407.919
436.524
458.925
475.988
488.665
497.79
505.296
0.00442034
0.0182508
-0.0289624
-0.165499
-0.211063
0.166499
1.07103
2.00267
1.91059
-0.243515
-4.74167
-10.6466
-15.8836
-17.8121
-14.002
-2.89822
15.8374
41.3491
71.8899
105.257
139.22
171.85
201.708
227.904
250.052
268.171
282.56
293.687
302.009
309.134
0.000834057
0.00940047
0.000812159
-0.0573771
-0.126344
-0.0579453
0.292249
0.855224
1.23489
0.836503
-0.799673
-3.64804
-7.03058
-9.72118
-10.2675
-7.38768
-0.294943
11.1433
26.4266
44.5804
64.3822
84.5861
104.099
122.085
138.007
151.609
162.862
171.912
178.936
185.192
-6.03373e-05
0.00382316
0.00483622
-0.014948
-0.056262
-0.0678732
0.0366626
0.293888
0.597417
0.685838
0.249539
-0.889458
-2.62082
-4.49545
-5.80668
-5.76655
-3.70665
0.764601
7.68873
16.7734
27.4761
39.1217
51.0192
62.5556
73.2538
82.7964
91.02
97.8946
103.428
108.554
-0.000159781
0.00129378
0.0032238
-0.00190173
-0.020393
-0.0393509
-0.0203528
0.0750387
0.237413
0.376502
0.337783
-0.0279316
-0.773546
-1.78926
-2.79381
-3.38819
-3.15018
-1.73515
1.04824
5.20497
10.5648
16.8266
23.6191
30.5616
37.3135
43.6057
49.2543
54.1619
58.2559
62.2022
-0.000102036
0.000355126
0.00153781
0.000855218
-0.00593667
-0.017609
-0.0204609
0.0074454
0.0774449
0.167867
0.216436
0.138907
-0.13067
-0.596189
-1.17312
-1.69212
-1.9318
-1.6685
-0.726541
0.985636
3.46087
6.60052
10.2379
14.1696
18.1874
22.1033
25.7671
29.0761
31.9365
34.8068
-4.85416e-05
6.57754e-05
0.000609232
0.000867879
-0.00117252
-0.0065814
-0.0115808
-0.00648004
0.0186805
0.0633209
0.10751
0.11302
0.0369891
-0.146443
-0.425986
-0.743711
-1.00066
-1.07582
-0.852016
-0.240723
0.800792
2.26323
4.08977
6.1884
8.44825
10.7558
13.0081
15.1238
17.0191
19.0004
-1.96729e-05
-3.14379e-06
0.000207403
0.000482166
3.72166e-05
-0.00205454
-0.00520106
-0.00587679
0.00138033
0.0198295
0.0452465
0.0632546
0.0522257
-0.00820128
-0.1261
-0.28839
-0.457997
-0.578444
-0.58447
-0.415328
-0.026947
0.600006
1.45758
2.51322
3.71634
5.0067
6.3227
7.60954
8.80446
10.1074
-7.0634e-06
-1.10124e-05
5.96627e-05
0.000213543
0.00019354
-0.00049162
-0.00198879
-0.00326603
-0.00192783
0.00455092
0.0164049
0.029345
0.0342361
0.0196236
-0.0234185
-0.0959137
-0.187276
-0.274849
-0.327022
-0.309026
-0.189686
0.0526505
0.426376
0.925634
1.53191
2.21748
2.94969
3.69609
4.41494
5.23369
-2.25895e-06
-7.14142e-06
1.30503e-05
8.1552e-05
0.000130106
-5.07952e-05
-0.000651985
-0.00147134
-0.00162526
0.000225561
0.00497149
0.01183
0.0175603
0.0168287
0.00392585
-0.0246369
-0.0676084
-0.11755
-0.161076
-0.180784
-0.158357
-0.077959
0.0709009
0.291649
0.580307
0.926412
1.3148
1.72836
2.14187
2.63478
-6.27873e-07
-3.44682e-06
9.97175e-07
2.73462e-05
6.38761e-05
3.42476e-05
-0.000174518
-0.000572797
-0.000890792
-0.000545358
0.00109227
0.00415837
0.0077503
0.00974062
0.00721198
-0.002505
-0.0205053
-0.0451738
-0.0716775
-0.0923113
-0.097634
-0.0780948
-0.0257315
0.0644576
0.193736
0.359536
0.555965
0.775092
1.00288
1.28775
-1.38029e-07
-1.42943e-06
-1.04364e-06
7.90396e-06
2.65993e-05
3.12491e-05
-3.01345e-05
-0.000194797
-0.000402471
-0.000435927
2.90965e-05
0.00122701
0.00302233
0.00469834
0.00497753
0.00235269
-0.00433035
-0.0152208
-0.0289725
-0.0426017
-0.0517664
-0.0514092
-0.0366001
-0.00337758
0.0505996
0.125706
0.220333
0.331387
0.451647
0.609955
-1.39049e-08
-5.32378e-07
-8.47519e-07
1.80341e-06
9.80088e-06
1.71718e-05
3.47774e-06
-5.62085e-05
-0.000159006
-0.000236453
-0.000148327
0.00025958
0.00103651
0.00199635
0.00265339
0.00228967
0.000168772
-0.00415371
-0.0105208
-0.0179737
-0.0247362
-0.0284048
-0.0263012
-0.0159054
0.00473243
0.0366842
0.0799864
0.133781
0.194643
0.279334
8.08048e-09
-1.80555e-07
-4.45443e-07
1.96861e-07
3.21767e-06
7.72634e-06
6.70424e-06
-1.21384e-05
-5.56574e-05
-0.000107152
-0.000113999
1.46933e-06
0.000299265
0.000758328
0.00122262
0.00139287
0.000887364
-0.000632168
-0.00330174
-0.00691337
-0.0108391
-0.014051
-0.0152384
-0.0129984
-0.00605469
0.0065412
0.0252626
0.0501154
0.0796169
0.123261
7.26278e-09
-5.54785e-08
-1.95363e-07
-1.00376e-07
9.21129e-07
3.05691e-06
4.23503e-06
-6.76751e-07
-1.69891e-05
-4.28597e-05
-6.12592e-05
-3.88001e-05
6.18111e-05
0.000255584
0.000504702
0.000699766
0.000668363
0.00021766
-0.000795636
-0.00238681
-0.0043806
-0.00638607
-0.00781987
-0.0079756
-0.00612446
-0.00162545
0.00597503
0.0169175
0.0306289
0.0523541
4.50431e-09
-1.26461e-08
-7.70523e-08
-1.15008e-07
1.52542e-07
1.02312e-06
2.13527e-06
1.72185e-06
-3.08859e-06
-1.39417e-05
-2.73658e-05
-3.18334e-05
-9.31047e-06
5.65098e-05
0.000166658
0.000293432
0.000374568
0.000321253
4.15843e-05
-0.00052492
-0.00137107
-0.00239508
-0.00339201
-0.00406787
-0.00407426
-0.00305668
-0.000707632
0.00320959
0.00854049
0.0179034
)
;

boundaryField
{
    fixedWall_Bottom
    {
        type            greyDiffusiveRadiation;
        refValue        uniform 18049.5;
        refGradient     uniform 0;
        valueFraction   uniform 1;
        source          uniform 0;
        value           uniform 18049.5;
    }
    fixedWall_Right
    {
        type            greyDiffusiveRadiation;
        refValue        uniform 0;
        refGradient     uniform 0;
        valueFraction   uniform 0;
        source          uniform 0;
        value           nonuniform List<scalar> 
30
(
17979.8
18177.2
18610.8
18296.7
16661
14053.2
11141.1
8412.92
6106.6
4288.42
2927.61
1949.55
1269.32
809.132
505.296
309.134
185.192
108.554
62.2022
34.8068
19.0004
10.1074
5.23369
2.63478
1.28775
0.609955
0.279334
0.123261
0.0523541
0.0179034
)
;
    }
    fixedWall_Left
    {
        type            greyDiffusiveRadiation;
        refValue        uniform 0;
        refGradient     uniform 0;
        valueFraction   uniform 1;
        source          uniform 0;
        value           uniform 0;
    }
    fixedWall_Top
    {
        type            greyDiffusiveRadiation;
        refValue        uniform 0;
        refGradient     uniform 0;
        valueFraction   uniform 0;
        source          uniform 0;
        value           nonuniform List<scalar> 
30
(
4.50431e-09
-1.26461e-08
-7.70523e-08
-1.15008e-07
1.52542e-07
1.02312e-06
2.13527e-06
1.72185e-06
-3.08859e-06
-1.39417e-05
-2.73658e-05
-3.18334e-05
-9.31047e-06
5.65098e-05
0.000166658
0.000293432
0.000374568
0.000321253
4.15843e-05
-0.00052492
-0.00137107
-0.00239508
-0.00339201
-0.00406787
-0.00407426
-0.00305668
-0.000707632
0.00320959
0.00854049
0.0179034
)
;
    }
    frontAndBack
    {
        type            empty;
    }
}


// ************************************************************************* //
