/*--------------------------------*- C++ -*----------------------------------*\
| =========                 |                                                 |
| \\      /  F ield         | OpenFOAM: The Open Source CFD Toolbox           |
|  \\    /   O peration     | Version:  2312                                  |
|   \\  /    A nd           | Website:  www.openfoam.com                      |
|    \\/     M anipulation  |                                                 |
\*---------------------------------------------------------------------------*/
FoamFile
{
    version     2.0;
    format      ascii;
    arch        "LSB;label=32;scalar=64";
    class       volScalarField;
    location    "0.015";
    object      ILambda_13_0;
}
// * * * * * * * * * * * * * * * * * * * * * * * * * * * * * * * * * * * * * //

dimensions      [1 0 -3 0 0 0 0];

internalField   nonuniform List<scalar> 
900
(
3083.93
8016.83
11666.4
14251.5
16014.5
17160.3
17859.4
18253
18450.5
18529.6
18542.4
18522.1
18488.7
18453.1
18420.8
18393.9
18372.7
18356.7
18345
18336.6
18330.8
18326.8
18324.2
18322.4
18321.2
18320.5
18320
18319.7
18319.6
18319.4
-671.14
-492.83
973.268
3237.3
5862.75
8496.64
10890.6
12912.9
14527.4
15758.5
16661
17299.7
17736.9
18026.7
18212.5
18327.4
18395.4
18433.7
18453.5
18462.6
18465.7
18465.6
18464.1
18462.2
18460.4
18458.7
18457.4
18456.4
18455.6
18455
-162.451
-674.575
-1043.76
-968.629
-288.004
986.757
2702.67
4646.7
6618.65
8468.02
10102.3
11479.8
12596.7
13473
14141.2
14638.1
14999.5
15256.9
15436.7
15560.2
15643.5
15698.8
15734.8
15758
15772.5
15781.5
15787
15790.2
15792
15793.4
7.93172
-82.6911
-341.078
-714.497
-1041.5
-1133.03
-864.948
-214.495
757.459
1944.6
3230.55
4512.85
5714.7
6787.53
7707.83
8471.41
9087.14
9571.48
9944.22
10225.5
10434.1
10586.3
10695.8
10773.4
10827.7
10865.3
10891
10908.5
10920
10929.3
4.00172
24.2674
14.0224
-92.6665
-320.235
-617.71
-884.124
-1018.19
-954.079
-673.088
-197.297
425.1
1135.38
1876.63
2601.39
3275.11
3876.28
4394.74
4829.08
5183.91
5467.44
5689.61
5860.64
5990.23
6087
6158.31
6210.21
6247.58
6273.84
6296.23
-0.930913
5.4378
27.7444
46.7732
22.1673
-75.4812
-241.609
-439.353
-616.726
-725.478
-733.656
-629.975
-421.76
-129.376
220.213
599.048
982.137
1349.66
1687.71
1988.01
2247
2464.75
2643.76
2788.03
2902.26
2991.25
3059.58
3111.38
3149.64
3183.77
-0.241411
-1.72035
3.10693
20.002
41.3614
47.7773
20.4761
-47.4395
-147.597
-260.16
-360.995
-428.55
-448.352
-414.639
-329.664
-201.623
-42.1097
136.241
321.555
503.865
675.64
831.851
969.719
1088.3
1188.01
1270.2
1336.73
1389.78
1430.85
1469.26
0.144489
-0.754333
-2.00288
0.589943
10.2606
24.631
35.7539
34.2063
13.7848
-25.8174
-79.0426
-136.48
-187.629
-223.362
-237.519
-227.479
-193.922
-140.063
-70.6728
8.85332
93.2607
177.955
259.287
334.642
402.388
461.736
512.562
555.263
589.953
624.117
0.0787558
0.0187785
-0.812547
-1.73942
-0.759993
3.74783
11.3021
19.0394
22.8953
19.3477
6.78827
-13.9615
-39.9825
-67.1279
-91.0444
-108.038
-115.622
-112.711
-99.5296
-77.327
-48.0172
-13.8158
23.0631
60.6264
97.2339
131.653
163.055
191.005
214.904
239.847
0.0120468
0.0859151
-0.055813
-0.6014
-1.18788
-0.956626
0.848537
4.25268
8.33794
11.5354
12.21
9.23968
2.36729
-7.74882
-19.7386
-31.8657
-42.3934
-49.8828
-53.3756
-52.456
-47.2123
-38.1335
-25.9751
-11.6236
4.02003
20.1278
35.9994
51.1133
64.7985
80.087
-0.00291088
0.0291441
0.0535305
-0.0550801
-0.351911
-0.676632
-0.684069
-0.0432377
1.33736
3.19868
4.98591
6.02768
5.75228
3.85767
0.388507
-4.2855
-9.56472
-14.7497
-19.1695
-22.2817
-23.7319
-23.3715
-21.242
-17.5363
-12.5501
-6.63156
-0.139095
6.60715
13.1519
21.1059
-0.00216062
0.00377773
0.0239667
0.0284478
-0.0334913
-0.177748
-0.340497
-0.388919
-0.185672
0.332196
1.1038
1.94716
2.60921
2.8397
2.46101
1.41314
-0.234777
-2.30352
-4.54336
-6.68137
-8.46537
-9.6968
-10.2494
-10.0739
-9.19115
-7.67783
-5.64938
-3.23376
-0.658096
2.85203
-0.000645433
-0.000764749
0.00496596
0.0147824
0.0140558
-0.0164647
-0.0815795
-0.1574
-0.194454
-0.138151
0.044192
0.343292
0.703624
1.03586
1.24032
1.23295
0.96577
0.437246
-0.30852
-1.19176
-2.11242
-2.96685
-3.66259
-4.12891
-4.32246
-4.22821
-3.85683
-3.23552
-2.4497
-1.16087
-0.000108924
-0.000568625
0.000218693
0.0036576
0.0078875
0.006662
-0.00711473
-0.0350123
-0.0684534
-0.0894729
-0.0770996
-0.0164371
0.0936835
0.237645
0.385582
0.500368
0.546558
0.49862
0.34641
0.0969633
-0.227267
-0.59278
-0.960737
-1.29273
-1.55563
-1.72487
-1.78625
-1.73415
-1.59073
-1.22225
-1.51282e-06
-0.000176113
-0.000248121
0.000429485
0.0021483
0.00385529
0.00306502
-0.00279892
-0.0142947
-0.0284359
-0.0388302
-0.0376391
-0.0185774
0.0202888
0.0750307
0.136147
0.190499
0.224223
0.225774
0.188328
0.111064
-0.000793919
-0.137022
-0.28415
-0.42751
-0.553175
-0.649581
-0.707783
-0.729601
-0.668218
6.323e-06
-3.4943e-05
-0.000113302
-6.84517e-05
0.000335339
0.00111342
0.00177628
0.00137532
-0.00101722
-0.00561299
-0.0113973
-0.0161335
-0.0169564
-0.0113478
0.00187179
0.0218969
0.0458516
0.0692785
0.0870416
0.0943848
0.0878816
0.0660756
0.0297149
-0.0184152
-0.073973
-0.131726
-0.186286
-0.232469
-0.268361
-0.280144
2.7245e-06
-3.45074e-06
-3.03748e-05
-5.49423e-05
-3.07288e-06
0.000201409
0.000532576
0.000784068
0.000603301
-0.000342084
-0.00213526
-0.00443852
-0.00648045
-0.00723259
-0.00572316
-0.00137975
0.00571539
0.0147394
0.0242355
0.0323795
0.0373302
0.0375807
0.0322326
0.0211463
0.00495393
-0.0150514
-0.0371235
-0.0592056
-0.0799135
-0.0962888
7.64017e-07
6.57776e-07
-5.55161e-06
-1.82114e-05
-2.24517e-05
1.13886e-05
0.000105632
0.00024086
0.000334932
0.000259141
-0.000105105
-0.000790932
-0.001688
-0.00253349
-0.00296391
-0.00261471
-0.00123652
0.00120904
0.00450311
0.00818624
0.0116324
0.0141609
0.0151594
0.0141914
0.0110691
0.00588094
-0.00102834
-0.00908034
-0.017705
-0.0268043
1.63358e-07
4.71002e-07
-4.94167e-07
-4.18855e-06
-9.10453e-06
-7.988e-06
1.00397e-05
5.08877e-05
0.000104502
0.000139384
0.000109162
-2.83344e-05
-0.000286282
-0.000629252
-0.000968679
-0.00117775
-0.00112272
-0.000701735
0.000120484
0.00129204
0.00267315
0.00405536
0.00519586
0.00585893
0.00585565
0.0050747
0.00349817
0.00121164
-0.00162565
-0.0053509
2.5669e-08
1.58223e-07
1.15102e-07
-6.62725e-07
-2.43781e-06
-4.06145e-06
-2.45253e-06
6.15559e-06
2.31137e-05
4.39092e-05
5.67729e-05
4.51644e-05
-5.86315e-06
-0.000101507
-0.000230585
-0.00036354
-0.000456626
-0.00046166
-0.000338797
-6.87815e-05
0.000338699
0.000842794
0.00137598
0.00185416
0.00219016
0.00230782
0.0021536
0.00170651
0.000989238
-0.000235105
1.79668e-09
3.98075e-08
7.56564e-08
-3.41465e-08
-4.82015e-07
-1.22954e-06
-1.67151e-06
-6.01141e-07
3.23269e-06
1.00525e-05
1.79831e-05
2.27101e-05
1.83804e-05
-2.86281e-07
-3.53157e-05
-8.32415e-05
-0.000134287
-0.000173509
-0.000183804
-0.000150072
-6.34424e-05
7.5512e-05
0.000255432
0.000455015
0.000645868
0.000796769
0.000878368
0.000867856
0.000759439
0.000441632
-6.37416e-10
8.02065e-09
2.51556e-08
2.3298e-08
-6.09835e-08
-2.78896e-07
-5.65043e-07
-6.46554e-07
-7.50652e-08
1.55164e-06
4.22813e-06
7.21204e-06
8.94467e-06
7.36832e-06
6.23765e-07
-1.20687e-05
-2.96551e-05
-4.89282e-05
-6.48277e-05
-7.13592e-05
-6.2934e-05
-3.581e-05
1.0727e-05
7.37292e-05
0.000146655
0.000220136
0.000283256
0.000325072
0.000339699
0.000284846
-3.67245e-10
1.22684e-09
6.39139e-09
1.16754e-08
1.82859e-09
-4.64693e-08
-1.41845e-07
-2.431e-07
-2.37557e-07
3.53268e-08
7.01299e-07
1.73162e-06
2.842e-06
3.47575e-06
2.9135e-06
5.02758e-07
-4.05282e-06
-1.044e-05
-1.76146e-05
-2.38764e-05
-2.71468e-05
-2.53969e-05
-1.71305e-05
-1.80813e-06
1.98872e-05
4.60064e-05
7.35183e-05
9.86355e-05
0.000118693
0.000120271
-1.22532e-10
9.11746e-11
1.32654e-09
3.62898e-09
4.20663e-09
-3.70416e-09
-2.75282e-08
-6.6274e-08
-9.95402e-08
-8.33641e-08
3.81994e-08
3.03458e-07
6.93916e-07
1.10331e-06
1.33466e-06
1.1377e-06
2.84182e-07
-1.33721e-06
-3.63585e-06
-6.2744e-06
-8.68557e-06
-1.01552e-05
-9.95811e-06
-7.51798e-06
-2.55634e-06
4.80356e-06
1.40004e-05
2.40449e-05
3.40903e-05
4.06516e-05
-3.30097e-11
-2.57059e-11
2.17952e-10
8.96179e-10
1.68135e-09
1.06197e-09
-3.58121e-09
-1.4271e-08
-2.9143e-08
-3.9209e-08
-2.79804e-08
2.36377e-08
1.27013e-07
2.73074e-07
4.22824e-07
5.07108e-07
4.39223e-07
1.39595e-07
-4.33146e-07
-1.2537e-06
-2.21386e-06
-3.12554e-06
-3.74542e-06
-3.81759e-06
-3.12608e-06
-1.54618e-06
9.16703e-07
4.09638e-06
7.80703e-06
1.13982e-05
-7.74584e-12
-1.55459e-11
2.21023e-11
1.83947e-10
4.83268e-10
6.61944e-10
3.90895e-11
-2.30293e-09
-6.7911e-09
-1.22427e-08
-1.49673e-08
-8.95715e-09
1.21992e-08
5.17788e-08
1.05821e-07
1.60222e-07
1.9086e-07
1.67814e-07
6.34286e-08
-1.37517e-07
-4.28306e-07
-7.74474e-07
-1.11404e-06
-1.36469e-06
-1.4371e-06
-1.25203e-06
-7.57599e-07
5.22713e-08
1.1637e-06
2.55384e-06
-1.61783e-12
-5.24912e-12
-2.00892e-12
3.02995e-11
1.14396e-10
2.24496e-10
2.20111e-10
-1.72855e-10
-1.24874e-09
-3.04163e-09
-4.96232e-09
-5.56586e-09
-2.71084e-09
5.72701e-09
2.06599e-08
4.04682e-08
6.0111e-08
7.12214e-08
6.35102e-08
2.73952e-08
-4.26735e-08
-1.45048e-07
-2.68832e-07
-3.93711e-07
-4.92019e-07
-5.32874e-07
-4.87611e-07
-3.36946e-07
-6.92227e-08
3.67323e-07
-2.98541e-13
-1.43151e-12
-1.98822e-12
3.1797e-12
2.28007e-11
5.9924e-11
9.28447e-11
5.6896e-11
-1.49701e-10
-6.12955e-10
-1.30173e-09
-1.9543e-09
-2.0239e-09
-7.60248e-10
2.5327e-09
8.09724e-09
1.52988e-08
2.23528e-08
2.63715e-08
2.38278e-08
1.14116e-08
-1.28841e-08
-4.87119e-08
-9.26519e-08
-1.3808e-07
-1.75754e-07
-1.95054e-07
-1.86112e-07
-1.40996e-07
-2.79419e-08
-4.62701e-14
-3.42066e-13
-7.38891e-13
-2.27887e-13
3.64471e-12
1.35207e-11
2.78915e-11
3.45554e-11
6.65186e-12
-9.12276e-11
-2.81267e-10
-5.37416e-10
-7.51132e-10
-7.20783e-10
-1.87197e-10
1.07535e-09
3.1266e-09
5.72493e-09
8.24344e-09
9.68963e-09
8.85831e-09
4.6099e-09
-3.77512e-09
-1.62477e-08
-3.17412e-08
-4.81055e-08
-6.22583e-08
-7.06626e-08
-7.00715e-08
-4.74637e-08
-3.55958e-15
-7.47966e-14
-2.28684e-13
-3.18793e-13
2.35229e-13
2.45343e-12
7.05851e-12
1.27209e-11
1.38966e-11
2.98363e-14
-4.15386e-11
-1.17555e-10
-2.16987e-10
-3.00041e-10
-2.95275e-10
-1.11633e-10
3.31869e-10
1.06306e-09
2.01183e-09
2.98033e-09
3.64444e-09
3.59691e-09
2.4314e-09
-1.4556e-10
-4.19857e-09
-9.47221e-09
-1.53484e-08
-2.08916e-08
-2.51365e-08
-2.39214e-08
)
;

boundaryField
{
    fixedWall_Bottom
    {
        type            greyDiffusiveRadiation;
        refValue        uniform 18049.5;
        refGradient     uniform 0;
        valueFraction   uniform 1;
        source          uniform 0;
        value           uniform 18049.5;
    }
    fixedWall_Right
    {
        type            greyDiffusiveRadiation;
        refValue        uniform 0;
        refGradient     uniform 0;
        valueFraction   uniform 0;
        source          uniform 0;
        value           nonuniform List<scalar> 
30
(
18319.4
18455
15793.4
10929.3
6296.23
3183.77
1469.26
624.117
239.847
80.087
21.1059
2.85203
-1.16087
-1.22225
-0.668218
-0.280144
-0.0962888
-0.0268043
-0.0053509
-0.000235105
0.000441632
0.000284846
0.000120271
4.06516e-05
1.13982e-05
2.55384e-06
3.67323e-07
-2.79419e-08
-4.74637e-08
-2.39214e-08
)
;
    }
    fixedWall_Left
    {
        type            greyDiffusiveRadiation;
        refValue        uniform 0;
        refGradient     uniform 0;
        valueFraction   uniform 1;
        source          uniform 0;
        value           uniform 0;
    }
    fixedWall_Top
    {
        type            greyDiffusiveRadiation;
        refValue        uniform 0;
        refGradient     uniform 0;
        valueFraction   uniform 0;
        source          uniform 0;
        value           nonuniform List<scalar> 
30
(
-3.55958e-15
-7.47966e-14
-2.28684e-13
-3.18793e-13
2.35229e-13
2.45343e-12
7.05851e-12
1.27209e-11
1.38966e-11
2.98363e-14
-4.15386e-11
-1.17555e-10
-2.16987e-10
-3.00041e-10
-2.95275e-10
-1.11633e-10
3.31869e-10
1.06306e-09
2.01183e-09
2.98033e-09
3.64444e-09
3.59691e-09
2.4314e-09
-1.4556e-10
-4.19857e-09
-9.47221e-09
-1.53484e-08
-2.08916e-08
-2.51365e-08
-2.39214e-08
)
;
    }
    frontAndBack
    {
        type            empty;
    }
}


// ************************************************************************* //
