/*--------------------------------*- C++ -*----------------------------------*\
| =========                 |                                                 |
| \\      /  F ield         | OpenFOAM: The Open Source CFD Toolbox           |
|  \\    /   O peration     | Version:  2312                                  |
|   \\  /    A nd           | Website:  www.openfoam.com                      |
|    \\/     M anipulation  |                                                 |
\*---------------------------------------------------------------------------*/
FoamFile
{
    version     2.0;
    format      ascii;
    arch        "LSB;label=32;scalar=64";
    class       volScalarField;
    location    "0.015";
    object      ILambda_5_0;
}
// * * * * * * * * * * * * * * * * * * * * * * * * * * * * * * * * * * * * * //

dimensions      [1 0 -3 0 0 0 0];

internalField   nonuniform List<scalar> 
900
(
11655.4
18346.1
18656.8
18174.8
18013.8
18025.2
18051.5
18060.1
18059.8
18058.1
18057.1
18056.8
18056.7
18056.7
18056.7
18056.7
18056.7
18056.8
18056.8
18056.8
18056.8
18056.8
18056.8
18056.8
18056.8
18056.8
18056.8
18056.8
18056.8
18056.8
4099.66
14335.9
18545.4
18786.6
18224.2
17946.9
17915.9
17947.8
17969.5
17976.3
17976.7
17975.9
17975.3
17975.1
17975
17975
17975
17975
17975
17975
17975
17975
17975
17975
17975
17975
17975
17975
17975
17975
670.346
8745.51
16029.4
18844.7
18872.6
18317.8
18014.9
17952.2
17970.9
17992.7
18002.7
18005.5
18005.7
18005.4
18005.2
18005.1
18005
18005
18005
18005
18005
18005
18005
18005
18005
18005
18005
18005
18005
18005
-446.215
4081.82
11796.3
17311.1
19190.1
19073
18582.7
18305.1
18228
18230.1
18244.9
18254
18257.6
18258.6
18258.6
18258.5
18258.5
18258.4
18258.4
18258.4
18258.4
18258.4
18258.4
18258.4
18258.4
18258.4
18258.4
18258.4
18258.4
18258.4
-547.887
1185.88
7268.57
14048.1
18113.5
19319.5
19157.7
18774
18549.9
18474.5
18465.1
18472.1
18478.4
18481.5
18482.7
18482.9
18483
18482.9
18482.9
18482.9
18482.9
18482.9
18482.9
18482.9
18482.9
18482.9
18482.9
18482.9
18482.9
18482.9
-349.699
-164.541
3612.76
9937.55
15406.8
18255.5
19009.7
18870.3
18598.5
18433.3
18369.6
18355.5
18356.9
18360.3
18362.5
18363.5
18363.8
18363.9
18363.9
18363.9
18363.9
18363.9
18363.9
18363.9
18363.9
18363.9
18363.9
18363.9
18363.9
18363.9
-153.278
-552.115
1275.91
6104.83
11756.4
15834.9
17747
18220.4
18125.5
17947
17833.4
17784.8
17770.7
17769.2
17770.6
17771.9
17772.5
17772.8
17772.9
17772.9
17772.9
17772.9
17772.9
17772.9
17772.9
17772.9
17772.9
17772.9
17772.9
17772.9
-35.2058
-501.186
90.4303
3215.13
8086.64
12605
15467.1
16717.2
17021.1
16967.1
16856.8
16782.8
16748.5
16736.7
16734.2
16734.4
16735
16735.4
16735.6
16735.7
16735.7
16735.7
16735.7
16735.7
16735.7
16735.7
16735.7
16735.7
16735.7
16735.7
15.7214
-330.461
-349.973
1375.25
5029.99
9252.39
12585
14511.1
15317.4
15517.4
15492.3
15427.6
15381.6
15358.8
15349.9
15347.5
15347.2
15347.4
15347.6
15347.7
15347.7
15347.8
15347.8
15347.8
15347.8
15347.8
15347.8
15347.8
15347.8
15347.8
28.4049
-177.477
-410.724
375.549
2816.58
6293.51
9591.91
11915
13175.5
13691.7
13825.6
13817.8
13781.8
13754.4
13739.9
13733.8
13731.7
13731.3
13731.3
13731.4
13731.4
13731.5
13731.5
13731.5
13731.5
13731.5
13731.5
13731.5
13731.5
13731.5
24.9502
-77.1344
-326.294
-73.4056
1391.25
3978.49
6876.47
9273.61
10830.2
11639.4
11968.2
12058.5
12059.6
12040.7
12025
12016.1
12012.1
12010.6
12010.1
12010.1
12010.1
12010.1
12010.1
12010.2
12010.2
12010.2
12010.2
12010.2
12010.2
12010.2
17.316
-23.0161
-215.804
-216.132
569.619
2335.69
4653.97
6862.21
8517.64
9531.36
10043.5
10251.9
10312.8
10317.5
10308.2
10299.5
10294.3
10291.8
10290.8
10290.4
10290.3
10290.3
10290.3
10290.4
10290.4
10290.4
10290.4
10290.4
10290.4
10290.4
10.4425
1.02017
-125.552
-216.596
150.018
1264.96
2980.88
4842.34
6422.06
7523.58
8169.82
8490.28
8621.67
8662.33
8667.86
8663.72
8659.1
8656.13
8654.61
8653.96
8653.72
8653.64
8653.63
8653.63
8653.64
8653.64
8653.64
8653.64
8653.64
8653.64
5.63539
8.82021
-65.0901
-167.477
-31.8242
620.581
1808.17
3267.14
4652.23
5731.52
6444.21
6849.34
7047.88
7130.18
7157.07
7162.05
7160.5
7158.16
7156.53
7155.64
7155.24
7155.08
7155.02
7155.01
7155.01
7155.01
7155.01
7155.01
7155.01
7155.01
2.72444
9.30638
-29.5834
-112.873
-88.9204
263.225
1036.93
2111.82
3245.02
4220.32
4932.57
5383.7
5634.2
5756.12
5807.3
5824.85
5828.83
5828.49
5827.37
5826.5
5826
5825.76
5825.66
5825.62
5825.61
5825.6
5825.6
5825.6
5825.6
5825.6
1.14631
7.28594
-10.9755
-69.1107
-89.6324
82.8538
559.07
1309.2
2183.6
3008.45
3667.31
4124.82
4405.38
4558.45
4632.7
4664.28
4675.58
4678.54
4678.68
4678.19
4677.74
4677.47
4677.33
4677.27
4677.24
4677.24
4677.23
4677.23
4677.23
4677.23
0.377315
4.94403
-2.36598
-39.0786
-70.6328
2.79024
279.883
778.415
1419.72
2079.39
2651.37
3082.36
3369.96
3541.88
3634.46
3679.31
3698.64
3705.82
3707.91
3708.2
3708.01
3707.79
3707.65
3707.57
3707.54
3707.52
3707.51
3707.51
3707.51
3707.51
0.0483516
3.058
0.958631
-20.4798
-49.0389
-25.3983
126.566
443.218
892.87
1395.52
1866.14
2248.19
2522.97
2700.57
2804.61
2860.08
2886.96
2898.7
2903.21
2904.63
2904.91
2904.86
2904.76
2904.69
2904.65
2904.63
2904.62
2904.61
2904.61
2904.61
-0.0648939
1.76181
1.80335
-9.86978
-31.284
-29.719
48.1642
240.768
543.457
910.476
1280.14
1601.78
1849.48
2021.04
2129.08
2191.35
2224.31
2240.3
2247.37
2250.16
2251.1
2251.33
2251.34
2251.29
2251.26
2251.24
2251.22
2251.22
2251.22
2251.22
-0.0846442
0.95449
1.66077
-4.26087
-18.6875
-24.9655
11.6231
123.852
320.094
578.036
856.771
1115.73
1328.21
1484.97
1590.23
1655.12
1692.02
1711.45
1720.89
1725.12
1726.82
1727.43
1727.6
1727.62
1727.61
1727.59
1727.58
1727.57
1727.57
1727.57
-0.0710868
0.487285
1.23912
-1.52818
-10.5448
-18.145
-3.09862
59.4526
182.257
357.345
559.988
760.432
935.028
1071.59
1168.83
1232.46
1270.99
1292.67
1304.03
1309.57
1312.08
1313.11
1313.49
1313.61
1313.64
1313.63
1313.63
1313.62
1313.62
1313.62
-0.050579
0.233285
0.82715
-0.327781
-5.63586
-12.0757
-7.38758
25.8182
100.09
215.185
357.725
507.521
645.635
759.774
845.575
904.873
942.844
965.497
978.133
984.734
987.962
989.435
990.055
990.293
990.372
990.392
990.393
990.391
990.388
990.386
-0.0327648
0.103165
0.512777
0.118974
-2.8458
-7.54237
-7.28295
9.36047
52.7899
126.21
223.49
331.94
437.547
529.501
602.244
655.13
690.772
713.177
726.377
733.686
737.496
739.364
740.224
740.593
740.738
740.789
740.804
740.806
740.805
740.804
-0.0199095
0.0405993
0.30051
0.229757
-1.34483
-4.4769
-5.73662
2.00234
26.5389
72.0558
136.617
212.894
291.207
362.892
422.412
467.795
499.866
521.019
534.109
541.738
545.936
548.121
549.196
549.695
549.912
549.999
550.031
550.042
550.044
550.044
-0.0115207
0.0127455
0.168032
0.211702
-0.581673
-2.54193
-4.03669
-0.825899
12.541
39.9909
81.7335
133.971
190.444
244.692
291.866
329.495
357.3
376.476
388.891
396.47
400.847
403.243
404.489
405.103
405.39
405.517
405.569
405.589
405.596
405.598
-0.00640166
0.00164541
0.0900549
0.158315
-0.217883
-1.38459
-2.64225
-1.57797
5.4151
21.5254
47.8559
82.7579
122.449
162.403
198.728
228.98
252.299
269.071
280.396
287.611
291.963
294.457
295.817
296.523
296.872
297.036
297.11
297.141
297.153
297.157
-0.00343177
-0.00195218
0.0463187
0.106345
-0.0584554
-0.723509
-1.63985
-1.49457
1.99287
11.1928
27.4143
50.2005
77.4421
106.146
133.39
157.039
176.019
190.225
200.205
206.821
210.976
213.457
214.869
215.636
216.034
216.232
216.325
216.367
216.385
216.393
-0.00177881
-0.00252873
0.0228201
0.0666593
0.00283377
-0.361479
-0.97498
-1.15712
0.477105
5.58279
15.3482
29.9004
48.1848
68.3333
88.2749
106.291
121.322
133.007
141.532
147.398
151.225
153.598
155.003
155.798
156.228
156.451
156.562
156.615
156.639
156.65
-0.000894053
-0.00207816
0.0107755
0.0396915
0.0200431
-0.172855
-0.560393
-0.80655
-0.097006
2.67261
8.45415
17.6018
29.6757
43.5763
57.9047
71.3586
83.0098
92.4031
99.5047
104.569
107.991
110.191
111.541
112.333
112.779
113.02
113.144
113.207
113.236
113.251
-0.000371612
-0.00155178
0.00377473
0.0212069
0.0239556
-0.0599175
-0.277891
-0.506049
-0.334548
0.888106
3.83172
8.89598
16.0177
24.6687
34.0251
43.2111
51.5098
58.4783
63.9599
68.0245
70.8798
72.7879
74.0051
74.7483
75.1838
75.429
75.5619
75.6313
75.6662
75.6847
)
;

boundaryField
{
    fixedWall_Bottom
    {
        type            greyDiffusiveRadiation;
        refValue        uniform 18049.5;
        refGradient     uniform 0;
        valueFraction   uniform 1;
        source          uniform 0;
        value           uniform 18049.5;
    }
    fixedWall_Right
    {
        type            greyDiffusiveRadiation;
        refValue        uniform 0;
        refGradient     uniform 0;
        valueFraction   uniform 0;
        source          uniform 0;
        value           nonuniform List<scalar> 
30
(
18056.8
17975
18005
18258.4
18482.9
18363.9
17772.9
16735.7
15347.8
13731.5
12010.2
10290.4
8653.64
7155.01
5825.6
4677.23
3707.51
2904.61
2251.22
1727.57
1313.62
990.386
740.804
550.044
405.598
297.157
216.393
156.65
113.251
75.6847
)
;
    }
    fixedWall_Left
    {
        type            greyDiffusiveRadiation;
        refValue        uniform 0;
        refGradient     uniform 0;
        valueFraction   uniform 1;
        source          uniform 0;
        value           uniform 0;
    }
    fixedWall_Top
    {
        type            greyDiffusiveRadiation;
        refValue        uniform 0;
        refGradient     uniform 0;
        valueFraction   uniform 0;
        source          uniform 0;
        value           nonuniform List<scalar> 
30
(
-0.000371612
-0.00155178
0.00377473
0.0212069
0.0239556
-0.0599175
-0.277891
-0.506049
-0.334548
0.888106
3.83172
8.89598
16.0177
24.6687
34.0251
43.2111
51.5098
58.4783
63.9599
68.0245
70.8798
72.7879
74.0051
74.7483
75.1838
75.429
75.5619
75.6313
75.6662
75.6847
)
;
    }
    frontAndBack
    {
        type            empty;
    }
}


// ************************************************************************* //
