/*--------------------------------*- C++ -*----------------------------------*\
| =========                 |                                                 |
| \\      /  F ield         | OpenFOAM: The Open Source CFD Toolbox           |
|  \\    /   O peration     | Version:  2312                                  |
|   \\  /    A nd           | Website:  www.openfoam.com                      |
|    \\/     M anipulation  |                                                 |
\*---------------------------------------------------------------------------*/
FoamFile
{
    version     2.0;
    format      ascii;
    arch        "LSB;label=32;scalar=64";
    class       volScalarField;
    location    "0.015";
    object      ILambda_57_0;
}
// * * * * * * * * * * * * * * * * * * * * * * * * * * * * * * * * * * * * * //

dimensions      [1 0 -3 0 0 0 0];

internalField   nonuniform List<scalar> 
900
(
18047.3
18047.3
18047.3
18047.3
18047.3
18047.3
18047.3
18047.3
18047.3
18047.3
18047.3
18047.3
18047.3
18047.3
18047.3
18047.3
18047.4
18047.5
18047.9
18048.7
18049.8
18049.4
18042.3
18021.1
17994.1
18034.4
18304.4
18754.7
17890.8
10596.8
17962.6
17962.6
17962.6
17962.6
17962.6
17962.6
17962.6
17962.6
17962.6
17962.6
17962.6
17962.6
17962.6
17962.6
17962.7
17962.8
17963
17963.4
17963.4
17961.6
17954
17935.7
17910.2
17919.6
18079.1
18502.9
18878.6
17687.6
12306.5
2753.83
18064.3
18064.3
18064.3
18064.3
18064.3
18064.3
18064.3
18064.3
18064.3
18064.3
18064.3
18064.3
18064.3
18064.3
18064.4
18064.5
18064.3
18063
18058.7
18048.9
18033.6
18027.4
18083.9
18306.1
18743.3
19025.9
17885.1
13519.9
5997.91
-100.225
18376.9
18376.9
18376.9
18376.9
18376.9
18376.9
18376.9
18376.9
18377
18377
18377
18377
18377
18377
18376.8
18376.1
18374.2
18369.9
18362.9
18357.6
18373.4
18459
18686.2
19055.8
19228
18198.8
14570.4
8152.41
1748.65
-622.65
18523.2
18523.2
18523.2
18523.2
18523.2
18523.2
18523.2
18523.2
18523.2
18523.2
18523.2
18523.2
18523.1
18522.8
18522
18520.4
18517.6
18515
18519
18548
18637.8
18829.1
19092.7
19146.1
18237.1
15278.9
9858.94
3635.05
-188.362
-413.146
18164.1
18164.1
18164.1
18164.1
18164.1
18164.1
18164.1
18164.1
18164.1
18164.1
18164.1
18163.9
18163.7
18163.1
18162.1
18161
18162
18171.3
18202.9
18279.8
18419.3
18578.3
18534.9
17747
15404.2
11007.9
5385
875.055
-657.333
-151.259
17229.2
17229.2
17229.2
17229.2
17229.2
17229.2
17229.2
17229.2
17229.2
17229.2
17229.1
17228.9
17228.5
17228.2
17228.4
17231.3
17241.9
17269.5
17326.7
17416.5
17494.1
17391.3
16727.2
14920.1
11499.9
6766.16
2212.91
-315.874
-518.098
-8.16464
15821
15821
15821
15821
15821
15821
15821
15821
15820.9
15820.9
15820.8
15820.6
15820.7
15821.6
15825
15834.4
15855.3
15893.4
15944.3
15968
15840.7
15299.5
13937.6
11366.5
7609.14
3498.83
471.125
-575.865
-270.819
37.1247
14100.1
14100.1
14100.1
14100.1
14100.1
14100.1
14100.1
14100
14100
14100
14100
14100.3
14101.4
14104.4
14111.6
14125.9
14148.7
14173
14165.9
14038.9
13612.4
12607.3
10726.3
7876.58
4462.03
1434.15
-243.042
-460.196
-96.0072
36.5336
12231.5
12231.5
12231.5
12231.5
12231.5
12231.5
12231.5
12231.5
12231.5
12231.6
12231.9
12232.9
12235.3
12240.2
12249
12261.2
12269.3
12247.9
12134.9
11809.3
11082.1
9735.95
7648.19
4979.83
2290.78
350.41
-400.898
-274.538
-9.91984
23.5764
10356.9
10356.9
10356.9
10356.9
10356.9
10356.9
10356.9
10356.9
10357
10357.3
10358.1
10359.7
10362.8
10367.7
10373.1
10372.5
10347
10254
10012.5
9496.03
8550.89
7062.19
5069.14
2869.69
986.475
-102.633
-334.236
-131.8
19.3961
12.0059
8581.36
8581.36
8581.35
8581.35
8581.36
8581.37
8581.4
8581.49
8581.73
8582.26
8583.3
8585.09
8587.49
8589.02
8584.48
8560.44
8487.93
8313.48
7953.34
7301.19
6263.08
4824.86
3128.75
1493.88
304.74
-222.607
-218.03
-48.6396
22.2834
4.85946
6972.73
6972.73
6972.73
6972.73
6972.74
6972.77
6972.84
6973.01
6973.34
6973.95
6974.86
6975.79
6975.39
6969.75
6949.54
6895.43
6772.45
6525.68
6083.02
5373.07
4363.45
3111.6
1796.57
684.393
4.46326
-202.097
-121.135
-9.34374
16.5724
1.31716
5566.36
5566.36
5566.36
5566.37
5566.4
5566.45
5566.55
5566.75
5567.07
5567.46
5567.61
5566.43
5561.12
5545.33
5506.36
5421.58
5255.34
4959.57
4482.53
3790.07
2897.26
1896.37
954.247
255.854
-93.8304
-142.637
-58.278
5.05205
10.1442
-0.0907772
4372.68
4372.68
4372.68
4372.7
4372.73
4372.79
4372.9
4373.04
4373.16
4372.95
4371.63
4367.22
4355.51
4328.27
4271.01
4160.85
3966.19
3650.87
3185.51
2566.45
1836.21
1091.5
461.956
55.7836
-101.759
-87.0823
-23.5681
7.8956
5.43423
-0.468992
3384.68
3384.69
3384.69
3384.71
3384.75
3384.8
3384.85
3384.82
3384.51
3383.32
3379.93
3371.59
3353.05
3315.11
3243.25
3116.99
2911.75
2604.7
2185.64
1670.67
1111.67
591.306
196.642
-21.6031
-78.9175
-47.5985
-6.95107
6.56002
2.58649
-0.446217
2584.58
2584.59
2584.6
2584.61
2584.63
2584.63
2584.56
2584.25
2583.29
2580.83
2575.09
2562.74
2538.05
2491.87
2411.13
2279.48
2080.25
1802.5
1449.51
1046.65
642.721
299.07
66.2966
-40.8435
-52.2332
-23.4696
-0.242319
4.39784
1.07712
-0.317769
1948.97
1948.97
1948.98
1948.98
1948.97
1948.89
1948.62
1947.91
1946.19
1942.35
1934.3
1918.49
1889.23
1838.29
1755.01
1627.74
1447.08
1210.96
930.157
631.439
354.199
138.785
9.67018
-37.0004
-31.1211
-10.2959
1.75533
2.6016
0.365557
-0.196106
1452.61
1452.61
1452.61
1452.59
1452.52
1452.32
1451.81
1450.65
1448.13
1442.99
1433.02
1414.74
1383.01
1331.02
1250.89
1135.39
980.778
790.498
578.034
366.837
185.251
56.7714
-10.2708
-26.8873
-17.0427
-3.81075
1.85925
1.40257
0.0719018
-0.110036
1070.94
1070.93
1070.91
1070.86
1070.71
1070.37
1069.61
1067.99
1064.75
1058.56
1047.29
1027.78
995.728
945.967
873.266
773.948
648.107
501.812
348.054
205.029
91.1589
18.2044
-14.0017
-17.3119
-8.63133
-0.968318
1.39768
0.697039
-0.0267915
-0.0572725
781.535
781.518
781.477
781.379
781.153
780.663
779.649
777.644
773.85
766.987
755.129
735.613
705.107
660.011
597.303
515.84
417.849
309.985
203.093
109.993
41.4816
2.10843
-11.8252
-10.2422
-4.02195
0.085816
0.901006
0.318805
-0.045846
-0.027858
564.899
564.868
564.802
564.657
564.349
563.723
562.5
560.206
556.077
548.955
537.209
518.737
491.144
452.172
400.434
336.351
263.006
186.427
114.796
56.3909
16.8031
-3.29502
-8.35814
-5.65748
-1.68818
0.357866
0.527146
0.131916
-0.0384587
-0.0126445
404.638
404.592
404.501
404.311
403.93
403.195
401.825
399.37
395.141
388.15
377.097
360.429
336.561
304.264
263.233
214.676
161.706
109.181
62.7824
27.4069
5.44397
-4.15854
-5.32941
-2.9358
-0.60126
0.339908
0.286597
0.0469546
-0.026115
-0.00529133
287.374
287.313
287.198
286.97
286.533
285.726
284.282
281.798
277.683
271.143
261.198
246.778
226.934
201.155
169.752
134.187
97.1597
62.2603
33.1483
12.4373
0.760822
-3.44064
-3.15884
-1.43023
-0.14502
0.246419
0.146286
0.0120391
-0.0158453
-0.00197604
202.442
202.367
202.233
201.977
201.506
200.667
199.223
196.826
192.999
187.133
178.533
166.518
150.597
130.705
107.435
82.1822
57.0645
34.5523
16.8304
5.10589
-0.817414
-2.41612
-1.76526
-0.648625
0.0178396
0.156769
0.0702744
-0.000275142
-0.00891428
-0.000599356
141.511
141.425
141.278
141.006
140.523
139.693
138.311
136.095
132.674
127.607
120.431
110.753
98.3856
83.5021
66.7613
49.3343
32.7641
18.6406
8.16199
1.74775
-1.09557
-1.54261
-0.936244
-0.2679
0.0576541
0.0917052
0.0316277
-0.00337077
-0.004731
-9.0577e-05
98.189
98.0968
97.9421
97.6672
97.1942
96.4059
95.1357
93.1619
90.211
85.9798
80.1819
72.6228
63.2947
52.4691
40.7492
29.0371
18.3867
9.757
3.73521
0.349824
-0.920984
-0.921201
-0.47209
-0.0952862
0.0535112
0.0503596
0.0131412
-0.00324874
-0.00238902
6.07418e-05
67.6374
67.5424
67.3878
67.121
66.6755
65.9549
64.828
63.1286
60.6642
57.2383
52.6904
46.9511
40.104
32.4336
24.4344
16.756
10.0777
4.93757
1.57455
-0.142889
-0.653469
-0.52175
-0.225672
-0.0239653
0.0385375
0.0262247
0.00486003
-0.00233735
-0.00115195
8.14633e-05
46.4305
46.3365
46.1875
45.9377
45.5319
44.8935
43.9232
42.5011
40.4978
37.7943
34.3129
30.0554
25.1394
19.8182
14.4679
9.53164
5.42424
2.4234
0.58871
-0.250165
-0.421403
-0.283153
-0.102138
0.00109909
0.0244809
0.0130354
0.0014647
-0.00146733
-0.000531241
6.35985e-05
29.3895
29.3017
29.1667
28.9469
28.6003
28.0712
27.2909
26.1824
24.6697
22.6939
20.2344
17.3313
14.1021
10.7436
7.51028
4.66855
2.43398
0.912951
0.0730887
-0.239798
-0.241237
-0.130436
-0.0330393
0.0103039
0.013962
0.00537052
-9.56877e-05
-0.000847746
-0.000196835
4.52119e-05
)
;

boundaryField
{
    fixedWall_Bottom
    {
        type            greyDiffusiveRadiation;
        refValue        uniform 18049.5;
        refGradient     uniform 0;
        valueFraction   uniform 1;
        source          uniform 0;
        value           uniform 18049.5;
    }
    fixedWall_Right
    {
        type            greyDiffusiveRadiation;
        refValue        uniform 0;
        refGradient     uniform 0;
        valueFraction   uniform 1;
        source          uniform 0;
        value           uniform 0;
    }
    fixedWall_Left
    {
        type            greyDiffusiveRadiation;
        refValue        uniform 0;
        refGradient     uniform 0;
        valueFraction   uniform 0;
        source          uniform 0;
        value           nonuniform List<scalar> 
30
(
18047.3
17962.6
18064.3
18376.9
18523.2
18164.1
17229.2
15821
14100.1
12231.5
10356.9
8581.36
6972.73
5566.36
4372.68
3384.68
2584.58
1948.97
1452.61
1070.94
781.535
564.899
404.638
287.374
202.442
141.511
98.189
67.6374
46.4305
29.3895
)
;
    }
    fixedWall_Top
    {
        type            greyDiffusiveRadiation;
        refValue        uniform 0;
        refGradient     uniform 0;
        valueFraction   uniform 0;
        source          uniform 0;
        value           nonuniform List<scalar> 
30
(
29.3895
29.3017
29.1667
28.9469
28.6003
28.0712
27.2909
26.1824
24.6697
22.6939
20.2344
17.3313
14.1021
10.7436
7.51028
4.66855
2.43398
0.912951
0.0730887
-0.239798
-0.241237
-0.130436
-0.0330393
0.0103039
0.013962
0.00537052
-9.56877e-05
-0.000847746
-0.000196835
4.52119e-05
)
;
    }
    frontAndBack
    {
        type            empty;
    }
}


// ************************************************************************* //
