/*--------------------------------*- C++ -*----------------------------------*\
| =========                 |                                                 |
| \\      /  F ield         | OpenFOAM: The Open Source CFD Toolbox           |
|  \\    /   O peration     | Version:  2312                                  |
|   \\  /    A nd           | Website:  www.openfoam.com                      |
|    \\/     M anipulation  |                                                 |
\*---------------------------------------------------------------------------*/
FoamFile
{
    version     2.0;
    format      ascii;
    arch        "LSB;label=32;scalar=64";
    class       volScalarField;
    location    "0.015";
    object      ILambda_2_0;
}
// * * * * * * * * * * * * * * * * * * * * * * * * * * * * * * * * * * * * * //

dimensions      [1 0 -3 0 0 0 0];

internalField   nonuniform List<scalar> 
900
(
14966.2
18728.9
18223.8
18055.6
18060.9
18065.8
18064.7
18064.1
18064.1
18064.1
18064.2
18064.2
18064.2
18064.2
18064.2
18064.2
18064.2
18064.2
18064.2
18064.2
18064.2
18064.2
18064.2
18064.2
18064.2
18064.2
18064.2
18064.2
18064.2
18064.2
10038.9
18531.2
18695.6
18104.3
18003.2
18025.6
18033.9
18032.9
18031.9
18031.7
18031.8
18031.8
18031.8
18031.8
18031.8
18031.8
18031.8
18031.8
18031.8
18031.8
18031.8
18031.8
18031.8
18031.8
18031.8
18031.8
18031.8
18031.8
18031.8
18031.8
6380.37
17037.5
19029.5
18309.8
17946.1
17933.4
17961.5
17968.3
17967.4
17966.6
17966.4
17966.4
17966.4
17966.4
17966.4
17966.4
17966.4
17966.4
17966.4
17966.4
17966.4
17966.4
17966.4
17966.4
17966.4
17966.4
17966.4
17966.4
17966.4
17966.4
3781.79
14810.3
19047.3
18779
18126.7
17973.1
17999.4
18021.4
18025.1
18024.3
18023.7
18023.6
18023.6
18023.6
18023.6
18023.6
18023.6
18023.6
18023.6
18023.6
18023.6
18023.6
18023.6
18023.6
18023.6
18023.6
18023.6
18023.6
18023.6
18023.6
2016.42
12249.5
18515.9
19306.5
18563.6
18194.7
18163.6
18193.3
18205.8
18207.2
18206.6
18206.3
18206.3
18206.3
18206.3
18206.3
18206.3
18206.3
18206.3
18206.3
18206.3
18206.3
18206.3
18206.3
18206.3
18206.3
18206.3
18206.3
18206.3
18206.3
879.172
9636.98
17284.3
19502.2
19021.5
18468.1
18324.2
18337.2
18356.9
18362.6
18362.9
18362.6
18362.5
18362.4
18362.4
18362.4
18362.4
18362.4
18362.4
18362.4
18362.4
18362.4
18362.4
18362.4
18362.4
18362.4
18362.4
18362.4
18362.4
18362.4
198.935
7217.84
15440
19100
19230.3
18631.8
18357.7
18324
18341.6
18351.6
18353.9
18353.9
18353.7
18353.7
18353.6
18353.6
18353.6
18353.6
18353.6
18353.6
18353.6
18353.6
18353.6
18353.6
18353.6
18353.6
18353.6
18353.6
18353.6
18353.6
-164.869
5157.79
13227.1
18048.8
19008.5
18557.3
18188.8
18088.8
18090.6
18101.9
18106.3
18107.1
18107.1
18107
18107
18107
18107
18107
18107
18107
18107
18107
18107
18107
18107
18107
18107
18107
18107
18107
-325.1
3517.86
10907
16452.5
18283.4
18156.8
17771.5
17606.3
17580.4
17587.6
17593.3
17595.1
17595.3
17595.3
17595.2
17595.2
17595.2
17595.2
17595.2
17595.2
17595.2
17595.2
17595.2
17595.2
17595.2
17595.2
17595.2
17595.2
17595.2
17595.2
-365.144
2283.18
8688.13
14492.9
17082.8
17394.9
17086.3
16878.9
16820.1
16817.4
16822.5
16825
16825.7
16825.7
16825.7
16825.7
16825.7
16825.7
16825.7
16825.7
16825.7
16825.7
16825.7
16825.7
16825.7
16825.7
16825.7
16825.7
16825.7
16825.7
-341.461
1398.98
6706.43
12369.5
15507.7
16291.2
16142.5
15930.9
15843.1
15826.5
15828.5
15831.1
15832.1
15832.4
15832.4
15832.4
15832.4
15832.4
15832.4
15832.4
15832.4
15832.4
15832.4
15832.4
15832.4
15832.4
15832.4
15832.4
15832.4
15832.4
-289.695
795.55
5029.45
10257.1
13695.2
14909.2
14975
14801.2
14696.6
14665.3
14662.2
14664
14665.2
14665.6
14665.7
14665.7
14665.7
14665.6
14665.6
14665.6
14665.6
14665.6
14665.6
14665.6
14665.6
14665.6
14665.6
14665.6
14665.6
14665.6
-230.686
403.775
3671.85
8285.22
11786.6
13338
13637.5
13538.1
13433.6
13390.6
13381.1
13381.2
13382.2
13382.7
13382.9
13382.9
13382.9
13382.9
13382.9
13382.9
13382.9
13382.9
13382.9
13382.9
13382.9
13382.9
13382.9
13382.9
13382.9
13382.9
-175.372
163.376
2613.4
6534.6
9904.27
11674.4
12193.7
12193
12106.6
12057.5
12042
12039.7
12040.2
12040.7
12040.9
12040.9
12040.9
12040.9
12040.9
12040.9
12040.9
12040.9
12040.9
12040.9
12040.9
12040.9
12040.9
12040.9
12040.9
12040.9
-128.519
26.0516
1814.92
5042.71
8141.06
10008.4
10709.1
10816.6
10763.5
10715.5
10695.6
10690.7
10690.3
10690.7
10690.9
10690.9
10691
10691
10691
10691
10691
10691
10691
10691
10691
10691
10691
10691
10691
10691
-91.3307
-44.5029
1230.11
3814.29
6557.28
8414.28
9243.83
9455.06
9445.38
9405.86
9383.97
9376.7
9375.33
9375.4
9375.58
9375.67
9375.69
9375.7
9375.7
9375.7
9375.7
9375.7
9375.7
9375.7
9375.7
9375.7
9375.7
9375.7
9375.7
9375.7
-63.1735
-74.1413
813.348
2832.23
5183.74
6945.81
7847.66
8147.31
8185.27
8160.26
8139.39
8130.55
8128.14
8127.83
8127.92
8128
8128.04
8128.04
8128.05
8128.05
8128.05
8128.05
8128.05
8128.05
8128.05
8128.05
8128.05
8128.05
8128.05
8128.05
-42.6306
-80.3862
523.923
2067.12
4027.78
5636.43
6557.75
6923.84
7007.96
7001.49
6984.5
6975.14
6971.87
6971.15
6971.11
6971.17
6971.2
6971.21
6971.22
6971.22
6971.22
6971.22
6971.22
6971.22
6971.22
6971.22
6971.22
6971.22
6971.22
6971.22
-28.1003
-74.5387
327.943
1484.55
3079.99
4501.46
5398.1
5806.03
5930.34
5944.09
5933.3
5924.59
5920.81
5919.7
5919.5
5919.52
5919.54
5919.56
5919.56
5919.56
5919.56
5919.56
5919.56
5919.56
5919.56
5919.56
5919.56
5919.56
5919.56
5919.56
-18.098
-63.4993
198.574
1050.02
2320.55
3541.84
4380.7
4806.57
4962.18
4995.61
4992.54
4985.57
4981.7
4980.29
4979.94
4979.89
4979.91
4979.92
4979.93
4979.93
4979.93
4979.93
4979.93
4979.93
4979.93
4979.93
4979.93
4979.93
4979.93
4979.93
-11.3815
-51.2055
115.419
731.96
1724.37
2748.25
3507.48
3930.43
4107.12
4157.9
4163.18
4158.81
4155.31
4153.74
4153.25
4153.14
4153.14
4153.15
4153.15
4153.15
4153.15
4153.15
4153.15
4153.15
4153.15
4153.15
4153.15
4153.15
4153.15
4153.15
-6.97674
-39.6954
63.503
503.15
1264.91
2104.85
2772.78
3176.29
3363.85
3428.47
3441.86
3440.65
3437.91
3436.36
3435.77
3435.61
3435.58
3435.58
3435.59
3435.59
3435.59
3435.59
3435.59
3435.59
3435.59
3435.59
3435.59
3435.59
3435.59
3435.59
-4.15471
-29.8535
32.1603
341.191
916.689
1592.49
2165.74
2538.04
2727.27
2801.61
2822.21
2824.37
2822.7
2821.34
2820.71
2820.49
2820.44
2820.44
2820.44
2820.44
2820.44
2820.44
2820.44
2820.44
2820.44
2820.44
2820.44
2820.44
2820.44
2820.44
-2.38978
-21.9092
14.0045
228.287
656.782
1191.1
1672.46
2006.27
2189.61
2269.47
2295.91
2301.33
2300.94
2299.9
2299.29
2299.05
2298.98
2298.96
2298.96
2298.96
2298.96
2298.96
2298.96
2298.96
2298.96
2298.96
2298.96
2298.96
2298.96
2298.96
-1.31435
-15.7534
4.05539
150.721
465.505
881.309
1277.7
1569.66
1741.42
1822.95
1853.59
1861.92
1862.86
1862.26
1861.74
1861.49
1861.4
1861.38
1861.38
1861.38
1861.38
1861.38
1861.38
1861.38
1861.38
1861.38
1861.38
1861.38
1861.38
1861.38
-0.678197
-11.1297
-0.957088
98.177
326.563
645.479
966.211
1216.04
1372.41
1452.34
1485.52
1496.22
1498.45
1498.34
1497.96
1497.73
1497.64
1497.61
1497.6
1497.6
1497.6
1497.6
1497.6
1497.6
1497.6
1497.6
1497.6
1497.6
1497.6
1497.6
-0.315191
-7.7424
-3.12109
63.073
226.864
468.232
723.647
933.282
1072.17
1147.95
1182.1
1194.55
1197.91
1198.33
1198.13
1197.94
1197.84
1197.81
1197.8
1197.79
1197.79
1197.79
1197.79
1197.79
1197.79
1197.79
1197.79
1197.79
1197.79
1197.79
-0.117105
-5.31105
-3.73826
39.908
156.057
336.438
536.837
709.625
830.277
900.091
933.856
947.387
951.688
952.604
952.594
952.459
952.373
952.336
952.324
952.32
952.32
952.32
952.32
952.32
952.32
952.32
952.32
952.32
952.32
952.32
-0.0203296
-3.61541
-3.53875
25.1521
107.211
241.224
397.139
537.943
641.169
704.181
736.602
750.649
755.659
757.018
757.207
757.14
757.071
757.035
757.021
757.017
757.016
757.015
757.015
757.015
757.015
757.015
757.015
757.015
757.015
757.015
0.049668
-2.20317
-3.13988
13.0859
64.9915
155.607
267.155
373.464
455.774
509.016
538.241
551.922
557.337
559.085
559.491
559.515
559.476
559.447
559.433
559.428
559.427
559.427
559.427
559.427
559.427
559.427
559.427
559.427
559.427
559.427
)
;

boundaryField
{
    fixedWall_Bottom
    {
        type            greyDiffusiveRadiation;
        refValue        uniform 18049.5;
        refGradient     uniform 0;
        valueFraction   uniform 1;
        source          uniform 0;
        value           uniform 18049.5;
    }
    fixedWall_Right
    {
        type            greyDiffusiveRadiation;
        refValue        uniform 0;
        refGradient     uniform 0;
        valueFraction   uniform 0;
        source          uniform 0;
        value           nonuniform List<scalar> 
30
(
18064.2
18031.8
17966.4
18023.6
18206.3
18362.4
18353.6
18107
17595.2
16825.7
15832.4
14665.6
13382.9
12040.9
10691
9375.7
8128.05
6971.22
5919.56
4979.93
4153.15
3435.59
2820.44
2298.96
1861.38
1497.6
1197.79
952.32
757.015
559.427
)
;
    }
    fixedWall_Left
    {
        type            greyDiffusiveRadiation;
        refValue        uniform 0;
        refGradient     uniform 0;
        valueFraction   uniform 1;
        source          uniform 0;
        value           uniform 0;
    }
    fixedWall_Top
    {
        type            greyDiffusiveRadiation;
        refValue        uniform 0;
        refGradient     uniform 0;
        valueFraction   uniform 0;
        source          uniform 0;
        value           nonuniform List<scalar> 
30
(
0.049668
-2.20317
-3.13988
13.0859
64.9915
155.607
267.155
373.464
455.774
509.016
538.241
551.922
557.337
559.085
559.491
559.515
559.476
559.447
559.433
559.428
559.427
559.427
559.427
559.427
559.427
559.427
559.427
559.427
559.427
559.427
)
;
    }
    frontAndBack
    {
        type            empty;
    }
}


// ************************************************************************* //
