/*--------------------------------*- C++ -*----------------------------------*\
| =========                 |                                                 |
| \\      /  F ield         | OpenFOAM: The Open Source CFD Toolbox           |
|  \\    /   O peration     | Version:  2312                                  |
|   \\  /    A nd           | Website:  www.openfoam.com                      |
|    \\/     M anipulation  |                                                 |
\*---------------------------------------------------------------------------*/
FoamFile
{
    version     2.0;
    format      ascii;
    arch        "LSB;label=32;scalar=64";
    class       volScalarField;
    location    "0.015";
    object      ILambda_53_0;
}
// * * * * * * * * * * * * * * * * * * * * * * * * * * * * * * * * * * * * * //

dimensions      [1 0 -3 0 0 0 0];

internalField   nonuniform List<scalar> 
900
(
17979.8
17979.8
17979.8
17979.8
17979.8
17979.8
17979.8
17979.8
17979.8
17979.8
17979.8
17979.7
17979.4
17979
17978.1
17976.4
17973.7
17969.7
17964.7
17960.9
17964
17986.2
18049
18178.8
18383.3
18584.1
18485.6
17378.9
13955.5
6394.18
18177.2
18177.2
18177.2
18177.2
18177.2
18177.2
18177.1
18177.1
18177
18176.8
18176.4
18175.9
18175.1
18174.3
18173.9
18175.1
18180.5
18195.3
18228
18290.7
18395.6
18542.9
18691.1
18701.7
18265.5
16871.1
13944.6
9276.95
3709.39
-290.73
18610.7
18610.7
18610.6
18610.6
18610.6
18610.6
18610.5
18610.4
18610.3
18610.3
18610.6
18611.5
18613.9
18619.3
18630.3
18650.7
18685.6
18739.5
18811.6
18884.7
18905.1
18751.2
18199
16912
14518
10846.4
6291.87
2007.08
-521.035
-604.4
18296.6
18296.6
18296.6
18296.5
18296.6
18296.6
18296.7
18297.1
18297.8
18299.4
18302.4
18307.9
18317.2
18332.1
18353.6
18380.3
18404.4
18403.5
18328.7
18087.4
17526.8
16430.6
14554.5
11732.8
8068.43
4123.35
878.895
-771.169
-777.744
-127.894
16661.9
16661.9
16662
16662.1
16662.3
16662.7
16663.4
16664.7
16666.8
16670.3
16675.4
16682.2
16689.6
16693.7
16684.9
16643.2
16531
16283.6
15801.6
14948.2
13566
11524.4
8808.94
5634.78
2515.25
156.366
-912.588
-791.846
-232.846
33.1513
14053.2
14053.3
14053.4
14053.7
14054.1
14054.9
14055.9
14057.4
14059
14060.2
14059
14051.5
14029.5
13977.9
13870.6
13665.7
13301
12692.4
11741
10354
8485.59
6196.03
3707.42
1411.99
-228.353
-912.789
-750.409
-260.753
27.9264
25.2034
11139.1
11139.2
11139.4
11139.7
11140
11140.2
11140
11138.5
11134
11123.4
11100.8
11056
10972.3
10823.9
10573.5
10170.8
9555.57
8666.17
7458.23
5932.97
4170.55
2352.77
750.045
-353.033
-791.719
-650.388
-260.624
12.7952
51.4331
2.43396
8411.67
8411.68
8411.61
8411.28
8410.35
8408.18
8403.51
8394.12
8376.18
8343.34
8285.55
8187.62
8027.86
7777.21
7400
6857.56
6116.14
5160.2
4009.75
2737.22
1474.22
395.237
-331.074
-616.444
-518.279
-237.028
-8.01997
56.2775
20.0765
-3.98945
6108.59
6108.05
6107.1
6105.18
6101.48
6094.6
6082.21
6060.56
6023.88
5963.56
5867.4
5719.04
5498.04
5181.17
4745.72
4175.39
3468.74
2648.97
1771.62
924.915
216.605
-255.701
-444.955
-387.307
-199.784
-26.4035
45.2729
30.3878
1.40069
-2.74773
4291.99
4290.37
4287.86
4283.35
4275.54
4262.31
4240.47
4205.3
4150.14
4066.04
3941.59
3763.42
3517.36
3191.05
2777.75
2281.37
1721.67
1137.39
584.701
128.174
-176.471
-303.917
-275.607
-158.201
-36.7817
28.0394
30.4746
8.35568
-2.89836
-0.934448
2929.12
2925.98
2921.41
2913.8
2901.45
2881.87
2851.52
2805.61
2738
2641.22
2506.96
2327.06
2095.19
1809.25
1474.23
1104.72
726.113
372.886
82.9127
-112.232
-198.664
-188.451
-118.792
-38.7383
12.6176
24.024
11.8481
-0.058212
-2.0995
-0.1061
1946.66
1941.86
1935.23
1924.75
1908.65
1884.44
1848.89
1797.97
1727.03
1631.12
1505.73
1347.84
1157.3
938.392
701.056
461.201
239.416
57.569
-66.5218
-125.063
-124.516
-85.2394
-34.9698
2.20155
15.8561
11.4999
2.60551
-1.47868
-0.882436
0.0912926
1261.96
1255.76
1247.56
1235.18
1217.04
1191.03
1154.64
1105.07
1039.47
955.447
851.638
728.549
589.338
440.39
291.349
154.243
41.545
-36.7128
-76.0614
-79.7834
-58.8062
-28.543
-3.36013
8.88711
9.03464
3.79039
-0.243741
-0.983178
-0.244137
0.0795119
798.816
791.786
782.845
769.917
751.762
726.857
693.562
650.297
595.808
529.549
452.102
365.6
273.979
182.929
99.3567
30.302
-18.5967
-44.7338
-49.6789
-39.1818
-21.6639
-5.46852
4.05521
6.1172
3.67619
0.694592
-0.598628
-0.428289
-0.024414
0.039833
493.964
486.802
478.036
465.847
449.411
427.789
400.117
365.763
324.531
276.9
224.224
168.854
114.074
63.7916
21.9457
-8.30252
-25.4184
-30.0949
-25.2946
-15.5428
-5.57461
1.19245
3.65251
2.90707
1.08764
-0.140287
-0.3744
-0.138035
0.0212306
0.0151021
298.4
291.742
283.89
273.374
259.733
242.5
221.361
196.267
167.552
136.044
103.108
70.6061
40.7205
15.6372
-2.87655
-13.9133
-17.743
-15.8583
-10.6503
-4.75115
-0.246581
1.91239
2.00396
1.07061
0.166177
-0.210888
-0.165484
-0.0289801
0.0182473
0.00442279
176.044
170.33
163.833
155.439
144.955
132.225
117.25
100.246
81.6997
62.389
43.3524
25.7944
10.9193
-0.288991
-7.29431
-10.1771
-9.671
-7.01823
-3.65377
-0.806173
0.835187
1.23623
0.855884
0.291983
-0.058072
-0.126251
-0.0573857
0.000804369
0.00940018
0.000835035
101.374
96.8063
91.7975
85.5486
78.0284
69.2476
59.3393
48.5823
37.4101
26.3943
16.1928
7.46399
0.753339
-3.62394
-5.67245
-5.7427
-4.46878
-2.61885
-0.89559
0.245458
0.685506
0.598329
0.294192
0.036498
-0.067919
-0.0562171
-0.0149578
0.00483301
0.00382358
-5.99865e-05
56.942
53.5163
49.8927
45.5251
40.4587
34.7699
28.6146
22.2309
15.9289
10.0648
4.99573
1.02242
-1.67115
-3.06532
-3.32192
-2.75868
-1.77958
-0.776521
-0.03282
0.335606
0.376646
0.237985
0.0751575
-0.0204502
-0.0393653
-0.0203726
-0.0019078
0.00322257
0.00129417
-0.000159671
31.1775
28.7526
26.2789
23.3973
20.1755
16.6977
13.0926
9.52662
6.19057
3.27684
0.950247
-0.682866
-1.59966
-1.87165
-1.6549
-1.15818
-0.595205
-0.134548
0.135793
0.215514
0.168155
0.0777717
0.00747762
-0.0205157
-0.0176122
-0.00592789
0.000852294
0.00153736
0.000355353
-0.000102008
16.6282
15.0003
13.3996
11.5972
9.65554
7.64213
5.64541
3.76665
2.1087
0.761244
-0.214857
-0.800766
-1.02621
-0.966168
-0.726627
-0.421762
-0.148431
0.0339991
0.111384
0.107256
0.0635828
0.0188476
-0.00648174
-0.0116098
-0.00658115
-0.00116888
0.000866697
0.000609078
6.58853e-05
-4.85381e-05
8.63254
7.59192
6.60624
5.53378
4.42126
3.31451
2.26685
1.33281
0.560852
-0.0145863
-0.379978
-0.546537
-0.549388
-0.441367
-0.282286
-0.126208
-0.0103967
0.0504277
0.0625504
0.0452649
0.0200095
0.00145545
-0.00588748
-0.00521545
-0.00205357
3.86908e-05
0.00048176
0.000207351
-3.09699e-06
-1.96744e-05
4.35913
3.72355
3.14423
2.53541
1.92798
1.34937
0.8283
0.390749
0.0559725
-0.16705
-0.281813
-0.304286
-0.260305
-0.180619
-0.0946476
-0.0246259
0.0180876
0.0333355
0.0291149
0.0164916
0.00465467
-0.00189937
-0.00327599
-0.00199542
-0.000490757
0.000194121
0.000213428
5.96447e-05
-1.09945e-05
-7.065e-06
2.13928
1.76732
1.44152
1.1111
0.794553
0.506663
0.261243
0.0689409
-0.064591
-0.13992
-0.164041
-0.149329
-0.111299
-0.0655983
-0.0249878
0.00284581
0.0159664
0.0171815
0.0117942
0.00504753
0.000277385
-0.00161724
-0.00147811
-0.000654784
-5.02146e-05
0.000130328
8.15288e-05
1.30433e-05
-7.13523e-06
-2.25988e-06
1.0193
0.810232
0.634584
0.462879
0.305327
0.169081
0.0599639
-0.0186024
-0.0662627
-0.0859324
-0.0834053
-0.0663626
-0.0429529
-0.0202687
-0.00312237
0.00652586
0.00932901
0.00762272
0.0041806
0.00114055
-0.000522756
-0.000890161
-0.000576691
-0.000175575
3.45894e-05
6.39577e-05
2.73454e-05
9.94084e-07
-3.44491e-06
-6.28308e-07
0.470892
0.35782
0.266916
0.181421
0.106544
0.0453543
-0.000136489
-0.0294142
-0.0436086
-0.0453624
-0.0384053
-0.0268956
-0.014669
-0.00458032
0.00188405
0.00461541
0.00452998
0.00299526
0.00125469
5.47238e-05
-0.000427478
-0.000403698
-0.000196784
-3.0473e-05
3.14327e-05
2.66273e-05
7.90604e-06
-1.04514e-06
-1.42893e-06
-1.38205e-07
0.210539
0.151605
0.106411
0.0656232
0.0316996
0.00574851
-0.0117984
-0.0213276
-0.0240076
-0.0216127
-0.0162235
-0.00986453
-0.00416098
-0.000103971
0.00201498
0.00248763
0.00193952
0.00104064
0.000278775
-0.000136462
-0.000233943
-0.000160211
-5.7126e-05
3.40139e-06
1.72635e-05
9.80944e-06
1.80462e-06
-8.48267e-07
-5.32276e-07
-1.39677e-08
0.0908572
0.0612258
0.0396414
0.0210179
0.00641937
-0.00387508
-0.00996329
-0.0123425
-0.0118381
-0.00947098
-0.00628585
-0.00317771
-0.00075828
0.000703777
0.00125516
0.00115654
0.000744963
0.000308435
1.2109e-05
-0.000109165
-0.000106744
-5.64393e-05
-1.25233e-05
6.70652e-06
7.76934e-06
3.21968e-06
1.97222e-07
-4.45807e-07
-1.80547e-07
8.06126e-09
0.0378009
0.0233951
0.01348
0.00534375
-0.000599089
-0.00436066
-0.00614103
-0.00631482
-0.00537335
-0.00384506
-0.00220967
-0.000825782
0.000110719
0.000567615
0.000638805
0.000482369
0.000255719
6.86586e-05
-3.37085e-05
-5.95562e-05
-4.30085e-05
-1.74083e-05
-8.22035e-07
4.25161e-06
3.07581e-06
9.21219e-07
-1.0038e-07
-1.95531e-07
-5.54842e-08
7.25824e-09
0.0129711
0.00680164
0.0028955
-8.1445e-05
-0.00201074
-0.00298086
-0.00315711
-0.00276378
-0.00204877
-0.00124441
-0.000532605
-2.2498e-05
0.000254128
0.000329492
0.000273544
0.000163728
6.0431e-05
-5.20574e-06
-2.98384e-05
-2.70542e-05
-1.42127e-05
-3.29236e-06
1.68349e-06
2.15272e-06
1.03084e-06
1.51911e-07
-1.15141e-07
-7.71238e-08
-1.26493e-08
4.50444e-09
)
;

boundaryField
{
    fixedWall_Bottom
    {
        type            greyDiffusiveRadiation;
        refValue        uniform 18049.5;
        refGradient     uniform 0;
        valueFraction   uniform 1;
        source          uniform 0;
        value           uniform 18049.5;
    }
    fixedWall_Right
    {
        type            greyDiffusiveRadiation;
        refValue        uniform 0;
        refGradient     uniform 0;
        valueFraction   uniform 1;
        source          uniform 0;
        value           uniform 0;
    }
    fixedWall_Left
    {
        type            greyDiffusiveRadiation;
        refValue        uniform 0;
        refGradient     uniform 0;
        valueFraction   uniform 0;
        source          uniform 0;
        value           nonuniform List<scalar> 
30
(
17979.8
18177.2
18610.7
18296.6
16661.9
14053.2
11139.1
8411.67
6108.59
4291.99
2929.12
1946.66
1261.96
798.816
493.964
298.4
176.044
101.374
56.942
31.1775
16.6282
8.63254
4.35913
2.13928
1.0193
0.470892
0.210539
0.0908572
0.0378009
0.0129711
)
;
    }
    fixedWall_Top
    {
        type            greyDiffusiveRadiation;
        refValue        uniform 0;
        refGradient     uniform 0;
        valueFraction   uniform 0;
        source          uniform 0;
        value           nonuniform List<scalar> 
30
(
0.0129711
0.00680164
0.0028955
-8.1445e-05
-0.00201074
-0.00298086
-0.00315711
-0.00276378
-0.00204877
-0.00124441
-0.000532605
-2.2498e-05
0.000254128
0.000329492
0.000273544
0.000163728
6.0431e-05
-5.20574e-06
-2.98384e-05
-2.70542e-05
-1.42127e-05
-3.29236e-06
1.68349e-06
2.15272e-06
1.03084e-06
1.51911e-07
-1.15141e-07
-7.71238e-08
-1.26493e-08
4.50444e-09
)
;
    }
    frontAndBack
    {
        type            empty;
    }
}


// ************************************************************************* //
