/*--------------------------------*- C++ -*----------------------------------*\
| =========                 |                                                 |
| \\      /  F ield         | OpenFOAM: The Open Source CFD Toolbox           |
|  \\    /   O peration     | Version:  2312                                  |
|   \\  /    A nd           | Website:  www.openfoam.com                      |
|    \\/     M anipulation  |                                                 |
\*---------------------------------------------------------------------------*/
FoamFile
{
    version     2.0;
    format      ascii;
    arch        "LSB;label=32;scalar=64";
    class       volScalarField;
    location    "0.015";
    object      ILambda_0_0;
}
// * * * * * * * * * * * * * * * * * * * * * * * * * * * * * * * * * * * * * //

dimensions      [1 0 -3 0 0 0 0];

internalField   nonuniform List<scalar> 
900
(
17401.2
18264.1
18066
18057.7
18058.4
18058.5
18058.5
18058.5
18058.5
18058.5
18058.5
18058.5
18058.5
18058.5
18058.5
18058.5
18058.5
18058.5
18058.5
18058.5
18058.5
18058.5
18058.5
18058.5
18058.5
18058.5
18058.5
18058.5
18058.5
18058.5
16151.2
18586.4
18106
18055.6
18058.9
18059.3
18059.2
18059.2
18059.2
18059.2
18059.2
18059.2
18059.2
18059.2
18059.2
18059.2
18059.2
18059.2
18059.2
18059.2
18059.2
18059.2
18059.2
18059.2
18059.2
18059.2
18059.2
18059.2
18059.2
18059.2
14935.8
18754.9
18111.8
17993.7
17999
18000.7
18000.7
18000.6
18000.6
18000.6
18000.6
18000.6
18000.6
18000.6
18000.6
18000.6
18000.6
18000.6
18000.6
18000.6
18000.6
18000.6
18000.6
18000.6
18000.6
18000.6
18000.6
18000.6
18000.6
18000.6
13812.2
18885.6
18181.3
17970.5
17974.5
17978.7
17978.8
17978.7
17978.7
17978.7
17978.7
17978.7
17978.7
17978.7
17978.7
17978.7
17978.7
17978.7
17978.7
17978.7
17978.7
17978.7
17978.7
17978.7
17978.7
17978.7
17978.7
17978.7
17978.7
17978.7
12806.8
19045.8
18378.8
18056.9
18052.4
18060.3
18060.8
18060.7
18060.7
18060.7
18060.7
18060.7
18060.7
18060.7
18060.7
18060.7
18060.7
18060.7
18060.7
18060.7
18060.7
18060.7
18060.7
18060.7
18060.7
18060.7
18060.7
18060.7
18060.7
18060.7
11875.3
19168.5
18640.2
18203.1
18181
18192.6
18194
18193.8
18193.8
18193.8
18193.8
18193.8
18193.8
18193.8
18193.8
18193.8
18193.8
18193.8
18193.8
18193.8
18193.8
18193.8
18193.8
18193.8
18193.8
18193.8
18193.8
18193.8
18193.8
18193.8
10973.1
19162.2
18865.4
18324.9
18276.1
18290.4
18293.1
18293
18292.9
18292.9
18292.9
18292.9
18292.9
18292.9
18292.9
18292.9
18292.9
18292.9
18292.9
18292.9
18292.9
18292.9
18292.9
18292.9
18292.9
18292.9
18292.9
18292.9
18292.9
18292.9
10083.3
18970.7
18976.8
18357.6
18275.7
18290.9
18295
18295
18294.9
18294.9
18294.9
18294.9
18294.9
18294.9
18294.9
18294.9
18294.9
18294.9
18294.9
18294.9
18294.9
18294.9
18294.9
18294.9
18294.9
18294.9
18294.9
18294.9
18294.9
18294.9
9201.93
18565.5
18918.6
18254
18135.9
18149.6
18155.2
18155.3
18155.2
18155.2
18155.2
18155.2
18155.2
18155.2
18155.2
18155.2
18155.2
18155.2
18155.2
18155.2
18155.2
18155.2
18155.2
18155.2
18155.2
18155.2
18155.2
18155.2
18155.2
18155.2
8331.15
17940.6
18655.8
17982.2
17828.6
17838.4
17845.2
17845.7
17845.6
17845.6
17845.6
17845.6
17845.6
17845.6
17845.6
17845.6
17845.6
17845.6
17845.6
17845.6
17845.6
17845.6
17845.6
17845.6
17845.6
17845.6
17845.6
17845.6
17845.6
17845.6
7478.18
17110.9
18176.2
17528.5
17343.7
17347.6
17355.3
17356.1
17356
17355.9
17355.9
17355.9
17355.9
17355.9
17355.9
17355.9
17355.9
17355.9
17355.9
17355.9
17355.9
17355.9
17355.9
17355.9
17355.9
17355.9
17355.9
17355.9
17355.9
17355.9
6652.87
16106.8
17487.9
16896.3
16687
16683.6
16691.6
16692.8
16692.7
16692.7
16692.7
16692.7
16692.7
16692.7
16692.7
16692.7
16692.7
16692.7
16692.7
16692.7
16692.7
16692.7
16692.7
16692.7
16692.7
16692.7
16692.7
16692.7
16692.7
16692.7
5865.5
14968.1
16614.6
16102.1
15876.9
15865.5
15873.3
15874.7
15874.7
15874.7
15874.7
15874.7
15874.7
15874.7
15874.7
15874.7
15874.7
15874.7
15874.7
15874.7
15874.7
15874.7
15874.7
15874.7
15874.7
15874.7
15874.7
15874.7
15874.7
15874.7
5125.31
13738.8
15590.4
15172.4
14940.1
14920.7
14927.8
14929.5
14929.5
14929.5
14929.5
14929.5
14929.5
14929.5
14929.5
14929.5
14929.5
14929.5
14929.5
14929.5
14929.5
14929.5
14929.5
14929.5
14929.5
14929.5
14929.5
14929.5
14929.5
14929.5
4439.57
12462.5
14455
14138.8
13908.1
13881.5
13887.4
13889.3
13889.4
13889.4
13889.4
13889.4
13889.4
13889.4
13889.4
13889.4
13889.4
13889.4
13889.4
13889.4
13889.4
13889.4
13889.4
13889.4
13889.4
13889.4
13889.4
13889.4
13889.4
13889.4
3813.2
11178.9
13249.4
13035.4
12814
12781.3
12785.7
12787.7
12787.8
12787.8
12787.8
12787.8
12787.8
12787.8
12787.8
12787.8
12787.8
12787.8
12787.8
12787.8
12787.8
12787.8
12787.8
12787.8
12787.8
12787.8
12787.8
12787.8
12787.8
12787.8
3248.66
9922.18
12012.5
11895.6
11689.5
11652.2
11655
11657
11657.2
11657.2
11657.2
11657.2
11657.2
11657.2
11657.2
11657.2
11657.2
11657.2
11657.2
11657.2
11657.2
11657.2
11657.2
11657.2
11657.2
11657.2
11657.2
11657.2
11657.2
11657.2
2746.22
8719.54
10779.1
10749.8
10563.6
10523.3
10524.5
10526.3
10526.6
10526.6
10526.6
10526.6
10526.6
10526.6
10526.6
10526.6
10526.6
10526.6
10526.6
10526.6
10526.6
10526.6
10526.6
10526.6
10526.6
10526.6
10526.6
10526.6
10526.6
10526.6
2304.3
7591.29
9578.39
9624.52
9461.09
9419.36
9419.06
9420.71
9421
9421
9421
9420.99
9420.99
9420.99
9420.99
9420.99
9420.99
9420.99
9420.99
9420.99
9420.99
9420.99
9420.99
9420.99
9420.99
9420.99
9420.99
9420.99
9420.99
9420.99
1919.85
6551.13
8433.37
8541.43
8402.11
8360.46
8358.77
8360.19
8360.5
8360.51
8360.5
8360.5
8360.5
8360.5
8360.5
8360.5
8360.5
8360.5
8360.5
8360.5
8360.5
8360.5
8360.5
8360.5
8360.5
8360.5
8360.5
8360.5
8360.5
8360.5
1588.8
5606.91
7361.02
7517.2
7402.03
7361.72
7358.86
7360.02
7360.33
7360.35
7360.35
7360.35
7360.35
7360.35
7360.35
7360.35
7360.35
7360.35
7360.35
7360.35
7360.35
7360.35
7360.35
7360.35
7360.35
7360.35
7360.35
7360.35
7360.35
7360.35
1306.45
4761.57
6372.62
6563.69
6471.66
6433.7
6429.93
6430.81
6431.11
6431.14
6431.14
6431.14
6431.14
6431.14
6431.14
6431.14
6431.14
6431.14
6431.14
6431.14
6431.14
6431.14
6431.14
6431.14
6431.14
6431.14
6431.14
6431.14
6431.14
6431.14
1067.75
4014.15
5474.5
5688.39
5617.72
5582.85
5578.42
5579.03
5579.32
5579.35
5579.35
5579.35
5579.35
5579.35
5579.35
5579.35
5579.35
5579.35
5579.35
5579.35
5579.35
5579.35
5579.35
5579.35
5579.35
5579.35
5579.35
5579.35
5579.35
5579.35
867.642
3360.76
4668.8
4894.98
4843.39
4812.09
4807.26
4807.61
4807.87
4807.91
4807.91
4807.91
4807.91
4807.91
4807.91
4807.91
4807.91
4807.91
4807.91
4807.91
4807.91
4807.91
4807.91
4807.91
4807.91
4807.91
4807.91
4807.91
4807.91
4807.91
701.169
2795.44
3954.35
4184.01
4148.97
4121.47
4116.46
4116.6
4116.82
4116.86
4116.86
4116.86
4116.86
4116.86
4116.86
4116.86
4116.86
4116.86
4116.86
4116.86
4116.86
4116.86
4116.86
4116.86
4116.86
4116.86
4116.86
4116.86
4116.86
4116.86
563.681
2310.94
3327.48
3553.58
3532.43
3508.8
3503.8
3503.75
3503.93
3503.97
3503.97
3503.97
3503.97
3503.97
3503.97
3503.97
3503.97
3503.97
3503.97
3503.97
3503.97
3503.97
3503.97
3503.97
3503.97
3503.97
3503.97
3503.97
3503.97
3503.97
450.924
1899.39
2782.88
3000.02
2990.21
2970.32
2965.49
2965.29
2965.44
2965.47
2965.48
2965.48
2965.48
2965.48
2965.48
2965.48
2965.48
2965.48
2965.48
2965.48
2965.48
2965.48
2965.48
2965.48
2965.48
2965.48
2965.48
2965.48
2965.48
2965.48
358.778
1551.75
2312.74
2516.97
2516.08
2499.71
2495.17
2494.85
2494.96
2495
2495
2495
2495
2495
2495
2495
2495
2495
2495
2495
2495
2495
2495
2495
2495
2495
2495
2495
2495
2495
286.463
1269.25
1922.9
2112.56
2118.48
2105.26
2101.09
2100.68
2100.76
2100.79
2100.8
2100.8
2100.8
2100.8
2100.8
2100.8
2100.8
2100.8
2100.8
2100.8
2100.8
2100.8
2100.8
2100.8
2100.8
2100.8
2100.8
2100.8
2100.8
2100.8
208.956
961.634
1488.79
1655.28
1666.5
1656.73
1653.12
1652.66
1652.71
1652.74
1652.74
1652.74
1652.74
1652.74
1652.74
1652.74
1652.74
1652.74
1652.74
1652.74
1652.74
1652.74
1652.74
1652.74
1652.74
1652.74
1652.74
1652.74
1652.74
1652.74
)
;

boundaryField
{
    fixedWall_Bottom
    {
        type            greyDiffusiveRadiation;
        refValue        uniform 18049.5;
        refGradient     uniform 0;
        valueFraction   uniform 1;
        source          uniform 0;
        value           uniform 18049.5;
    }
    fixedWall_Right
    {
        type            greyDiffusiveRadiation;
        refValue        uniform 0;
        refGradient     uniform 0;
        valueFraction   uniform 0;
        source          uniform 0;
        value           nonuniform List<scalar> 
30
(
18058.5
18059.2
18000.6
17978.7
18060.7
18193.8
18292.9
18294.9
18155.2
17845.6
17355.9
16692.7
15874.7
14929.5
13889.4
12787.8
11657.2
10526.6
9420.99
8360.5
7360.35
6431.14
5579.35
4807.91
4116.86
3503.97
2965.48
2495
2100.8
1652.74
)
;
    }
    fixedWall_Left
    {
        type            greyDiffusiveRadiation;
        refValue        uniform 0;
        refGradient     uniform 0;
        valueFraction   uniform 1;
        source          uniform 0;
        value           uniform 0;
    }
    fixedWall_Top
    {
        type            greyDiffusiveRadiation;
        refValue        uniform 0;
        refGradient     uniform 0;
        valueFraction   uniform 0;
        source          uniform 0;
        value           nonuniform List<scalar> 
30
(
208.956
961.634
1488.79
1655.28
1666.5
1656.73
1653.12
1652.66
1652.71
1652.74
1652.74
1652.74
1652.74
1652.74
1652.74
1652.74
1652.74
1652.74
1652.74
1652.74
1652.74
1652.74
1652.74
1652.74
1652.74
1652.74
1652.74
1652.74
1652.74
1652.74
)
;
    }
    frontAndBack
    {
        type            empty;
    }
}


// ************************************************************************* //
