/*--------------------------------*- C++ -*----------------------------------*\
| =========                 |                                                 |
| \\      /  F ield         | OpenFOAM: The Open Source CFD Toolbox           |
|  \\    /   O peration     | Version:  2312                                  |
|   \\  /    A nd           | Website:  www.openfoam.com                      |
|    \\/     M anipulation  |                                                 |
\*---------------------------------------------------------------------------*/
FoamFile
{
    version     2.0;
    format      ascii;
    arch        "LSB;label=32;scalar=64";
    class       volScalarField;
    location    "0.015";
    object      ILambda_12_0;
}
// * * * * * * * * * * * * * * * * * * * * * * * * * * * * * * * * * * * * * //

dimensions      [1 0 -3 0 0 0 0];

internalField   nonuniform List<scalar> 
900
(
4219.05
10357.5
14296.5
16599.8
17810.6
18349
18513.2
18497.7
18415
18321.7
18241.3
18180.6
18138.4
18110.8
18093.7
18083.7
18078.1
18075.1
18073.8
18073.2
18073
18073
18073.1
18073.2
18073.3
18073.4
18073.4
18073.5
18073.5
18073.5
-695.302
486.124
3451.12
7088.11
10581.9
13468.7
15594.7
17018.4
17893.5
18385
18631.3
18733.4
18758.3
18747
18722.6
18696.6
18674
18656.5
18643.6
18634.7
18628.8
18624.9
18622.5
18621
18620.1
18619.6
18619.3
18619.1
18619.1
18619
-299.709
-919.253
-833.417
349.557
2551.56
5362.85
8288.49
10947.4
13139
14814.2
16017.9
16837.6
17368.7
17696.4
17888.4
17994.4
18048.5
18072.9
18081.5
18082.3
18079.8
18076.4
18073.2
18070.5
18068.5
18067
18066
18065.3
18064.9
18064.6
-2.44428
-266.717
-742.595
-1079.55
-861.497
125.643
1806.53
3916.56
6150.17
8260.21
10093.9
11587.3
12740.9
13593
14198.5
14614.1
14890.2
15068.3
15179.6
15247.2
15286.9
15309.4
15321.6
15327.8
15330.8
15331.9
15332.2
15332.2
15331.9
15331.7
13.9857
21.4651
-127.803
-483.26
-889.816
-1072.93
-813.029
-45.677
1147.56
2603.98
4146.8
5629.41
6953.93
8070.95
8969.51
9664.1
10182.9
10558.7
10823.8
11006.1
11128.8
11209.5
11261.5
11294.4
11314.8
11327.1
11334.5
11338.8
11341.2
11342.8
-0.583314
26.0938
48.5532
-27.5639
-256.532
-576.123
-837.161
-888.805
-644.189
-98.9301
686.386
1618.05
2598.81
3547.5
4407.74
5148.41
5759.36
6245.29
6619.79
6900.52
7105.81
7252.63
7355.52
7426.28
7474.1
7505.9
7526.72
7540.15
7548.59
7554.96
-2.02821
1.88689
28.857
55.2322
23.6846
-103.643
-306.477
-513.713
-639.237
-617.059
-419.61
-57.9651
429.345
991.117
1576.32
2142.53
2659.73
3110.57
3488.49
3794.82
4035.99
4221.02
4359.74
4461.61
4535.01
4586.99
4623.22
4648.1
4664.77
4678.03
-0.390936
-3.03625
3.02144
24.5852
46.3226
37.0778
-25.777
-138.237
-269.663
-376.357
-418.189
-370.298
-227.136
-0.0626581
288.569
612.015
944.594
1265.17
1558.73
1816.42
2034.64
2213.82
2357.01
2468.7
2553.96
2617.78
2664.71
2698.68
2722.63
2742.6
0.179058
-1.34831
-2.64089
2.80418
17.2361
32.0012
31.3874
2.98925
-54.0372
-127.568
-197.202
-241.46
-244.006
-197.012
-101.497
34.528
198.911
378.224
560.001
734.144
893.504
1033.85
1153.47
1252.54
1332.55
1395.72
1444.6
1481.74
1509.17
1533.12
0.136567
-0.162887
-1.4838
-1.83731
2.02446
10.6236
19.5255
21.1723
9.16364
-18.0615
-56.0762
-95.9251
-127.036
-140.182
-129.518
-93.3486
-33.767
44.3904
134.848
231.092
327.266
418.713
502.174
575.745
638.676
691.102
733.759
767.764
794.031
818.062
0.0428511
0.0920463
-0.349619
-1.16427
-1.1006
1.29443
6.04686
11.0109
12.6634
7.84833
-4.61657
-23.2535
-44.3115
-62.8824
-74.2125
-74.7635
-62.7875
-38.3939
-3.23109
40.0399
88.3127
138.524
188.005
234.674
277.101
314.475
346.498
373.294
394.939
415.72
0.00544322
0.0624913
0.00251288
-0.34383
-0.761421
-0.59321
0.773193
3.269
5.89135
7.03412
5.1931
-0.345872
-9.14782
-19.6996
-29.8175
-37.1985
-39.9267
-36.8082
-27.4949
-12.4195
7.39319
30.5705
55.6295
81.1711
106.011
129.246
150.273
168.778
184.421
200.227
-0.0018513
0.0207767
0.0382931
-0.0424788
-0.256167
-0.445177
-0.29564
0.441371
1.70481
3.03649
3.71617
3.04522
0.637026
-3.40876
-8.5007
-13.6978
-17.9323
-20.2372
-19.9197
-16.6502
-10.4694
-1.72864
9.00586
21.06
33.7482
46.4483
58.6475
69.9783
80.0231
90.7462
-0.00148954
0.00404977
0.0186251
0.0142257
-0.0487993
-0.164182
-0.241275
-0.13819
0.243656
0.865711
1.52191
1.89334
1.66194
0.631688
-1.19076
-3.58071
-6.14254
-8.39707
-9.8796
-10.2227
-9.20848
-6.78506
-3.05288
1.77032
7.39419
13.5007
19.7815
25.9748
31.7516
38.3045
-0.000584786
4.1129e-05
0.00559188
0.0113405
0.0011442
-0.0385144
-0.0956307
-0.123732
-0.0609216
0.130993
0.430631
0.746387
0.938448
0.86429
0.428785
-0.379685
-1.47805
-2.70321
-3.8454
-4.68908
-5.05068
-4.80557
-3.90076
-2.35407
-0.242668
2.31454
5.17619
8.20224
11.1888
14.8187
-0.000163369
-0.000353974
0.00107506
0.00438726
0.00537623
-0.00346297
-0.0255739
-0.0521115
-0.060793
-0.0252867
0.0688927
0.210679
0.35971
0.455188
0.434054
0.251565
-0.102901
-0.599498
-1.17205
-1.73048
-2.17748
-2.4251
-2.40772
-2.0896
-1.46666
-0.563281
0.574049
1.88819
3.27405
5.10198
-3.20798e-05
-0.00018427
3.6924e-05
0.00118466
0.00266325
0.00197143
-0.00391894
-0.0153077
-0.0270259
-0.0288448
-0.00977409
0.035556
0.101658
0.170876
0.216949
0.212266
0.136272
-0.0177374
-0.239381
-0.502155
-0.767974
-0.993826
-1.13884
-1.17031
-1.0676
-0.823823
-0.445277
0.05262
0.624301
1.46027
-2.38546e-06
-6.34864e-05
-7.67191e-05
0.000209765
0.000879149
0.00136601
0.000434105
-0.00299708
-0.00853873
-0.0134858
-0.0132849
-0.00341908
0.0180494
0.0484784
0.080191
0.101908
0.101644
0.070128
0.00368276
-0.094224
-0.213095
-0.337024
-0.447311
-0.52542
-0.55565
-0.527079
-0.434626
-0.278154
-0.0738961
0.27089
1.49668e-06
-1.68962e-05
-4.26216e-05
2.85855e-06
0.000214496
0.000534041
0.000608967
-0.000105452
-0.0019422
-0.00452311
-0.00652242
-0.00595892
-0.00100057
0.00902816
0.0228824
0.037241
0.0472835
0.047846
0.0348064
0.00629539
-0.0365919
-0.0897368
-0.146563
-0.199049
-0.238945
-0.258929
-0.253552
-0.219305
-0.160482
-0.0345445
9.79522e-07
-3.3904e-06
-1.54191e-05
-1.68145e-05
3.33123e-05
0.000156194
0.000284159
0.00023355
-0.000215837
-0.0011426
-0.00230239
-0.00307315
-0.00260823
-0.000173344
0.00445596
0.0107029
0.0171371
0.0217074
0.0222026
0.0168123
0.00462991
-0.0140279
-0.0375586
-0.0632652
-0.0877449
-0.10738
-0.118848
-0.119309
-0.109203
-0.0702765
3.88029e-07
-3.59753e-07
-4.39198e-06
-8.96883e-06
-1.41504e-06
3.43665e-05
9.54682e-05
0.000136424
7.12404e-05
-0.000182476
-0.000629775
-0.00113514
-0.00141574
-0.00111499
5.81058e-05
0.00217275
0.00496526
0.0078221
0.00987372
0.0101787
0.00794941
0.00276087
-0.00531017
-0.0156446
-0.027144
-0.0383774
-0.0477855
-0.0537874
-0.0560115
-0.0472058
1.23341e-07
8.88604e-08
-1.00041e-06
-3.24403e-06
-3.61735e-06
4.33374e-06
2.51948e-05
5.20088e-05
5.97268e-05
1.10008e-05
-0.00012251
-0.000330934
-0.000545078
-0.000639359
-0.000465447
9.07229e-05
0.00104771
0.00228633
0.00354434
0.00445442
0.00461762
0.00369432
0.00148991
-0.00198501
-0.00649284
-0.0115885
-0.0166781
-0.021054
-0.0243896
-0.0240649
3.34691e-08
7.4808e-08
-1.61084e-07
-9.43187e-07
-1.77573e-06
-7.03311e-07
4.93078e-06
1.56049e-05
2.59867e-05
2.37214e-05
-6.46501e-06
-7.32613e-05
-0.000167596
-0.000255947
-0.000283588
-0.00018948
7.05889e-05
0.000500063
0.00104556
0.00159539
0.00199485
0.00207564
0.00169232
0.00075748
-0.000732691
-0.00268746
-0.00492876
-0.00719445
-0.00931736
-0.0104668
7.76976e-09
3.17642e-08
-3.2052e-09
-2.25408e-07
-6.28074e-07
-7.44355e-07
4.16658e-07
3.73545e-06
8.67532e-06
1.20819e-05
8.2973e-06
-8.5961e-06
-4.07491e-05
-8.23932e-05
-0.000117874
-0.000123705
-7.50102e-05
4.51473e-05
0.000236423
0.000475107
0.000713768
0.000887456
0.000925426
0.000765805
0.000369896
-0.000266965
-0.0011109
-0.00208439
-0.00312317
-0.0040165
1.45296e-09
1.06357e-08
1.11258e-08
-4.11248e-08
-1.82588e-07
-3.34264e-07
-2.05415e-07
6.28406e-07
2.3666e-06
4.45637e-06
5.25618e-06
2.31538e-06
-6.53542e-06
-2.15413e-05
-3.95217e-05
-5.33628e-05
-5.3115e-05
-2.87286e-05
2.62009e-05
0.000110798
0.000214609
0.000317548
0.00039242
0.000409595
0.000342889
0.000175401
-9.62045e-05
-0.000456977
-0.000888654
-0.00136369
1.60178e-10
3.06484e-09
6.03234e-09
-3.39729e-09
-4.44596e-08
-1.14569e-07
-1.45366e-07
1.1228e-08
5.10548e-07
1.34455e-06
2.1488e-06
2.135e-06
2.89285e-07
-4.13363e-06
-1.09593e-05
-1.85656e-05
-2.37882e-05
-2.2458e-05
-1.05493e-05
1.43251e-05
5.15018e-05
9.63997e-05
0.000140539
0.000172559
0.00018009
0.000152113
8.12298e-05
-3.36473e-05
-0.000189887
-0.000399489
-2.73133e-11
7.76919e-10
2.27019e-09
1.48811e-09
-8.56508e-09
-3.29582e-08
-6.01903e-08
-4.83608e-08
6.8135e-08
3.35398e-07
7.07205e-07
9.8099e-07
7.99301e-07
-2.40411e-07
-2.3721e-06
-5.40925e-06
-8.56496e-06
-1.04556e-05
-9.35134e-06
-3.65225e-06
7.5164e-06
2.37571e-05
4.30741e-05
6.1896e-05
7.54891e-05
7.87065e-05
6.68982e-05
3.71212e-05
-1.16425e-05
-9.23202e-05
-2.64199e-11
1.70854e-10
7.15459e-10
1.04396e-09
-9.349e-10
-8.05544e-09
-1.99396e-08
-2.69873e-08
-7.64295e-09
6.38077e-08
1.95704e-07
3.50391e-07
4.25602e-07
2.66324e-07
-2.80974e-07
-1.27904e-06
-2.60449e-06
-3.88883e-06
-4.53566e-06
-3.83334e-06
-1.15112e-06
3.82499e-06
1.08806e-05
1.91508e-05
2.71354e-05
3.2867e-05
3.41983e-05
2.92522e-05
1.69047e-05
-1.04367e-05
-1.1753e-11
3.02256e-11
1.98431e-10
4.28968e-10
1.88533e-10
-1.58861e-09
-5.64201e-09
-1.04083e-08
-1.00175e-08
5.35229e-09
4.44678e-08
1.05396e-07
1.65066e-07
1.75055e-07
7.06256e-08
-2.04221e-07
-6.60418e-07
-1.22846e-06
-1.74016e-06
-1.94141e-06
-1.54184e-06
-2.94964e-07
1.90858e-06
4.95933e-06
8.48356e-06
1.18521e-05
1.42446e-05
1.47863e-05
1.28425e-05
4.83593e-06
-4.57947e-12
1.21516e-12
4.72332e-11
1.50467e-10
2.08139e-10
-1.10694e-10
-1.26768e-09
-3.34288e-09
-5.18687e-09
-3.82114e-09
4.9803e-09
2.4248e-08
5.18419e-08
7.66573e-08
7.76842e-08
2.83357e-08
-9.32802e-08
-2.90205e-07
-5.33264e-07
-7.54408e-07
-8.51808e-07
-7.08732e-07
-2.23973e-07
6.52477e-07
1.88745e-06
3.34563e-06
4.78902e-06
5.90158e-06
6.42106e-06
4.9598e-06
)
;

boundaryField
{
    fixedWall_Bottom
    {
        type            greyDiffusiveRadiation;
        refValue        uniform 18049.5;
        refGradient     uniform 0;
        valueFraction   uniform 1;
        source          uniform 0;
        value           uniform 18049.5;
    }
    fixedWall_Right
    {
        type            greyDiffusiveRadiation;
        refValue        uniform 0;
        refGradient     uniform 0;
        valueFraction   uniform 0;
        source          uniform 0;
        value           nonuniform List<scalar> 
30
(
18073.5
18619
18064.6
15331.7
11342.8
7554.96
4678.03
2742.6
1533.12
818.062
415.72
200.227
90.7462
38.3045
14.8187
5.10198
1.46027
0.27089
-0.0345445
-0.0702765
-0.0472058
-0.0240649
-0.0104668
-0.0040165
-0.00136369
-0.000399489
-9.23202e-05
-1.04367e-05
4.83593e-06
4.9598e-06
)
;
    }
    fixedWall_Left
    {
        type            greyDiffusiveRadiation;
        refValue        uniform 0;
        refGradient     uniform 0;
        valueFraction   uniform 1;
        source          uniform 0;
        value           uniform 0;
    }
    fixedWall_Top
    {
        type            greyDiffusiveRadiation;
        refValue        uniform 0;
        refGradient     uniform 0;
        valueFraction   uniform 0;
        source          uniform 0;
        value           nonuniform List<scalar> 
30
(
-4.57947e-12
1.21516e-12
4.72332e-11
1.50467e-10
2.08139e-10
-1.10694e-10
-1.26768e-09
-3.34288e-09
-5.18687e-09
-3.82114e-09
4.9803e-09
2.4248e-08
5.18419e-08
7.66573e-08
7.76842e-08
2.83357e-08
-9.32802e-08
-2.90205e-07
-5.33264e-07
-7.54408e-07
-8.51808e-07
-7.08732e-07
-2.23973e-07
6.52477e-07
1.88745e-06
3.34563e-06
4.78902e-06
5.90158e-06
6.42106e-06
4.9598e-06
)
;
    }
    frontAndBack
    {
        type            empty;
    }
}


// ************************************************************************* //
