/*--------------------------------*- C++ -*----------------------------------*\
| =========                 |                                                 |
| \\      /  F ield         | OpenFOAM: The Open Source CFD Toolbox           |
|  \\    /   O peration     | Version:  2312                                  |
|   \\  /    A nd           | Website:  www.openfoam.com                      |
|    \\/     M anipulation  |                                                 |
\*---------------------------------------------------------------------------*/
FoamFile
{
    version     2.0;
    format      ascii;
    arch        "LSB;label=32;scalar=64";
    class       volScalarField;
    location    "0.015";
    object      qin;
}
// * * * * * * * * * * * * * * * * * * * * * * * * * * * * * * * * * * * * * //

dimensions      [1 0 -3 0 0 0 0];

internalField   uniform 0;

boundaryField
{
    fixedWall_Bottom
    {
        type            calculated;
        value           nonuniform List<scalar> 
30
(
2601.65
3577.18
4114.55
4482.4
4736.73
4917.45
5047.52
5141.62
5209.69
5258.75
5293.77
5318.31
5334.83
5345
5349.84
5349.85
5345.02
5334.86
5318.36
5293.83
5258.82
5209.77
5141.71
5047.63
4917.58
4736.86
4482.51
4114.65
3577.27
2601.73
)
;
    }
    fixedWall_Right
    {
        type            calculated;
        value           nonuniform List<scalar> 
30
(
29880.7
25900.9
22658
19359.7
16138.2
13209.1
10673
8531.36
6755.19
5304.86
4135.94
3204.08
2468.1
1891.51
1442.95
1096.17
829.538
625.558
470.205
352.368
263.321
196.259
145.914
108.228
80.0924
59.1357
43.5551
31.9743
23.4433
15.8511
)
;
    }
    fixedWall_Left
    {
        type            calculated;
        value           nonuniform List<scalar> 
30
(
29880.7
25900.7
22658.5
19359
16136
13210.6
10678.6
8534.69
6751.24
5294.01
4121.36
3188.82
2454.03
1879.41
1432.94
1088.04
822.995
620.298
465.968
348.948
260.555
194.023
144.11
106.778
78.9327
58.2131
42.8256
31.4015
22.994
15.5305
)
;
    }
    fixedWall_Top
    {
        type            calculated;
        value           nonuniform List<scalar> 
30
(
92.9476
113.424
129.65
140.177
148.257
155.079
160.575
164.821
168.07
170.547
172.413
173.783
174.748
175.374
175.704
175.758
175.535
175.012
174.145
172.862
171.069
168.644
165.427
161.196
155.707
148.894
140.819
130.292
114.063
93.5789
)
;
    }
    frontAndBack
    {
        type            empty;
    }
}


// ************************************************************************* //
