/*--------------------------------*- C++ -*----------------------------------*\
| =========                 |                                                 |
| \\      /  F ield         | OpenFOAM: The Open Source CFD Toolbox           |
|  \\    /   O peration     | Version:  2306                                  |
|   \\  /    A nd           | Website:  www.openfoam.com                      |
|    \\/     M anipulation  |                                                 |
\*---------------------------------------------------------------------------*/
FoamFile
{
    version     2.0;
    format      ascii;
    arch        "LSB;label=32;scalar=64";
    class       volScalarField;
    location    "3";
    object      Keff;
}
// * * * * * * * * * * * * * * * * * * * * * * * * * * * * * * * * * * * * * //

dimensions      [1 1 -3 -1 0 0 0];

internalField   nonuniform List<scalar> 
32768
(
67.2037
67.2017
67.1977
67.1916
67.1834
67.1731
67.1608
67.1465
67.13
67.1114
67.0908
67.068
67.043
67.0159
66.9866
66.9552
66.9215
66.8856
66.8474
66.807
66.7643
66.7193
66.6719
66.6223
66.5703
66.516
66.4594
66.4004
66.3391
66.2755
66.2095
66.1413
66.0708
65.9981
65.9231
65.846
65.7668
65.6856
65.6023
65.5172
65.4302
65.3415
65.2511
65.1592
65.0659
64.9712
64.8753
64.7784
64.6805
64.5818
64.4825
64.3827
64.2826
64.1823
64.082
63.9818
63.8819
63.7826
63.6838
63.5859
63.489
63.3932
63.2987
63.2056
63.1142
63.0246
62.9368
62.8512
62.7677
62.6866
62.608
62.532
62.4587
62.3883
62.3208
62.2565
62.1954
62.1375
62.0831
62.0321
61.9848
61.9411
61.9012
61.8652
61.8331
61.805
61.7809
61.761
61.7452
61.7337
61.7264
61.7234
61.7247
61.7303
61.7402
61.7544
61.7728
61.7953
61.822
61.8525
61.887
61.9251
61.9668
62.0119
62.0601
62.1113
62.1653
62.2219
62.2809
62.3421
62.4053
62.4704
62.5373
62.6058
62.6758
62.7473
62.8201
62.8942
62.9695
63.046
63.1236
63.2024
63.2822
63.3629
63.4446
63.5271
63.6103
63.6941
63.7784
63.8632
63.9481
64.0332
64.1183
64.2032
64.2878
64.372
64.4556
64.5385
64.6205
64.7016
64.7816
64.8605
64.9381
65.0144
65.0893
65.1627
65.2345
65.3048
65.3735
65.4405
65.5058
65.5694
65.6312
65.6914
65.7498
65.8065
65.8614
65.9147
65.9663
66.0162
66.0644
66.111
66.156
66.1994
66.2413
66.2817
66.3206
66.3581
66.3941
66.4288
66.4622
66.4943
66.5251
66.5547
66.5832
66.6105
66.6366
66.6618
66.6858
66.7089
66.7311
66.7523
66.7726
66.792
66.8106
66.8285
66.8455
66.8618
66.8774
66.8924
66.9066
66.9203
66.9333
66.9458
66.9577
66.9691
66.98
66.9904
67.0003
67.0098
67.0188
67.0275
67.0357
67.0436
67.0511
67.0583
67.0651
67.0717
67.0779
67.0839
67.0895
67.095
67.1001
67.1051
67.1098
67.1142
67.1185
67.1226
67.1265
67.1302
67.1338
67.1371
67.1404
67.1434
67.1464
67.1492
67.1519
67.1544
67.1568
67.1592
67.1614
67.1635
67.1655
67.1675
67.1693
67.1711
67.1728
67.1744
67.1759
67.1774
67.1788
67.1802
67.1815
67.1828
67.184
67.1851
67.1862
67.1873
67.1883
67.1893
67.1903
67.1912
67.1921
67.193
67.1937
67.195
67.2037
67.2017
67.1977
67.1916
67.1834
67.1732
67.1609
67.1465
67.13
67.1115
67.0908
67.068
67.0431
67.016
66.9867
66.9552
66.9216
66.8856
66.8475
66.807
66.7643
66.7193
66.672
66.6223
66.5704
66.516
66.4594
66.4004
66.339
66.2753
66.2093
66.1411
66.0705
65.9977
65.9227
65.8455
65.7662
65.6849
65.6015
65.5163
65.4292
65.3403
65.2498
65.1578
65.0643
64.9695
64.8734
64.7764
64.6783
64.5795
64.48
64.3801
64.2798
64.1793
64.0788
63.9785
63.8785
63.7789
63.68
63.5819
63.4848
63.3889
63.2943
63.2011
63.1095
63.0197
62.9319
62.8461
62.7625
62.6813
62.6026
62.5265
62.4531
62.3826
62.315
62.2506
62.1894
62.1315
62.0769
62.0259
61.9785
61.9348
61.8948
61.8587
61.8266
61.7984
61.7743
61.7543
61.7385
61.7269
61.7195
61.7165
61.7178
61.7234
61.7332
61.7474
61.7658
61.7883
61.815
61.8456
61.8801
61.9183
61.96
62.0051
62.0535
62.1048
62.1589
62.2157
62.2748
62.3362
62.3997
62.465
62.5321
62.6009
62.6711
62.7428
62.8159
62.8902
62.9658
63.0426
63.1205
63.1995
63.2796
63.3606
63.4425
63.5252
63.6086
63.6927
63.7772
63.8622
63.9473
64.0326
64.1179
64.203
64.2877
64.3721
64.4558
64.5388
64.621
64.7022
64.7824
64.8614
64.9391
65.0154
65.0904
65.1639
65.2358
65.3061
65.3748
65.4419
65.5072
65.5708
65.6327
65.6929
65.7513
65.808
65.863
65.9162
65.9678
66.0176
66.0659
66.1124
66.1574
66.2008
66.2427
66.2831
66.3219
66.3594
66.3954
66.4301
66.4634
66.4955
66.5263
66.5559
66.5843
66.6115
66.6377
66.6627
66.6868
66.7099
66.732
66.7531
66.7734
66.7928
66.8114
66.8292
66.8462
66.8625
66.8781
66.893
66.9073
66.9209
66.9339
66.9464
66.9583
66.9696
66.9805
66.9908
67.0007
67.0102
67.0192
67.0279
67.0361
67.044
67.0515
67.0586
67.0655
67.072
67.0782
67.0841
67.0898
67.0952
67.1004
67.1053
67.11
67.1144
67.1187
67.1228
67.1267
67.1304
67.1339
67.1373
67.1405
67.1436
67.1465
67.1493
67.152
67.1545
67.157
67.1593
67.1615
67.1636
67.1656
67.1676
67.1694
67.1712
67.1729
67.1745
67.176
67.1775
67.1789
67.1803
67.1816
67.1828
67.184
67.1852
67.1863
67.1873
67.1883
67.1893
67.1903
67.1912
67.1921
67.193
67.1937
67.195
67.2037
67.2017
67.1977
67.1916
67.1834
67.1732
67.1609
67.1465
67.1301
67.1115
67.0909
67.0681
67.0432
67.0161
66.9868
66.9554
66.9217
66.8858
66.8476
66.8072
66.7645
66.7194
66.6721
66.6224
66.5704
66.516
66.4593
66.4002
66.3388
66.275
66.209
66.1406
66.0699
65.9969
65.9218
65.8444
65.765
65.6835
65.5999
65.5144
65.4271
65.338
65.2473
65.155
65.0612
64.9661
64.8697
64.7723
64.674
64.5748
64.475
64.3748
64.2741
64.1733
64.0725
63.9718
63.8715
63.7716
63.6724
63.574
63.4766
63.3804
63.2854
63.192
63.1001
63.0101
62.922
62.8359
62.7521
62.6707
62.5917
62.5154
62.4418
62.3711
62.3034
62.2388
62.1774
62.1193
62.0647
62.0135
61.966
61.9221
61.882
61.8458
61.8135
61.7852
61.761
61.7409
61.725
61.7133
61.7059
61.7027
61.7039
61.7095
61.7193
61.7334
61.7518
61.7744
61.801
61.8317
61.8662
61.9045
61.9464
61.9917
62.0402
62.0918
62.1462
62.2033
62.2628
62.3245
62.3884
62.4542
62.5217
62.591
62.6617
62.7339
62.8075
62.8824
62.9585
63.0358
63.1143
63.1938
63.2743
63.3558
63.4382
63.5214
63.6053
63.6898
63.7748
63.8601
63.9457
64.0314
64.117
64.2025
64.2876
64.3722
64.4563
64.5396
64.622
64.7035
64.7839
64.8631
64.941
65.0175
65.0926
65.1662
65.2383
65.3087
65.3775
65.4446
65.51
65.5737
65.6357
65.6959
65.7543
65.811
65.866
65.9192
65.9708
66.0206
66.0688
66.1154
66.1603
66.2037
66.2455
66.2858
66.3246
66.362
66.398
66.4326
66.4659
66.4978
66.5286
66.5581
66.5864
66.6136
66.6397
66.6647
66.6887
66.7117
66.7337
66.7548
66.7751
66.7944
66.813
66.8307
66.8477
66.8639
66.8794
66.8943
66.9085
66.9221
66.935
66.9474
66.9593
66.9706
66.9814
66.9918
67.0016
67.011
67.02
67.0286
67.0368
67.0447
67.0521
67.0593
67.0661
67.0726
67.0788
67.0847
67.0903
67.0957
67.1008
67.1057
67.1104
67.1149
67.1191
67.1232
67.127
67.1307
67.1342
67.1376
67.1408
67.1439
67.1468
67.1496
67.1522
67.1548
67.1572
67.1595
67.1617
67.1638
67.1658
67.1677
67.1696
67.1713
67.173
67.1746
67.1761
67.1776
67.179
67.1804
67.1817
67.1829
67.1841
67.1852
67.1863
67.1874
67.1884
67.1894
67.1904
67.1913
67.1921
67.1931
67.1937
67.195
67.2037
67.2017
67.1977
67.1916
67.1834
67.1732
67.1609
67.1466
67.1302
67.1117
67.091
67.0683
67.0434
67.0163
66.987
66.9556
66.9219
66.886
66.8479
66.8074
66.7647
66.7196
66.6722
66.6225
66.5705
66.516
66.4592
66.4001
66.3385
66.2746
66.2084
66.1399
66.069
65.9958
65.9205
65.8429
65.7632
65.6813
65.5975
65.5117
65.424
65.3346
65.2434
65.1507
65.0565
64.961
64.8642
64.7663
64.6675
64.5679
64.4676
64.3668
64.2657
64.1644
64.063
63.9619
63.861
63.7607
63.661
63.5621
63.4642
63.3675
63.2722
63.1783
63.086
62.9956
62.9071
62.8207
62.7365
62.6548
62.5755
62.4988
62.425
62.354
62.286
62.2211
62.1595
62.1012
62.0463
61.9949
61.9471
61.903
61.8628
61.8263
61.7939
61.7654
61.741
61.7207
61.7047
61.6929
61.6853
61.6821
61.6832
61.6886
61.6984
61.7125
61.7308
61.7534
61.7801
61.8108
61.8454
61.8839
61.926
61.9715
62.0203
62.0723
62.1271
62.1846
62.2446
62.307
62.3714
62.4379
62.5061
62.5761
62.6476
62.7206
62.7949
62.8706
62.9475
63.0256
63.1049
63.1852
63.2665
63.3487
63.4319
63.5158
63.6004
63.6855
63.7712
63.8571
63.9433
64.0296
64.1158
64.2018
64.2874
64.3725
64.457
64.5407
64.6236
64.7054
64.7861
64.8656
64.9438
65.0207
65.096
65.1698
65.2421
65.3127
65.3816
65.4488
65.5143
65.5781
65.6401
65.7003
65.7588
65.8155
65.8705
65.9237
65.9753
66.0251
66.0732
66.1197
66.1646
66.2079
66.2497
66.2899
66.3286
66.3659
66.4018
66.4363
66.4695
66.5014
66.532
66.5614
66.5897
66.6168
66.6428
66.6677
66.6916
66.7145
66.7364
66.7574
66.7776
66.7968
66.8153
66.8329
66.8498
66.866
66.8814
66.8962
66.9103
66.9238
66.9367
66.9491
66.9608
66.9721
66.9829
66.9931
67.0029
67.0123
67.0213
67.0298
67.0379
67.0457
67.0531
67.0602
67.067
67.0734
67.0796
67.0855
67.0911
67.0964
67.1015
67.1064
67.111
67.1155
67.1197
67.1237
67.1276
67.1312
67.1347
67.1381
67.1412
67.1443
67.1472
67.1499
67.1526
67.1551
67.1575
67.1598
67.162
67.1641
67.1661
67.168
67.1698
67.1716
67.1732
67.1748
67.1763
67.1778
67.1792
67.1805
67.1818
67.1831
67.1842
67.1854
67.1865
67.1875
67.1885
67.1895
67.1904
67.1914
67.1922
67.1931
67.1938
67.1951
67.2037
67.2017
67.1977
67.1916
67.1835
67.1733
67.161
67.1467
67.1303
67.1118
67.0912
67.0685
67.0436
67.0165
66.9873
66.9559
66.9222
66.8863
66.8482
66.8077
66.765
66.7199
66.6725
66.6227
66.5706
66.516
66.4591
66.3999
66.3382
66.2741
66.2077
66.1389
66.0678
65.9944
65.9187
65.8408
65.7608
65.6786
65.5943
65.5081
65.42
65.33
65.2384
65.1451
65.0503
64.9542
64.8568
64.7583
64.6589
64.5586
64.4576
64.3562
64.2544
64.1524
64.0504
63.9486
63.8471
63.7461
63.6457
63.5462
63.4477
63.3504
63.2545
63.16
63.0672
62.9763
62.8873
62.8004
62.7157
62.6335
62.5538
62.4767
62.4025
62.3311
62.2628
62.1975
62.1355
62.0769
62.0217
61.97
61.922
61.8776
61.8371
61.8004
61.7677
61.739
61.7144
61.6939
61.6776
61.6656
61.6579
61.6545
61.6555
61.6608
61.6705
61.6845
61.7028
61.7254
61.7521
61.7829
61.8177
61.8563
61.8987
61.9445
61.9938
62.0462
62.1015
62.1597
62.2204
62.2835
62.3487
62.4161
62.4852
62.5562
62.6287
62.7027
62.7781
62.8549
62.9328
63.012
63.0923
63.1736
63.256
63.3392
63.4234
63.5082
63.5937
63.6798
63.7663
63.8532
63.9402
64.0272
64.1141
64.2008
64.2871
64.3729
64.458
64.5423
64.6257
64.708
64.7892
64.8691
64.9477
65.0249
65.1005
65.1746
65.2471
65.318
65.3871
65.4545
65.5201
65.584
65.6461
65.7064
65.7649
65.8216
65.8766
65.9298
65.9813
66.0311
66.0791
66.1256
66.1704
66.2136
66.2552
66.2953
66.334
66.3712
66.4069
66.4413
66.4744
66.5061
66.5366
66.5659
66.594
66.621
66.6468
66.6716
66.6954
66.7182
66.74
66.7609
66.7809
66.8
66.8184
66.8359
66.8527
66.8687
66.8841
66.8987
66.9128
66.9262
66.939
66.9512
66.9629
66.9741
66.9848
66.995
67.0047
67.014
67.0229
67.0313
67.0394
67.0471
67.0545
67.0615
67.0682
67.0746
67.0807
67.0866
67.0921
67.0974
67.1025
67.1073
67.1119
67.1163
67.1205
67.1245
67.1283
67.1319
67.1354
67.1387
67.1418
67.1448
67.1477
67.1504
67.1531
67.1556
67.1579
67.1602
67.1624
67.1645
67.1664
67.1683
67.1701
67.1719
67.1735
67.1751
67.1766
67.178
67.1794
67.1808
67.182
67.1833
67.1844
67.1856
67.1866
67.1877
67.1887
67.1896
67.1906
67.1915
67.1923
67.1932
67.1939
67.1952
67.2037
67.2017
67.1977
67.1917
67.1835
67.1734
67.1611
67.1468
67.1305
67.112
67.0914
67.0687
67.0439
67.0169
66.9877
66.9563
66.9227
66.8868
66.8486
66.8082
66.7654
66.7203
66.6728
66.623
66.5707
66.5161
66.4591
66.3996
66.3378
66.2735
66.2069
66.1378
66.0664
65.9927
65.9167
65.8384
65.7578
65.6752
65.5904
65.5036
65.4149
65.3244
65.232
65.1381
65.0426
64.9458
64.8476
64.7484
64.6481
64.547
64.4452
64.3429
64.2403
64.1375
64.0346
63.932
63.8296
63.7278
63.6266
63.5264
63.4271
63.329
63.2323
63.1372
63.0437
62.9521
62.8624
62.7749
62.6897
62.6069
62.5266
62.4491
62.3743
62.3025
62.2337
62.168
62.1056
62.0466
61.991
61.9389
61.8905
61.8458
61.805
61.768
61.735
61.706
61.6811
61.6604
61.6438
61.6316
61.6237
61.6201
61.6209
61.626
61.6356
61.6495
61.6678
61.6903
61.7171
61.748
61.783
61.8219
61.8645
61.9108
61.9605
62.0135
62.0695
62.1284
62.19
62.254
62.3203
62.3887
62.459
62.5312
62.6049
62.6803
62.757
62.8351
62.9144
62.9949
63.0765
63.1592
63.2428
63.3273
63.4127
63.4988
63.5855
63.6727
63.7603
63.8482
63.9362
64.0242
64.1121
64.1997
64.2869
64.3734
64.4593
64.5443
64.6283
64.7113
64.7931
64.8735
64.9526
65.0302
65.1063
65.1807
65.2535
65.3246
65.394
65.4616
65.5274
65.5914
65.6535
65.7139
65.7725
65.8292
65.8842
65.9374
65.9888
66.0385
66.0866
66.1329
66.1776
66.2207
66.2622
66.3022
66.3407
66.3777
66.4133
66.4476
66.4805
66.5121
66.5424
66.5715
66.5994
66.6262
66.6519
66.6766
66.7002
66.7228
66.7444
66.7652
66.785
66.804
66.8222
66.8396
66.8562
66.8721
66.8874
66.9019
66.9158
66.9291
66.9418
66.9539
66.9655
66.9766
66.9871
66.9972
67.0069
67.0161
67.0249
67.0332
67.0412
67.0489
67.0562
67.0631
67.0698
67.0761
67.0821
67.0879
67.0934
67.0986
67.1036
67.1084
67.113
67.1173
67.1214
67.1254
67.1292
67.1327
67.1362
67.1394
67.1426
67.1455
67.1484
67.1511
67.1537
67.1561
67.1585
67.1607
67.1629
67.1649
67.1669
67.1687
67.1705
67.1722
67.1739
67.1754
67.1769
67.1784
67.1797
67.181
67.1823
67.1835
67.1847
67.1858
67.1868
67.1879
67.1889
67.1898
67.1907
67.1916
67.1925
67.1934
67.194
67.1953
67.2037
67.2017
67.1978
67.1917
67.1836
67.1734
67.1612
67.147
67.1307
67.1122
67.0917
67.0691
67.0443
67.0173
66.9881
66.9568
66.9232
66.8873
66.8492
66.8087
66.7659
66.7208
66.6732
66.6233
66.571
66.5163
66.4591
66.3995
66.3374
66.2729
66.206
66.1366
66.0649
65.9907
65.9142
65.8355
65.7544
65.6712
65.5858
65.4984
65.4089
65.3176
65.2246
65.1298
65.0335
64.9357
64.8367
64.7364
64.6352
64.5331
64.4304
64.3271
64.2234
64.1196
64.0157
63.912
63.8087
63.7058
63.6037
63.5025
63.4023
63.3033
63.2057
63.1097
63.0154
62.923
62.8326
62.7443
62.6584
62.5749
62.494
62.4158
62.3405
62.2681
62.1987
62.1326
62.0697
62.0101
61.9541
61.9016
61.8528
61.8077
61.7664
61.7291
61.6957
61.6663
61.6411
61.6201
61.6032
61.5907
61.5825
61.5787
61.5793
61.5843
61.5937
61.6075
61.6257
61.6482
61.675
61.7061
61.7413
61.7804
61.8234
61.8702
61.9205
61.9741
62.031
62.0908
62.1533
62.2185
62.286
62.3557
62.4274
62.501
62.5763
62.6532
62.7315
62.8112
62.8921
62.9743
63.0575
63.1418
63.227
63.313
63.3999
63.4874
63.5756
63.6642
63.7531
63.8423
63.9315
64.0208
64.1098
64.1984
64.2866
64.3742
64.4609
64.5468
64.6316
64.7154
64.7978
64.8789
64.9585
65.0367
65.1132
65.1881
65.2613
65.3327
65.4023
65.4701
65.5361
65.6003
65.6626
65.723
65.7816
65.8384
65.8934
65.9465
65.9979
66.0476
66.0955
66.1417
66.1863
66.2292
66.2706
66.3104
66.3487
66.3856
66.421
66.4551
66.4878
66.5192
66.5493
66.5782
66.606
66.6326
66.6581
66.6825
66.7059
66.7283
66.7498
66.7703
66.79
66.8088
66.8268
66.844
66.8605
66.8763
66.8913
66.9057
66.9195
66.9326
66.9452
66.9572
66.9686
66.9795
66.99
67
67.0095
67.0186
67.0273
67.0355
67.0434
67.051
67.0582
67.0651
67.0716
67.0779
67.0838
67.0895
67.0949
67.1001
67.105
67.1097
67.1142
67.1185
67.1226
67.1265
67.1302
67.1338
67.1371
67.1404
67.1434
67.1464
67.1492
67.1518
67.1544
67.1568
67.1591
67.1614
67.1635
67.1655
67.1674
67.1693
67.171
67.1727
67.1743
67.1758
67.1773
67.1787
67.1801
67.1814
67.1826
67.1838
67.1849
67.186
67.1871
67.1881
67.1891
67.19
67.1909
67.1918
67.1926
67.1935
67.1942
67.1954
67.2037
67.2017
67.1978
67.1918
67.1837
67.1735
67.1614
67.1472
67.1309
67.1125
67.0921
67.0695
67.0447
67.0178
66.9887
66.9574
66.9238
66.888
66.8498
66.8094
66.7666
66.7214
66.6738
66.6238
66.5714
66.5165
66.4592
66.3994
66.3371
66.2723
66.205
66.1353
66.0631
65.9885
65.9115
65.8322
65.7505
65.6666
65.5805
65.4923
65.4021
65.3099
65.2159
65.1202
65.0229
64.9241
64.8239
64.7226
64.6202
64.517
64.4131
64.3086
64.2037
64.0987
63.9936
63.8887
63.7842
63.6802
63.577
63.4746
63.3733
63.2733
63.1746
63.0776
62.9823
62.889
62.7977
62.7086
62.6218
62.5376
62.4559
62.377
62.301
62.2279
62.1579
62.0911
62.0277
61.9676
61.911
61.858
61.8087
61.7631
61.7214
61.6836
61.6498
61.6201
61.5944
61.573
61.5559
61.543
61.5345
61.5304
61.5307
61.5355
61.5447
61.5584
61.5765
61.599
61.6259
61.6571
61.6925
61.732
61.7754
61.8227
61.8737
61.9281
61.9859
62.0467
62.1104
62.1769
62.2458
62.3171
62.3904
62.4657
62.5427
62.6214
62.7016
62.7832
62.866
62.9501
63.0352
63.1213
63.2084
63.2963
63.3849
63.4742
63.564
63.6542
63.7447
63.8354
63.9261
64.0167
64.1071
64.197
64.2864
64.3751
64.4629
64.5498
64.6356
64.7202
64.8034
64.8853
64.9656
65.0443
65.1214
65.1968
65.2704
65.3422
65.4122
65.4802
65.5465
65.6108
65.6732
65.7338
65.7924
65.8492
65.9042
65.9573
66.0086
66.0581
66.1059
66.152
66.1964
66.2392
66.2804
66.32
66.3582
66.3948
66.43
66.4638
66.4963
66.5275
66.5574
66.5861
66.6136
66.6399
66.6652
66.6894
66.7126
66.7348
66.756
66.7763
66.7958
66.8144
66.8322
66.8492
66.8655
66.8811
66.8959
66.9101
66.9237
66.9367
66.9491
66.9609
66.9722
66.983
66.9933
67.0031
67.0125
67.0215
67.03
67.0382
67.046
67.0534
67.0605
67.0673
67.0737
67.0799
67.0858
67.0914
67.0967
67.1018
67.1067
67.1113
67.1157
67.1199
67.1239
67.1278
67.1314
67.1349
67.1382
67.1414
67.1444
67.1473
67.1501
67.1527
67.1552
67.1576
67.1599
67.1621
67.1642
67.1661
67.168
67.1698
67.1716
67.1732
67.1748
67.1763
67.1778
67.1792
67.1805
67.1818
67.183
67.1841
67.1853
67.1863
67.1874
67.1884
67.1893
67.1903
67.1911
67.192
67.1928
67.1937
67.1943
67.1955
67.2037
67.2018
67.1978
67.1918
67.1838
67.1737
67.1616
67.1474
67.1312
67.1129
67.0925
67.07
67.0453
67.0184
66.9894
66.9581
66.9246
66.8888
66.8507
66.8102
66.7674
66.7222
66.6746
66.6245
66.572
66.5169
66.4594
66.3994
66.3368
66.2717
66.2041
66.134
66.0613
65.9862
65.9086
65.8286
65.7463
65.6616
65.5747
65.4856
65.3944
65.3013
65.2062
65.1094
65.0109
64.9109
64.8095
64.7069
64.6032
64.4986
64.3933
64.2875
64.1812
64.0748
63.9684
63.8621
63.7562
63.6509
63.5463
63.4427
63.3401
63.2388
63.139
63.0409
62.9445
62.8501
62.7577
62.6676
62.5799
62.4948
62.4123
62.3325
62.2557
62.1819
62.1112
62.0438
61.9796
61.9189
61.8617
61.8082
61.7583
61.7122
61.67
61.6316
61.5974
61.5671
61.5411
61.5192
61.5017
61.4884
61.4796
61.4751
61.4752
61.4797
61.4887
61.5022
61.5202
61.5428
61.5697
61.601
61.6367
61.6765
61.7204
61.7683
61.82
61.8753
61.9341
61.9961
62.0612
62.1291
62.1996
62.2726
62.3478
62.425
62.5041
62.5849
62.6672
62.751
62.836
62.9222
63.0095
63.0978
63.187
63.277
63.3677
63.459
63.5507
63.6428
63.7352
63.8276
63.92
64.0122
64.1041
64.1955
64.2863
64.3763
64.4654
64.5534
64.6403
64.7259
64.8101
64.8927
64.9738
65.0533
65.131
65.2069
65.281
65.3532
65.4235
65.4919
65.5584
65.6229
65.6855
65.7461
65.8048
65.8616
65.9166
65.9696
66.0208
66.0703
66.1179
66.1639
66.2081
66.2507
66.2917
66.3311
66.3689
66.4053
66.4403
66.4739
66.5061
66.537
66.5666
66.595
66.6222
66.6483
66.6733
66.6973
66.7202
66.7421
66.7631
66.7832
66.8024
66.8208
66.8383
66.8551
66.8712
66.8865
66.9012
66.9152
66.9286
66.9413
66.9535
66.9652
66.9763
66.9869
66.9971
67.0068
67.016
67.0248
67.0332
67.0412
67.0489
67.0562
67.0632
67.0698
67.0762
67.0822
67.088
67.0935
67.0987
67.1037
67.1085
67.1131
67.1174
67.1215
67.1255
67.1292
67.1328
67.1363
67.1395
67.1426
67.1456
67.1484
67.1511
67.1537
67.1562
67.1585
67.1608
67.1629
67.1649
67.1669
67.1687
67.1705
67.1722
67.1738
67.1754
67.1769
67.1783
67.1796
67.1809
67.1822
67.1834
67.1845
67.1856
67.1867
67.1877
67.1887
67.1896
67.1905
67.1914
67.1923
67.193
67.1939
67.1945
67.1957
67.2037
67.2018
67.1978
67.1919
67.1839
67.1738
67.1618
67.1477
67.1316
67.1133
67.093
67.0706
67.046
67.0192
66.9902
66.959
66.9256
66.8898
66.8517
66.8113
66.7685
66.7232
66.6756
66.6254
66.5727
66.5176
66.4598
66.3996
66.3367
66.2713
66.2032
66.1326
66.0595
65.9838
65.9056
65.8249
65.7417
65.6562
65.5683
65.4783
65.386
65.2917
65.1955
65.0974
64.9976
64.8962
64.7934
64.6893
64.5842
64.4781
64.3712
64.2638
64.156
64.048
63.94
63.8321
63.7247
63.6179
63.5118
63.4067
63.3027
63.2
63.0989
62.9994
62.9018
62.8062
62.7127
62.6215
62.5327
62.4466
62.3631
62.2825
62.2048
62.1301
62.0586
61.9904
61.9255
61.8641
61.8063
61.7521
61.7015
61.6548
61.612
61.5732
61.5383
61.5076
61.481
61.4587
61.4407
61.427
61.4177
61.4129
61.4126
61.4168
61.4256
61.4389
61.4569
61.4793
61.5063
61.5378
61.5737
61.6139
61.6584
61.7069
61.7594
61.8157
61.8756
61.939
62.0055
62.075
62.1474
62.2223
62.2995
62.3789
62.4603
62.5435
62.6282
62.7144
62.802
62.8907
62.9805
63.0713
63.1629
63.2553
63.3483
63.4418
63.5358
63.6301
63.7245
63.8189
63.9133
64.0073
64.1009
64.194
64.2864
64.3779
64.4683
64.5577
64.6458
64.7325
64.8177
64.9013
64.9833
65.0635
65.1419
65.2185
65.2931
65.3658
65.4365
65.5052
65.5719
65.6367
65.6994
65.7601
65.8189
65.8757
65.9306
65.9836
66.0347
66.084
66.1315
66.1772
66.2213
66.2636
66.3044
66.3435
66.3811
66.4172
66.4519
66.4852
66.5171
66.5477
66.577
66.6051
66.632
66.6578
66.6825
66.7061
66.7287
66.7504
66.7711
66.7909
66.8098
66.8279
66.8452
66.8617
66.8775
66.8926
66.9071
66.9208
66.934
66.9465
66.9585
66.97
66.9809
66.9914
67.0013
67.0108
67.0199
67.0285
67.0368
67.0447
67.0522
67.0593
67.0662
67.0727
67.0789
67.0848
67.0905
67.0959
67.101
67.1059
67.1106
67.115
67.1193
67.1233
67.1272
67.1309
67.1344
67.1377
67.1409
67.144
67.1469
67.1497
67.1523
67.1548
67.1572
67.1595
67.1617
67.1638
67.1658
67.1677
67.1695
67.1713
67.1729
67.1745
67.176
67.1775
67.1789
67.1802
67.1815
67.1827
67.1838
67.185
67.186
67.1871
67.1881
67.189
67.1899
67.1908
67.1917
67.1925
67.1933
67.1941
67.1947
67.1959
67.2037
67.2018
67.1979
67.1919
67.184
67.174
67.162
67.148
67.132
67.1138
67.0936
67.0712
67.0468
67.0201
66.9912
66.9601
66.9267
66.891
66.853
66.8126
66.7698
66.7245
66.6768
66.6266
66.5738
66.5184
66.4605
66.4
66.3368
66.271
66.2025
66.1314
66.0577
65.9814
65.9024
65.8209
65.7369
65.6504
65.5616
65.4704
65.3769
65.2814
65.1838
65.0843
64.983
64.8801
64.7757
64.67
64.5631
64.4553
64.3467
64.2375
64.128
64.0182
63.9084
63.7988
63.6897
63.5811
63.4733
63.3666
63.261
63.1568
63.0542
62.9533
62.8542
62.7573
62.6625
62.5701
62.4802
62.3929
62.3084
62.2267
62.148
62.0725
62.0001
61.931
61.8654
61.8032
61.7446
61.6897
61.6385
61.5911
61.5476
61.5081
61.4727
61.4414
61.4142
61.3914
61.3728
61.3587
61.3489
61.3437
61.343
61.3469
61.3554
61.3686
61.3863
61.4087
61.4358
61.4674
61.5036
61.5442
61.5892
61.6384
61.6918
61.7492
61.8103
61.8751
61.9433
62.0146
62.0889
62.166
62.2455
62.3274
62.4113
62.4971
62.5845
62.6735
62.7638
62.8554
62.948
63.0415
63.1359
63.231
63.3267
63.4228
63.5192
63.6159
63.7127
63.8094
63.9059
64.002
64.0976
64.1925
64.2867
64.3798
64.4719
64.5627
64.6521
64.7401
64.8265
64.9111
64.9941
65.0751
65.1543
65.2315
65.3068
65.38
65.4511
65.5202
65.5872
65.6521
65.715
65.7759
65.8347
65.8915
65.9463
65.9992
66.0502
66.0994
66.1467
66.1922
66.236
66.2781
66.3185
66.3574
66.3947
66.4305
66.4648
66.4977
66.5293
66.5595
66.5885
66.6163
66.6429
66.6683
66.6927
66.7159
66.7382
66.7595
66.7799
66.7994
66.818
66.8358
66.8528
66.8691
66.8846
66.8994
66.9136
66.9271
66.94
66.9523
66.9641
66.9753
66.986
66.9962
67.006
67.0153
67.0242
67.0326
67.0407
67.0484
67.0558
67.0628
67.0694
67.0758
67.0819
67.0877
67.0932
67.0985
67.1035
67.1083
67.1129
67.1172
67.1214
67.1253
67.1291
67.1327
67.1361
67.1394
67.1425
67.1455
67.1483
67.151
67.1536
67.1561
67.1584
67.1606
67.1628
67.1648
67.1668
67.1686
67.1704
67.1721
67.1737
67.1753
67.1767
67.1781
67.1795
67.1808
67.182
67.1832
67.1844
67.1855
67.1865
67.1875
67.1885
67.1894
67.1903
67.1912
67.192
67.1928
67.1936
67.1944
67.195
67.1961
67.2037
67.2018
67.1979
67.192
67.1841
67.1742
67.1623
67.1484
67.1324
67.1144
67.0943
67.0721
67.0477
67.0211
66.9924
66.9614
66.9281
66.8925
66.8545
66.8142
66.7714
66.7261
66.6783
66.628
66.5751
66.5196
66.4615
66.4007
66.3372
66.271
66.202
66.1304
66.0561
65.979
65.8993
65.8169
65.732
65.6444
65.5544
65.462
65.3672
65.2703
65.1712
65.0701
64.9672
64.8626
64.7564
64.6489
64.5402
64.4304
64.3199
64.2088
64.0972
63.9854
63.8737
63.7622
63.6511
63.5406
63.431
63.3224
63.2151
63.1092
63.0049
62.9023
62.8018
62.7033
62.6072
62.5134
62.4222
62.3337
62.248
62.1653
62.0855
62.009
61.9356
61.8657
61.7991
61.7361
61.6767
61.621
61.569
61.5209
61.4767
61.4366
61.4005
61.3685
61.3407
61.3173
61.2982
61.2835
61.2732
61.2675
61.2664
61.2699
61.2781
61.291
61.3086
61.3309
61.358
61.3898
61.4262
61.4672
61.5128
61.5628
61.6172
61.6757
61.7382
61.8045
61.8744
61.9477
62.0242
62.1036
62.1856
62.2701
62.3568
62.4455
62.536
62.6281
62.7215
62.8162
62.9119
63.0086
63.106
63.2041
63.3027
63.4018
63.501
63.6004
63.6998
63.799
63.8979
63.9963
64.0941
64.1911
64.2872
64.3822
64.476
64.5685
64.6594
64.7488
64.8364
64.9223
65.0062
65.0882
65.1683
65.2462
65.3221
65.3958
65.4674
65.5369
65.6042
65.6694
65.7324
65.7934
65.8522
65.909
65.9638
66.0166
66.0674
66.1164
66.1634
66.2087
66.2522
66.294
66.3342
66.3727
66.4096
66.445
66.479
66.5116
66.5428
66.5726
66.6012
66.6286
66.6548
66.6798
66.7038
66.7267
66.7487
66.7696
66.7896
66.8088
66.827
66.8445
66.8612
66.8771
66.8923
66.9069
66.9207
66.9339
66.9466
66.9586
66.9701
66.9811
66.9916
67.0016
67.0111
67.0202
67.0289
67.0371
67.045
67.0525
67.0597
67.0665
67.073
67.0793
67.0852
67.0908
67.0962
67.1014
67.1062
67.1109
67.1154
67.1196
67.1236
67.1275
67.1312
67.1347
67.138
67.1412
67.1442
67.1471
67.1499
67.1525
67.155
67.1574
67.1597
67.1619
67.1639
67.1659
67.1678
67.1696
67.1713
67.173
67.1746
67.1761
67.1775
67.1789
67.1802
67.1815
67.1827
67.1838
67.1849
67.186
67.187
67.188
67.1889
67.1898
67.1907
67.1915
67.1923
67.1931
67.1939
67.1947
67.1952
67.1963
67.2037
67.2018
67.198
67.1921
67.1843
67.1745
67.1626
67.1488
67.133
67.1151
67.0951
67.073
67.0488
67.0223
66.9937
66.9628
66.9297
66.8942
66.8563
66.816
66.7733
66.728
66.6802
66.6299
66.5769
66.5212
66.4628
66.4017
66.3379
66.2713
66.2019
66.1297
66.0547
65.9769
65.8963
65.813
65.727
65.6383
65.547
65.4533
65.3571
65.2586
65.1578
65.055
64.9503
64.8438
64.7357
64.6261
64.5153
64.4035
64.2908
64.1774
64.0637
63.9497
63.8358
63.7221
63.6089
63.4963
63.3847
63.2741
63.1648
63.057
62.9509
62.8466
62.7444
62.6443
62.5466
62.4514
62.3588
62.269
62.1821
62.0981
62.0172
61.9396
61.8652
61.7943
61.7268
61.6628
61.6026
61.546
61.4932
61.4443
61.3994
61.3585
61.3216
61.289
61.2605
61.2364
61.2167
61.2014
61.1906
61.1843
61.1827
61.1858
61.1936
61.2062
61.2236
61.2459
61.2729
61.3048
61.3416
61.383
61.4292
61.48
61.5353
61.595
61.659
61.7269
61.7987
61.8742
61.953
62.0349
62.1197
62.2071
62.2969
62.3888
62.4826
62.578
62.6749
62.773
62.8722
62.9724
63.0732
63.1747
63.2766
63.3788
63.4811
63.5835
63.6858
63.7878
63.8894
63.9904
64.0906
64.1899
64.2882
64.3852
64.4809
64.5751
64.6677
64.7586
64.8476
64.9348
65.0199
65.1029
65.1838
65.2626
65.3391
65.4135
65.4856
65.5554
65.623
65.6885
65.7517
65.8127
65.8716
65.9283
65.983
66.0356
66.0863
66.135
66.1819
66.2269
66.27
66.3115
66.3513
66.3894
66.426
66.461
66.4946
66.5267
66.5575
66.5869
66.6151
66.642
66.6678
66.6924
66.716
66.7385
66.76
66.7806
66.8002
66.8189
66.8369
66.854
66.8703
66.8859
66.9007
66.9149
66.9285
66.9414
66.9537
66.9655
66.9767
66.9874
66.9976
67.0074
67.0166
67.0255
67.0339
67.042
67.0497
67.057
67.064
67.0706
67.0769
67.083
67.0887
67.0942
67.0995
67.1045
67.1092
67.1137
67.1181
67.1222
67.1261
67.1298
67.1334
67.1368
67.14
67.1431
67.1461
67.1489
67.1515
67.1541
67.1565
67.1589
67.1611
67.1632
67.1652
67.1671
67.1689
67.1707
67.1724
67.174
67.1755
67.1769
67.1783
67.1797
67.1809
67.1822
67.1833
67.1844
67.1855
67.1865
67.1875
67.1885
67.1894
67.1903
67.1911
67.1919
67.1927
67.1935
67.1942
67.1949
67.1955
67.1966
67.2037
67.2018
67.198
67.1922
67.1845
67.1747
67.163
67.1493
67.1336
67.1159
67.096
67.0741
67.05
67.0238
66.9953
66.9646
66.9316
66.8962
66.8584
66.8182
66.7756
66.7304
66.6826
66.6321
66.579
66.5232
66.4647
66.4033
66.3391
66.272
66.2021
66.1293
66.0536
65.975
65.8935
65.8092
65.7221
65.6322
65.5395
65.4443
65.3465
65.2463
65.1438
65.0391
64.9324
64.8238
64.7135
64.6017
64.4886
64.3744
64.2594
64.1436
64.0275
63.9111
63.7948
63.6787
63.5631
63.4483
63.3344
63.2216
63.1102
63.0003
62.8922
62.7861
62.682
62.5802
62.4809
62.3841
62.29
62.1987
62.1104
62.0252
61.9431
61.8643
61.7888
61.7168
61.6483
61.5834
61.5222
61.4648
61.4111
61.3614
61.3156
61.2739
61.2363
61.2028
61.1736
61.1488
61.1284
61.1124
61.1009
61.0941
61.092
61.0946
61.102
61.1143
61.1314
61.1535
61.1806
61.2126
61.2496
61.2915
61.3383
61.3899
61.4463
61.5072
61.5727
61.6424
61.7162
61.7939
61.8752
61.9599
62.0476
62.1382
62.2313
62.3267
62.4241
62.5233
62.6239
62.7258
62.8289
62.9328
63.0374
63.1425
63.2481
63.3538
63.4596
63.5653
63.6708
63.7759
63.8804
63.9842
64.0871
64.1889
64.2896
64.3889
64.4867
64.5828
64.6772
64.7697
64.8603
64.9488
65.0351
65.1192
65.2011
65.2807
65.358
65.433
65.5056
65.5758
65.6438
65.7094
65.7728
65.8339
65.8928
65.9495
66.004
66.0565
66.107
66.1554
66.202
66.2466
66.2895
66.3305
66.3699
66.4076
66.4437
66.4783
66.5114
66.5431
66.5734
66.6024
66.6301
66.6566
66.6819
66.7061
66.7292
66.7512
66.7723
66.7924
66.8116
66.8299
66.8474
66.8641
66.8801
66.8953
66.9098
66.9236
66.9368
66.9494
66.9614
66.9729
66.9838
66.9942
67.0041
67.0136
67.0226
67.0312
67.0394
67.0472
67.0547
67.0618
67.0685
67.075
67.0811
67.087
67.0926
67.0979
67.103
67.1078
67.1124
67.1168
67.121
67.1249
67.1287
67.1324
67.1358
67.1391
67.1422
67.1452
67.1481
67.1508
67.1534
67.1558
67.1582
67.1604
67.1626
67.1646
67.1665
67.1684
67.1702
67.1719
67.1735
67.175
67.1765
67.1779
67.1792
67.1805
67.1817
67.1829
67.1841
67.1851
67.1862
67.1872
67.1881
67.189
67.1899
67.1907
67.1916
67.1923
67.1931
67.1938
67.1945
67.1953
67.1958
67.1968
67.2037
67.2019
67.1981
67.1924
67.1847
67.175
67.1635
67.1499
67.1343
67.1167
67.0971
67.0753
67.0514
67.0254
66.9971
66.9666
66.9337
66.8985
66.8609
66.8209
66.7783
66.7331
66.6854
66.6349
66.5817
66.5258
66.467
66.4054
66.3408
66.2734
66.2029
66.1295
66.053
65.9736
65.8911
65.8057
65.7174
65.6261
65.5321
65.4352
65.3357
65.2337
65.1292
65.0224
64.9135
64.8027
64.69
64.5758
64.4602
64.3434
64.2258
64.1074
63.9886
63.8696
63.7506
63.6319
63.5138
63.3964
63.28
63.1649
63.0512
62.9391
62.8288
62.7206
62.6146
62.5109
62.4098
62.3113
62.2156
62.1228
62.0331
61.9465
61.8631
61.7831
61.7065
61.6333
61.5638
61.4979
61.4357
61.3772
61.3227
61.272
61.2254
61.1828
61.1443
61.1101
61.0801
61.0544
61.0332
61.0165
61.0044
60.9969
60.9942
60.9962
61.0032
61.015
61.0319
61.0538
61.0808
61.1129
61.1502
61.1925
61.2399
61.2924
61.3499
61.4122
61.4792