/*--------------------------------*- C++ -*----------------------------------*\
| =========                 |                                                 |
| \\      /  F ield         | OpenFOAM: The Open Source CFD Toolbox           |
|  \\    /   O peration     | Version:  2306                                  |
|   \\  /    A nd           | Website:  www.openfoam.com                      |
|    \\/     M anipulation  |                                                 |
\*---------------------------------------------------------------------------*/
FoamFile
{
    version     2.0;
    format      ascii;
    arch        "LSB;label=32;scalar=64";
    class       volScalarField;
    location    "3";
    object      p;
}
// * * * * * * * * * * * * * * * * * * * * * * * * * * * * * * * * * * * * * //

dimensions      [0 2 -2 0 0 0 0];

internalField   nonuniform List<scalar> 
32768
(
0.268324
0.268192
0.267905
0.267453
0.266836
0.266058
0.265117
0.264013
0.262742
0.261304
0.259697
0.257918
0.255965
0.253836
0.251528
0.249039
0.246366
0.243505
0.240454
0.237209
0.233768
0.230127
0.226284
0.222234
0.217976
0.213506
0.208822
0.20392
0.198799
0.193457
0.187891
0.1821
0.176083
0.16984
0.16337
0.156674
0.149752
0.142607
0.13524
0.127654
0.119853
0.11184
0.103622
0.0952043
0.0865929
0.0777957
0.068821
0.0596778
0.0503762
0.0409267
0.0313409
0.021631
0.0118098
0.00189093
-0.00811159
-0.0181831
-0.0283083
-0.0384718
-0.0486574
-0.0588491
-0.0690303
-0.0791843
-0.0892943
-0.0993436
-0.109315
-0.119193
-0.128959
-0.138599
-0.148094
-0.157431
-0.166592
-0.175563
-0.184329
-0.192875
-0.201187
-0.209252
-0.217057
-0.224588
-0.231834
-0.238784
-0.245425
-0.251749
-0.257744
-0.263403
-0.268715
-0.273674
-0.278272
-0.282503
-0.286361
-0.289841
-0.29294
-0.295654
-0.29798
-0.299919
-0.301469
-0.302632
-0.303408
-0.303802
-0.303816
-0.303457
-0.302729
-0.30164
-0.300198
-0.298412
-0.296292
-0.293848
-0.291092
-0.288037
-0.284694
-0.281078
-0.277202
-0.273082
-0.268732
-0.264169
-0.259407
-0.254464
-0.249355
-0.244098
-0.238709
-0.233205
-0.227604
-0.22192
-0.216172
-0.210376
-0.204547
-0.1987
-0.192851
-0.187015
-0.181203
-0.175431
-0.169708
-0.164048
-0.15846
-0.152954
-0.147538
-0.14222
-0.137008
-0.131906
-0.126921
-0.122056
-0.117315
-0.112701
-0.108216
-0.103862
-0.099639
-0.095548
-0.0915886
-0.0877602
-0.0840618
-0.0804921
-0.0770492
-0.0737313
-0.070536
-0.0674609
-0.0645033
-0.0616605
-0.0589296
-0.0563074
-0.0537911
-0.0513773
-0.049063
-0.046845
-0.0447202
-0.0426852
-0.0407371
-0.0388727
-0.0370889
-0.0353827
-0.0337513
-0.0321917
-0.0307011
-0.0292768
-0.027916
-0.0266163
-0.0253751
-0.0241899
-0.0230584
-0.0219784
-0.0209476
-0.0199639
-0.0190253
-0.0181298
-0.0172756
-0.0164607
-0.0156835
-0.0149423
-0.0142354
-0.0135614
-0.0129186
-0.0123059
-0.0117216
-0.0111646
-0.0106336
-0.0101275
-0.00964498
-0.00918504
-0.00874664
-0.00832877
-0.00793046
-0.00755082
-0.00718895
-0.00684404
-0.00651528
-0.00620192
-0.00590322
-0.00561848
-0.00534706
-0.00508831
-0.00484163
-0.00460644
-0.00438219
-0.00416835
-0.00396443
-0.00376993
-0.00358442
-0.00340743
-0.00323857
-0.00307742
-0.00292362
-0.00277679
-0.00263658
-0.00250267
-0.00237473
-0.00225247
-0.00213559
-0.00202381
-0.00191688
-0.00181452
-0.00171651
-0.0016226
-0.00153258
-0.00144623
-0.00136334
-0.00128371
-0.00120716
-0.0011335
-0.00106255
-0.000994157
-0.000928144
-0.000864356
-0.00080264
-0.000742851
-0.000684844
-0.000628481
-0.000573627
-0.000520152
-0.000467925
-0.000416829
-0.000366722
-0.000317532
-0.000269026
-0.000221374
-0.000173756
-0.000127762
-7.89129e-05
-3.64148e-05
0.268483
0.268351
0.268065
0.267613
0.266997
0.266219
0.265279
0.264175
0.262906
0.261469
0.259862
0.258084
0.256133
0.254005
0.251698
0.24921
0.246538
0.243678
0.240628
0.237384
0.233944
0.230304
0.226461
0.222411
0.218153
0.213683
0.208998
0.204095
0.198973
0.193628
0.18806
0.182266
0.176247
0.17
0.163525
0.156824
0.149897
0.142746
0.135372
0.127778
0.119969
0.111948
0.10372
0.0952924
0.0866704
0.077862
0.0688755
0.0597201
0.0504057
0.0409431
0.0313438
0.02162
0.0117848
0.00185153
-0.00816546
-0.0182515
-0.0283913
-0.0385693
-0.0487694
-0.0589754
-0.0691707
-0.0793386
-0.0894622
-0.0995248
-0.109509
-0.119399
-0.129178
-0.138829
-0.148336
-0.157683
-0.166855
-0.175836
-0.184611
-0.193166
-0.201487
-0.20956
-0.217372
-0.224911
-0.232164
-0.23912
-0.245768
-0.252098
-0.258099
-0.263762
-0.269079
-0.274043
-0.278645
-0.282879
-0.286741
-0.290224
-0.293325
-0.29604
-0.298368
-0.300308
-0.301858
-0.30302
-0.303796
-0.304187
-0.3042
-0.303837
-0.303105
-0.302012
-0.300565
-0.298772
-0.296645
-0.294193
-0.291429
-0.288363
-0.28501
-0.281383
-0.277496
-0.273364
-0.269001
-0.264424
-0.259649
-0.254692
-0.249569
-0.244297
-0.238894
-0.233376
-0.227759
-0.222062
-0.216299
-0.210489
-0.204646
-0.198786
-0.192925
-0.187075
-0.181252
-0.175468
-0.169735
-0.164064
-0.158467
-0.152951
-0.147527
-0.142201
-0.136981
-0.131873
-0.126882
-0.122011
-0.117265
-0.112647
-0.108158
-0.1038
-0.0995745
-0.0954809
-0.0915194
-0.0876893
-0.0839895
-0.0804187
-0.0769752
-0.0736568
-0.0704614
-0.0673864
-0.0644291
-0.0615868
-0.0588566
-0.0562353
-0.0537199
-0.0513073
-0.0489943
-0.0467776
-0.0446542
-0.0426207
-0.0406741
-0.0388112
-0.0370291
-0.0353246
-0.0336948
-0.0321369
-0.030648
-0.0292253
-0.0278662
-0.0265681
-0.0253285
-0.0241449
-0.023015
-0.0219366
-0.0209073
-0.0199251
-0.018988
-0.0180939
-0.017241
-0.0164275
-0.0156516
-0.0149116
-0.014206
-0.0135331
-0.0128916
-0.0122799
-0.0116968
-0.0111408
-0.0106108
-0.0101056
-0.00962407
-0.00916504
-0.00872751
-0.00831047
-0.00791297
-0.00753409
-0.00717297
-0.00682877
-0.0065007
-0.00618799
-0.00588991
-0.00560579
-0.00533494
-0.00507675
-0.0048306
-0.00459592
-0.00437216
-0.00415879
-0.00395531
-0.00376125
-0.00357614
-0.00339956
-0.00323107
-0.00307029
-0.00291683
-0.00277032
-0.00263044
-0.00249683
-0.00236919
-0.0022472
-0.00213059
-0.00201907
-0.00191238
-0.00181026
-0.00171248
-0.00161879
-0.00152897
-0.00144282
-0.00136012
-0.00128068
-0.00120431
-0.00113082
-0.00106004
-0.000991807
-0.000925948
-0.00086231
-0.00080074
-0.000741092
-0.000683222
-0.000626992
-0.000572268
-0.000518919
-0.000466815
-0.00041584
-0.000365851
-0.00031678
-0.000268384
-0.000220851
-0.000173324
-0.000127473
-7.86204e-05
-3.64968e-05
0.268803
0.268671
0.268385
0.267934
0.267319
0.266542
0.265604
0.264501
0.263233
0.261798
0.260194
0.258418
0.256469
0.254343
0.252039
0.249553
0.246883
0.244025
0.240977
0.237735
0.234296
0.230657
0.226815
0.222766
0.218508
0.214037
0.20935
0.204446
0.199321
0.193973
0.1884
0.182601
0.176574
0.17032
0.163837
0.157126
0.150188
0.143024
0.135636
0.128028
0.120202
0.112164
0.103917
0.0954692
0.0868259
0.077995
0.068985
0.059805
0.0504651
0.0409761
0.0313496
0.0215981
0.0117345
0.00177251
-0.0082735
-0.0183887
-0.0285578
-0.038765
-0.0489941
-0.0592288
-0.0694524
-0.0796481
-0.089799
-0.0998882
-0.109899
-0.119814
-0.129617
-0.139291
-0.148821
-0.15819
-0.167382
-0.176383
-0.185177
-0.19375
-0.202088
-0.210178
-0.218006
-0.225559
-0.232826
-0.239796
-0.246456
-0.252797
-0.258809
-0.264483
-0.26981
-0.274782
-0.279392
-0.283634
-0.287501
-0.29099
-0.294096
-0.296815
-0.299146
-0.301087
-0.302638
-0.303799
-0.304573
-0.304961
-0.304969
-0.3046
-0.303861
-0.302758
-0.3013
-0.299495
-0.297354
-0.294886
-0.292104
-0.28902
-0.285646
-0.281997
-0.278087
-0.27393
-0.269542
-0.264938
-0.260135
-0.25515
-0.249998
-0.244698
-0.239265
-0.233717
-0.228072
-0.222345
-0.216555
-0.210716
-0.204846
-0.198959
-0.193072
-0.187198
-0.18135
-0.175543
-0.169789
-0.164097
-0.15848
-0.152946
-0.147505
-0.142164
-0.136929
-0.131807
-0.126803
-0.121922
-0.117166
-0.112539
-0.108042
-0.103677
-0.0994452
-0.0953465
-0.0913807
-0.0875471
-0.0838446
-0.0802717
-0.0768267
-0.0735075
-0.0703118
-0.067237
-0.0642804
-0.0614391
-0.0587103
-0.0560907
-0.0535774
-0.0511671
-0.0488565
-0.0466425
-0.0445219
-0.0424914
-0.0405479
-0.0386882
-0.0369093
-0.0352081
-0.0335817
-0.0320271
-0.0305415
-0.0291222
-0.0277664
-0.0264716
-0.0252353
-0.0240549
-0.0229282
-0.0218528
-0.0208266
-0.0198474
-0.0189132
-0.0180219
-0.0171718
-0.016361
-0.0155877
-0.0148503
-0.0141471
-0.0134767
-0.0128374
-0.012228
-0.011647
-0.0110931
-0.0105652
-0.0100619
-0.00958222
-0.009125
-0.0086892
-0.00827383
-0.00787793
-0.0075006
-0.00714097
-0.00679819
-0.00647149
-0.00616009
-0.00586328
-0.00558036
-0.00531068
-0.00505359
-0.00480851
-0.00457485
-0.00435207
-0.00413964
-0.00393707
-0.00374386
-0.00355958
-0.00338378
-0.00321605
-0.00305599
-0.00290323
-0.00275739
-0.00261814
-0.00248514
-0.00235808
-0.00223666
-0.00212058
-0.00200957
-0.00190338
-0.00180173
-0.0017044
-0.00161115
-0.00152175
-0.001436
-0.00135369
-0.00127462
-0.0011986
-0.00112546
-0.00105502
-0.0009871
-0.000921552
-0.000858214
-0.000796935
-0.000737569
-0.000679973
-0.000624009
-0.000569545
-0.000516449
-0.000464593
-0.00041386
-0.000364108
-0.00031527
-0.000267104
-0.000219797
-0.000172491
-0.000126864
-7.82375e-05
-3.63722e-05
0.269281
0.26915
0.268865
0.268415
0.267801
0.267026
0.26609
0.26499
0.263725
0.262292
0.260691
0.258919
0.256973
0.254851
0.25255
0.250067
0.247401
0.244546
0.241501
0.238262
0.234825
0.231188
0.227347
0.223299
0.21904
0.214568
0.20988
0.204973
0.199843
0.19449
0.18891
0.183103
0.177067
0.170801
0.164305
0.157579
0.150625
0.143442
0.136034
0.128403
0.120553
0.112488
0.104214
0.0957353
0.0870599
0.0781952
0.0691497
0.0599327
0.0505543
0.0410255
0.0313582
0.0215648
0.0116585
0.00165331
-0.00843642
-0.0185956
-0.0288087
-0.0390598
-0.0493326
-0.0596105
-0.0698767
-0.0801143
-0.0903062
-0.100435
-0.110485
-0.120438
-0.130277
-0.139987
-0.14955
-0.158952
-0.168175
-0.177206
-0.186028
-0.194629
-0.202993
-0.211107
-0.218958
-0.226533
-0.233821
-0.240811
-0.24749
-0.253848
-0.259877
-0.265566
-0.270907
-0.275893
-0.280515
-0.284768
-0.288645
-0.292142
-0.295255
-0.29798
-0.300315
-0.302259
-0.303811
-0.304971
-0.305742
-0.306125
-0.306126
-0.305748
-0.304997
-0.30388
-0.302406
-0.300582
-0.298419
-0.295928
-0.29312
-0.290007
-0.286603
-0.28292
-0.278975
-0.274781
-0.270354
-0.265711
-0.260867
-0.255839
-0.250644
-0.2453
-0.239823
-0.234231
-0.228542
-0.222772
-0.216938
-0.211057
-0.205145
-0.199219
-0.193292
-0.187381
-0.181497
-0.175656
-0.169868
-0.164146
-0.158499
-0.152938
-0.147471
-0.142106
-0.136849
-0.131707
-0.126685
-0.121787
-0.117016
-0.112375
-0.107867
-0.103491
-0.0992506
-0.0951442
-0.091172
-0.0873332
-0.0836266
-0.0800507
-0.0766036
-0.0732832
-0.0700871
-0.0670126
-0.064057
-0.0612173
-0.0584906
-0.0558737
-0.0533634
-0.0509565
-0.0486497
-0.0464398
-0.0443234
-0.0422974
-0.0403586
-0.0385037
-0.0367297
-0.0350334
-0.033412
-0.0318624
-0.0303819
-0.0289676
-0.0276168
-0.0263269
-0.0250955
-0.02392
-0.022798
-0.0217273
-0.0207056
-0.0197309
-0.0188011
-0.0179141
-0.0170681
-0.0162614
-0.015492
-0.0147584
-0.0140589
-0.0133921
-0.0127563
-0.0121502
-0.0115724
-0.0110217
-0.0104968
-0.00999644
-0.00951955
-0.00906503
-0.00863183
-0.00821896
-0.00782548
-0.00745046
-0.00709305
-0.00675241
-0.00642776
-0.00611833
-0.00582341
-0.0055423
-0.00527435
-0.00501893
-0.00477545
-0.00454332
-0.00432201
-0.00411098
-0.00390975
-0.00371784
-0.00353479
-0.00336017
-0.00319357
-0.0030346
-0.00288287
-0.00273803
-0.00259973
-0.00246764
-0.00234146
-0.00222087
-0.0021056
-0.00199536
-0.0018899
-0.00178896
-0.00169231
-0.00159971
-0.00151094
-0.00142579
-0.00134405
-0.00126554
-0.00119006
-0.00111744
-0.00104749
-0.000980055
-0.000914972
-0.000852084
-0.00079124
-0.000732296
-0.00067511
-0.000619546
-0.000565469
-0.000512753
-0.000461266
-0.000410896
-0.0003615
-0.000313011
-0.000265189
-0.000218221
-0.000171253
-0.000125956
-7.76796e-05
-3.61202e-05
0.269919
0.269789
0.269504
0.269055
0.268443
0.267671
0.266737
0.265641
0.264379
0.262951
0.261354
0.259586
0.257644
0.255527
0.253231
0.250753
0.248091
0.245241
0.2422
0.238964
0.235531
0.231897
0.228057
0.22401
0.219752
0.215279
0.210588
0.205676
0.200542
0.195181
0.189593
0.183775
0.177726
0.171445
0.164932
0.158186
0.151209
0.144002
0.136567
0.128906
0.121023
0.112923
0.104611
0.0960917
0.0873734
0.0784634
0.0693703
0.0601036
0.0506736
0.0410916
0.0313694
0.0215199
0.0115564
0.00149309
-0.00865527
-0.0188734
-0.0291456
-0.0394556
-0.0497869
-0.0601227
-0.070446
-0.0807396
-0.0909864
-0.101169
-0.111271
-0.121274
-0.131162
-0.140919
-0.150528
-0.159972
-0.169238
-0.178308
-0.187168
-0.195805
-0.204203
-0.21235
-0.220232
-0.227837
-0.235153
-0.242169
-0.248873
-0.255255
-0.261305
-0.267015
-0.272376
-0.277379
-0.282018
-0.286285
-0.290176
-0.293684
-0.296807
-0.29954
-0.30188
-0.303828
-0.305381
-0.30654
-0.307307
-0.307684
-0.307675
-0.307285
-0.306519
-0.305383
-0.303887
-0.302038
-0.299847
-0.297324
-0.294481
-0.29133
-0.287884
-0.284158
-0.280165
-0.275922
-0.271443
-0.266746
-0.261846
-0.256762
-0.251509
-0.246106
-0.24057
-0.234919
-0.229171
-0.223342
-0.21745
-0.211513
-0.205546
-0.199565
-0.193587
-0.187625
-0.181693
-0.175806
-0.169974
-0.16421
-0.158524
-0.152926
-0.147425
-0.142028
-0.136742
-0.131573
-0.126526
-0.121606
-0.116815
-0.112156
-0.107631
-0.103242
-0.0989897
-0.0948732
-0.0908926
-0.0870469
-0.083335
-0.0797551
-0.0763053
-0.0729833
-0.0697867
-0.0667127
-0.0637585
-0.060921
-0.0581973
-0.0555839
-0.0530778
-0.0506755
-0.0483738
-0.0461693
-0.0440587
-0.0420387
-0.0401061
-0.0382576
-0.0364901
-0.0348005
-0.0331857
-0.0316429
-0.0301691
-0.0287615
-0.0274174
-0.0261342
-0.0249093
-0.0237402
-0.0226246
-0.0215601
-0.0205446
-0.0195758
-0.0186518
-0.0177705
-0.0169301
-0.0161287
-0.0153646
-0.0146361
-0.0139415
-0.0132794
-0.0126483
-0.0120467
-0.0114732
-0.0109267
-0.0104058
-0.0099093
-0.00943615
-0.00898523
-0.00855549
-0.00814596
-0.00775568
-0.00738375
-0.0070293
-0.0066915
-0.00636958
-0.00606277
-0.00577036
-0.00549167
-0.00522603
-0.00497283
-0.00473147
-0.00450138
-0.00428201
-0.00407286
-0.00387342
-0.00368322
-0.00350181
-0.00332877
-0.00316368
-0.00300614
-0.0028558
-0.00271228
-0.00257525
-0.00244437
-0.00231935
-0.00219988
-0.00208567
-0.00197646
-0.00187198
-0.00177198
-0.00167623
-0.0015845
-0.00149656
-0.00141221
-0.00133124
-0.00125347
-0.00117871
-0.00110677
-0.00103748
-0.000970688
-0.000906223
-0.000843932
-0.000783668
-0.000725285
-0.000668644
-0.00061361
-0.00056005
-0.000507837
-0.000456844
-0.000406955
-0.000358032
-0.000310008
-0.000262644
-0.000216127
-0.000169609
-0.000124749
-7.69344e-05
-3.57753e-05
0.270716
0.270586
0.270302
0.269855
0.269246
0.268476
0.267546
0.266454
0.265197
0.263773
0.262181
0.260419
0.258484
0.256372
0.254082
0.251611
0.248955
0.24611
0.243075
0.239844
0.236415
0.232784
0.228947
0.224901
0.220643
0.216169
0.211475
0.206559
0.201418
0.196049
0.19045
0.184619
0.178554
0.172254
0.165719
0.158949
0.151944
0.144706
0.137236
0.129538
0.121614
0.11347
0.10511
0.0965399
0.0877676
0.0788006
0.0696476
0.0603184
0.0508235
0.0411743
0.031383
0.0214627
0.0114272
0.00129075
-0.00893147
-0.0192239
-0.0295704
-0.0399545
-0.0503595
-0.0607681
-0.0711632
-0.0815273
-0.091843
-0.102093
-0.11226
-0.122326
-0.132276
-0.142092
-0.151757
-0.161256
-0.170573
-0.179693
-0.188601
-0.197283
-0.205724
-0.213912
-0.221833
-0.229475
-0.236825
-0.243874
-0.250609
-0.257021
-0.263099
-0.268835
-0.274219
-0.279245
-0.283904
-0.28819
-0.292097
-0.295621
-0.298755
-0.301498
-0.303846
-0.305798
-0.307353
-0.308511
-0.309274
-0.309643
-0.309623
-0.309217
-0.308432
-0.307274
-0.30575
-0.30387
-0.301643
-0.29908
-0.296193
-0.292994
-0.289496
-0.285714
-0.281662
-0.277356
-0.272813
-0.268048
-0.263078
-0.257922
-0.252596
-0.247119
-0.241509
-0.235783
-0.22996
-0.224058
-0.218093
-0.212085
-0.206048
-0.199999
-0.193955
-0.18793
-0.181937
-0.175992
-0.170105
-0.164289
-0.158554
-0.15291
-0.147365
-0.141928
-0.136606
-0.131403
-0.126325
-0.121377
-0.116561
-0.111879
-0.107335
-0.102929
-0.0986616
-0.0945325
-0.0905414
-0.0866873
-0.0829687
-0.079384
-0.0759309
-0.0726071
-0.0694099
-0.0663367
-0.0633844
-0.0605498
-0.0578297
-0.055221
-0.0527201
-0.0503237
-0.0480283
-0.0458307
-0.0437274
-0.041715
-0.0397902
-0.0379498
-0.0361906
-0.0345093
-0.032903
-0.0313686
-0.0299033
-0.0285041
-0.0271684
-0.0258935
-0.0246767
-0.0235157
-0.0224081
-0.0213514
-0.0203435
-0.0193822
-0.0184655
-0.0175913
-0.0167578
-0.0159632
-0.0152056
-0.0144835
-0.0137951
-0.013139
-0.0125136
-0.0119175
-0.0113495
-0.0108082
-0.0102923
-0.00980064
-0.00933216
-0.00888573
-0.00846032
-0.00805495
-0.00766867
-0.00730058
-0.00694983
-0.00661558
-0.00629706
-0.00599352
-0.00570425
-0.00542856
-0.00516581
-0.00491538
-0.00467666
-0.00444911
-0.00423218
-0.00402535
-0.00382815
-0.00364009
-0.00346073
-0.00328964
-0.00312643
-0.00297069
-0.00282207
-0.0026802
-0.00254474
-0.00241538
-0.00229181
-0.00217372
-0.00206084
-0.00195291
-0.00184965
-0.00175083
-0.0016562
-0.00156555
-0.00147865
-0.00139529
-0.00131529
-0.00123844
-0.00116456
-0.00109348
-0.00102502
-0.000959019
-0.000895323
-0.000833778
-0.000774234
-0.000716551
-0.00066059
-0.000606216
-0.000553299
-0.000501714
-0.000451334
-0.000402047
-0.000353713
-0.000306267
-0.000259474
-0.000213518
-0.000167562
-0.000123243
-7.60057e-05
-3.53443e-05
0.27167
0.271541
0.271259
0.270814
0.270207
0.269441
0.268516
0.267428
0.266177
0.264759
0.263174
0.261419
0.259491
0.257387
0.255104
0.25264
0.249991
0.247154
0.244125
0.2409
0.237477
0.23385
0.230017
0.225973
0.221715
0.21724
0.212543
0.207622
0.202473
0.197094
0.191482
0.185635
0.179552
0.17323
0.166669
0.15987
0.152831
0.145556
0.138045
0.130301
0.122328
0.114131
0.105713
0.0970817
0.0882442
0.0792082
0.0699828
0.0605779
0.0510043
0.0412737
0.0313988
0.0213928
0.0112699
0.00104484
-0.00926683
-0.0196492
-0.0300857
-0.0405596
-0.0510536
-0.0615503
-0.0720321
-0.0824813
-0.0928803
-0.103211
-0.113457
-0.1236
-0.133623
-0.14351
-0.153243
-0.162808
-0.172187
-0.181367
-0.190332
-0.199068
-0.207561
-0.215797
-0.223765
-0.231451
-0.238843
-0.245931
-0.252704
-0.259151
-0.265262
-0.271029
-0.276443
-0.281496
-0.28618
-0.290488
-0.294416
-0.297957
-0.301107
-0.303862
-0.306219
-0.308177
-0.309735
-0.310892
-0.311649
-0.31201
-0.311976
-0.311552
-0.310744
-0.309558
-0.308002
-0.306084
-0.303814
-0.301203
-0.298263
-0.295006
-0.291445
-0.287596
-0.283473
-0.279091
-0.274469
-0.269621
-0.264567
-0.259324
-0.25391
-0.248343
-0.242642
-0.236826
-0.230913
-0.224921
-0.218869
-0.212773
-0.206652
-0.200522
-0.194398
-0.188296
-0.18223
-0.176214
-0.17026
-0.164381
-0.158587
-0.152887
-0.147291
-0.141806
-0.136439
-0.131195
-0.12608
-0.121098
-0.116252
-0.111544
-0.106977
-0.10255
-0.0982648
-0.0941207
-0.0901172
-0.0862531
-0.0825268
-0.0789363
-0.0754794
-0.0721536
-0.0689561
-0.0658839
-0.0629339
-0.0601029
-0.0573875
-0.0547844
-0.0522899
-0.0499007
-0.0476132
-0.045424
-0.0433295
-0.0413263
-0.039411
-0.0375804
-0.0358311
-0.0341599
-0.0325638
-0.0310396
-0.0295844
-0.0281954
-0.0268698
-0.0256049
-0.024398
-0.0232467
-0.0221486
-0.0211013
-0.0201026
-0.0191503
-0.0182423
-0.0173767
-0.0165516
-0.015765
-0.0150153
-0.0143008
-0.0136198
-0.0129708
-0.0123524
-0.011763
-0.0112014
-0.0106663
-0.0101565
-0.00967065
-0.00920776
-0.00876671
-0.00834649
-0.0079461
-0.00756461
-0.00720112
-0.00685479
-0.00652479
-0.00621035
-0.00591072
-0.0056252
-0.00535311
-0.00509381
-0.00484668
-0.00461114
-0.00438663
-0.0041726
-0.00396857
-0.00377403
-0.00358852
-0.00341161
-0.00324287
-0.0030819
-0.00292832
-0.00278175
-0.00264185
-0.00250828
-0.00238073
-0.00225889
-0.00214246
-0.00203118
-0.00192476
-0.00182297
-0.00172555
-0.00163226
-0.0015429
-0.00145724
-0.00137508
-0.00129622
-0.00122047
-0.00114766
-0.00107759
-0.00101012
-0.000945075
-0.0008823
-0.000821644
-0.000762962
-0.000706115
-0.000650965
-0.000597381
-0.000545233
-0.000494398
-0.000444751
-0.000396181
-0.000348552
-0.000301798
-0.000255687
-0.000210401
-0.000165116
-0.000121444
-7.48963e-05
-3.48289e-05
0.272782
0.272653
0.272372
0.27193
0.271327
0.270566
0.269645
0.268564
0.267319
0.265909
0.264332
0.262585
0.260665
0.25857
0.256297
0.253842
0.251202
0.248373
0.245352
0.242135
0.238718
0.235097
0.231268
0.227227
0.22297
0.218494
0.213794
0.208867
0.20371
0.19832
0.192694
0.186829
0.180723
0.174376
0.167785
0.160951
0.153874
0.146555
0.138996
0.1312
0.123169
0.114908
0.106423
0.0977195
0.088805
0.0796878
0.070377
0.0608829
0.0512165
0.04139
0.0314163
0.0213091
0.0110832
0.000753616
-0.00966359
-0.020152
-0.0306947
-0.0412743
-0.0518733
-0.0624737
-0.0730575
-0.0836069
-0.0941037
-0.10453
-0.114868
-0.125101
-0.13521
-0.14518
-0.154993
-0.164634
-0.174086
-0.183336
-0.192367
-0.201166
-0.209719
-0.218013
-0.226034
-0.233772
-0.241213
-0.248347
-0.255163
-0.261652
-0.267802
-0.273605
-0.279053
-0.284138
-0.288851
-0.293187
-0.297138
-0.3007
-0.303868
-0.306638
-0.309007
-0.310973
-0.312534
-0.31369
-0.314442
-0.314792
-0.314743
-0.314299
-0.313465
-0.312246
-0.310652
-0.30869
-0.30637
-0.303703
-0.3007
-0.297375
-0.29374
-0.289812
-0.285604
-0.281134
-0.276418
-0.271474
-0.26632
-0.260974
-0.255455
-0.249782
-0.243975
-0.238052
-0.232032
-0.225935
-0.219778
-0.213581
-0.20736
-0.201132
-0.194915
-0.188722
-0.18257
-0.176471
-0.170439
-0.164486
-0.158622
-0.152857
-0.1472
-0.141658
-0.136239
-0.130948
-0.12579
-0.120769
-0.115888
-0.111149
-0.106554
-0.102103
-0.0977976
-0.0936363
-0.0896185
-0.0857429
-0.0820077
-0.0784108
-0.0749498
-0.0716218
-0.068424
-0.0653533
-0.0624064
-0.0595798
-0.05687
-0.0542736
-0.0517869
-0.0494062
-0.047128
-0.0449487
-0.0428646
-0.0408723
-0.0389683
-0.0371492
-0.0354116
-0.0337523
-0.0321681
-0.0306559
-0.0292127
-0.0278356
-0.0265218
-0.0252686
-0.0240733
-0.0229334
-0.0218464
-0.0208101
-0.0198221
-0.0188803
-0.0179826
-0.017127
-0.0163115
-0.0155344
-0.0147939
-0.0140882
-0.0134159
-0.0127752
-0.0121649
-0.0115833
-0.0110293
-0.0105015
-0.0099986
-0.00951954
-0.00906315
-0.00862837
-0.00821418
-0.00781959
-0.00744368
-0.00708555
-0.00674436
-0.0064193
-0.0061096
-0.00581452
-0.00553336
-0.00526546
-0.00501017
-0.00476689
-0.00453503
-0.00431405
-0.00410341
-0.00390261
-0.00371118
-0.00352864
-0.00335458
-0.00318856
-0.0030302
-0.00287911
-0.00273494
-0.00259733
-0.00246595
-0.0023405
-0.00222067
-0.00210617
-0.00199673
-0.00189209
-0.00179199
-0.00169619
-0.00160448
-0.00151661
-0.00143239
-0.00135161
-0.00127408
-0.00119962
-0.00112803
-0.00105916
-0.00099283
-0.000928889
-0.000867181
-0.000807558
-0.000749878
-0.000694001
-0.000639793
-0.000587125
-0.00053587
-0.000485906
-0.00043711
-0.000389373
-0.000342561
-0.000296609
-0.000251291
-0.000206784
-0.000162276
-0.000119356
-7.36085e-05
-3.42304e-05
0.274049
0.273921
0.273643
0.273204
0.272605
0.271849
0.270934
0.26986
0.268623
0.267221
0.265653
0.263916
0.262007
0.259922
0.25766
0.255216
0.252586
0.249768
0.246757
0.243549
0.24014
0.236525
0.232702
0.228665
0.22441
0.219933
0.21523
0.210298
0.205132
0.199729
0.194087
0.188201
0.182071
0.175695
0.16907
0.162198
0.155077
0.147708
0.140094
0.132236
0.124139
0.115806
0.107243
0.0984558
0.0894526
0.0802415
0.070832
0.0612346
0.0514608
0.0415232
0.0314351
0.0212109
0.0108655
0.000414956
-0.0101244
-0.0207356
-0.0314011
-0.042103
-0.0528232
-0.0635434
-0.0742451
-0.0849099
-0.0955194
-0.106055
-0.1165
-0.126835
-0.137044
-0.147109
-0.157013
-0.166742
-0.176278
-0.185607
-0.194714
-0.203585
-0.212206
-0.220565
-0.228649
-0.236445
-0.243942
-0.251128
-0.257995
-0.26453
-0.270725
-0.27657
-0.282058
-0.287179
-0.291926
-0.296293
-0.300272
-0.303859
-0.307049
-0.309837
-0.312219
-0.314194
-0.31576
-0.316916
-0.317663
-0.318002
-0.317936
-0.317468
-0.316604
-0.315349
-0.313711
-0.311699
-0.309321
-0.306589
-0.303515
-0.300111
-0.296391
-0.292371
-0.288066
-0.283493
-0.278669
-0.273613
-0.268343
-0.262878
-0.257238
-0.251442
-0.245511
-0.239464
-0.233321
-0.227102
-0.220825
-0.214509
-0.208172
-0.201833
-0.195506
-0.18921
-0.182957
-0.176763
-0.170641
-0.164602
-0.158657
-0.152817
-0.14709
-0.141484
-0.136005
-0.13066
-0.125452
-0.120386
-0.115465
-0.110691
-0.106065
-0.101587
-0.097258
-0.0930772
-0.0890434
-0.085155
-0.08141
-0.0778061
-0.0743406
-0.0710105
-0.0678128
-0.064744
-0.0618008
-0.0589795
-0.0562765
-0.053688
-0.0512104
-0.0488397
-0.0465724
-0.0444046
-0.0423327
-0.040353
-0.038462
-0.0366562
-0.0349321
-0.0332865
-0.031716
-0.0302176
-0.0287882
-0.0274248
-0.0261246
-0.0248848
-0.0237027
-0.0225759
-0.0215018
-0.020478
-0.0195023
-0.0185725
-0.0176865
-0.0168423
-0.016038
-0.0152717
-0.0145416
-0.0138462
-0.0131836
-0.0125525
-0.0119514
-0.0113787
-0.0108333
-0.0103138
-0.00981891
-0.00934755
-0.00889859
-0.00847096
-0.00806364
-0.00767566
-0.00730609
-0.00695407
-0.00661874
-0.00629931
-0.00599501
-0.00570511
-0.00542892
-0.00516579
-0.00491506
-0.00467616
-0.0044485
-0.00423153
-0.00402474
-0.00382763
-0.00363972
-0.00346057
-0.00328974
-0.00312683
-0.00297143
-0.00282318
-0.00268173
-0.00254672
-0.00241784
-0.00229477
-0.00217723
-0.00206492
-0.00195758
-0.00185495
-0.00175678
-0.00166284
-0.0015729
-0.00148674
-0.00140415
-0.00132495
-0.00124893
-0.00117592
-0.00110573
-0.00103821
-0.000973181
-0.000910496
-0.000850002
-0.000791554
-0.00073501
-0.000680236
-0.000627099
-0.000575472
-0.000525232
-0.000476257
-0.000428428
-0.000381637
-0.000335754
-0.000290715
-0.000246296
-0.000202673
-0.000159051
-0.000116983
-7.21454e-05
-3.35502e-05
0.275472
0.275345
0.275069
0.274633
0.274039
0.273289
0.272381
0.271315
0.270087
0.268696
0.267138
0.265412
0.263515
0.261443
0.259193
0.256762
0.254145
0.251339
0.248339
0.245142
0.241743
0.238137
0.23432
0.230288
0.226036
0.22156
0.216854
0.211916
0.206741
0.201325
0.195665
0.189757
0.1836
0.177192
0.170529
0.163613
0.156442
0.149018
0.141341
0.133415
0.125242
0.116827
0.108176
0.0992939
0.0901897
0.0808716
0.0713495
0.0616343
0.051738
0.0416735
0.0314548
0.0210968
0.0106152
2.63586e-05
-0.0106525
-0.0214038
-0.0322093
-0.0430507
-0.053909
-0.0647656
-0.0756013
-0.0863974
-0.0971349
-0.107795
-0.11836
-0.128812
-0.139133
-0.149305
-0.159313
-0.16914
-0.17877
-0.188189
-0.197381
-0.206333
-0.215031
-0.223463
-0.231616
-0.239478
-0.247037
-0.254283
-0.261206
-0.267794
-0.27404
-0.279932
-0.285464
-0.290627
-0.295413
-0.299816
-0.303828
-0.307443
-0.310658
-0.313466
-0.315865
-0.317852
-0.319424
-0.320581
-0.321322
-0.32165
-0.321565
-0.321072
-0.320174
-0.318879
-0.317192
-0.315123
-0.31268
-0.309875
-0.306719
-0.303226
-0.29941
-0.295285
-0.290869
-0.286178
-0.281232
-0.276047
-0.270645
-0.265044
-0.259266
-0.25333
-0.247257
-0.241069
-0.234785
-0.228425
-0.222011
-0.21556
-0.209091
-0.202624
-0.196174
-0.189758
-0.183392
-0.177089
-0.170864
-0.164727
-0.158692
-0.152766
-0.14696
-0.14128
-0.135734
-0.130327
-0.125064
-0.119948
-0.114982
-0.110168
-0.105506
-0.100999
-0.0966439
-0.0924415
-0.08839
-0.0844875
-0.0807319
-0.0771205
-0.0736503
-0.0703183
-0.067121
-0.0640548
-0.0611162
-0.0583012
-0.0556061
-0.0530269
-0.0505598
-0.0482007
-0.0459458
-0.0437913
-0.0417333
-0.039768
-0.0378919
-0.0361012
-0.0343925
-0.0327625
-0.0312076
-0.0297249
-0.0283111
-0.0269632
-0.0256784
-0.0244538
-0.0232867
-0.0221746
-0.0211149
-0.0201053
-0.0191435
-0.0182273
-0.0173545
-0.0165232
-0.0157313
-0.0149772
-0.0142589
-0.0135749
-0.0129234
-0.012303
-0.0117122
-0.0111496
-0.0106138
-0.0101036
-0.00961769
-0.00915499
-0.00871436
-0.00829474
-0.00789513
-0.00751456
-0.00715212
-0.00680693
-0.00647818
-0.00616505
-0.0058668
-0.00558271
-0.00531209
-0.00505428
-0.00480868
-0.00457467
-0.00435171
-0.00413924
-0.00393676
-0.00374377
-0.00355982
-0.00338445
-0.00321724
-0.00305779
-0.00290572
-0.00276065
-0.00262223
-0.00249014
-0.00236405
-0.00224366
-0.00212867
-0.00201881
-0.00191382
-0.00181344
-0.00171743
-0.00162556
-0.0015376
-0.00145334
-0.00137259
-0.00129514
-0.00122082
-0.00114943
-0.00108081
-0.00101479
-0.000951222
-0.000889941
-0.000830803
-0.000773667
-0.000718394
-0.000664852
-0.000612912
-0.00056245
-0.000513342
-0.000465473
-0.000418725
-0.000372993
-0.000328147
-0.000284127
-0.000240715
-0.00019808
-0.000155446
-0.000114332
-7.05103e-05
-3.279e-05
0.277048
0.276923
0.276649
0.276217
0.275629
0.274885
0.273986
0.272929
0.271711
0.270331
0.268786
0.267074
0.26519
0.263133
0.260897
0.25848
0.255878
0.253086
0.2501
0.246916
0.243529
0.239933
0.236125
0.2321
0.227852
0.223376
0.218669
0.213725
0.208541
0.203111
0.197432
0.191501
0.185315
0.17887
0.172167
0.165202
0.157976
0.15049
0.142744
0.134741
0.126483
0.117977
0.109226
0.100237
0.0910194
0.0815808
0.0719317
0.0620836
0.0520488
0.041841
0.0314747
0.0209655
0.0103299
-0.000415106
-0.0112515
-0.022161
-0.0331246
-0.0441232
-0.0551373
-0.0661474
-0.077134
-0.0880775
-0.0989588
-0.109759
-0.120459
-0.131041
-0.141487
-0.151779
-0.161902
-0.171839
-0.181573
-0.191091
-0.200378
-0.20942
-0.218204
-0.226716
-0.234946
-0.24288
-0.250509
-0.257821
-0.264806
-0.271453
-0.277755
-0.283701
-0.289283
-0.294492
-0.299322
-0.303765
-0.307814
-0.311463
-0.314706
-0.317539
-0.319957
-0.321958
-0.323538
-0.324697
-0.325434
-0.325749
-0.325645
-0.325124
-0.324191
-0.322851
-0.32111
-0.318978
-0.316462
-0.313575
-0.310328
-0.306735
-0.302809
-0.298567
-0.294026
-0.289203
-0.284117
-0.278788
-0.273236
-0.267482
-0.261547
-0.255452
-0.24922
-0.242871
-0.236427
-0.22991
-0.223339
-0.216736
-0.210118
-0.203506
-0.196917
-0.190367
-0.183872
-0.177447
-0.171106
-0.164861
-0.158722
-0.152701
-0.146806
-0.141045
-0.135423
-0.129948
-0.124622
-0.11945
-0.114434
-0.109576
-0.104877
-0.100335
-0.0959525
-0.0917266
-0.0876559
-0.0837383
-0.0799713
-0.076352
-0.0728772
-0.0695435
-0.0663472
-0.0632844
-0.0603513
-0.0575439
-0.054858
-0.0522896
-0.0498345
-0.0474887
-0.045248
-0.0431085
-0.0410662
-0.0391173
-0.0372579
-0.0354843
-0.0337929
-0.0321803
-0.0306431
-0.0291779
-0.0277815
-0.026451
-0.0251834
-0.0239757
-0.0228254
-0.0217297
-0.0206862
-0.0196924
-0.0187461
-0.0178449
-0.0169868
-0.0161698
-0.0153919
-0.0146512
-0.0139461
-0.0132747
-0.0126356
-0.0120271
-0.0114477
-0.0108962
-0.0103711
-0.00987122
-0.00939529
-0.00894217
-0.00851076
-0.00810002
-0.00770895
-0.00733658
-0.00698203
-0.00664441
-0.00632292
-0.00601677
-0.00572522
-0.00544754
-0.00518308
-0.00493118
-0.00469123
-0.00446264
-0.00424486
-0.00403737
-0.00383965
-0.00365122
-0.00347163