/*--------------------------------*- C++ -*----------------------------------*\
| =========                 |                                                 |
| \\      /  F ield         | OpenFOAM: The Open Source CFD Toolbox           |
|  \\    /   O peration     | Version:  2306                                  |
|   \\  /    A nd           | Website:  www.openfoam.com                      |
|    \\/     M anipulation  |                                                 |
\*---------------------------------------------------------------------------*/
FoamFile
{
    version     2.0;
    format      ascii;
    arch        "LSB;label=32;scalar=64";
    class       surfaceScalarField;
    location    "3";
    object      phi;
}
// * * * * * * * * * * * * * * * * * * * * * * * * * * * * * * * * * * * * * //

dimensions      [0 3 -1 0 0 0 0];

oriented        oriented;

internalField   nonuniform List<scalar> 
65152
(
0.0062505
-4.98807e-07
0.006252
-1.49775e-06
0.00625449
-2.49669e-06
0.00625799
-3.49668e-06
0.00626249
-4.49933e-06
0.00626799
-5.50566e-06
0.00627451
-6.5163e-06
0.00628204
-7.53193e-06
0.0062906
-8.55328e-06
0.00630018
-9.58107e-06
0.00631079
-1.06159e-05
0.00632245
-1.16583e-05
0.00633516
-1.27088e-05
0.00634893
-1.37676e-05
0.00636376
-1.48351e-05
0.00637967
-1.59114e-05
0.00639667
-1.69965e-05
0.00641476
-1.80903e-05
0.00643395
-1.91926e-05
0.00645426
-2.03029e-05
0.00647568
-2.14209e-05
0.00649822
-2.25456e-05
0.0065219
-2.36762e-05
0.00654671
-2.48118e-05
0.00657266
-2.5951e-05
0.00659975
-2.70923e-05
0.00662799
-2.82343e-05
0.00665736
-2.93749e-05
0.00668788
-3.05122e-05
0.00671952
-3.1644e-05
0.00675229
-3.27678e-05
0.00678617
-3.38809e-05
0.00682115
-3.49807e-05
0.00685721
-3.60641e-05
0.00689434
-3.71279e-05
0.00693251
-3.81689e-05
0.00697169
-3.91836e-05
0.00701186
-4.01686e-05
0.00705298
-4.11201e-05
0.00709502
-4.20346e-05
0.00713793
-4.29083e-05
0.00718166
-4.37374e-05
0.00722618
-4.45184e-05
0.00727143
-4.52476e-05
0.00731735
-4.59215e-05
0.00736389
-4.65366e-05
0.00741098
-4.70897e-05
0.00745855
-4.75777e-05
0.00750655
-4.79978e-05
0.0075549
-4.83474e-05
0.00760352
-4.86241e-05
0.00765235
-4.88258e-05
0.0077013
-4.89507e-05
0.0077503
-4.89973e-05
0.00779926
-4.89645e-05
0.00784811
-4.88514e-05
0.00789677
-4.86574e-05
0.00794515
-4.83822e-05
0.00799318
-4.8026e-05
0.00804077
-4.75889e-05
0.00808784
-4.70717e-05
0.00813431
-4.64751e-05
0.00818012
-4.58002e-05
0.00822516
-4.50483e-05
0.00826938
-4.42208e-05
0.0083127
-4.33192e-05
0.00835505
-4.23453e-05
0.00839635
-4.1301e-05
0.00843654
-4.01881e-05
0.00847555
-3.90087e-05
0.00851331
-3.77647e-05
0.00854977
-3.64582e-05
0.00858486
-3.50912e-05
0.00861853
-3.36659e-05
0.00865071
-3.21842e-05
0.00868136
-3.06482e-05
0.00871042
-2.90599e-05
0.00873784
-2.74213e-05
0.00876357
-2.57344e-05
0.00878758
-2.40011e-05
0.0088098
-2.22234e-05
0.0088302
-2.04034e-05
0.00884875
-1.85431e-05
0.00886539
-1.66446e-05
0.0088801
-1.47103e-05
0.00889284
-1.27425e-05
0.00890359
-1.0744e-05
0.0089123
-8.71772e-06
0.00891897
-6.66714e-06
0.00892357
-4.59614e-06
0.00892608
-2.50924e-06
0.00892649
-4.11611e-07
0.0089248
1.6908e-06
0.00892101
3.79123e-06
0.00891512
5.88222e-06
0.00890717
7.95542e-06
0.00889717
1.00019e-05
0.00888516
1.2012e-05
0.00887118
1.39762e-05
0.00885529
1.58845e-05
0.00883757
1.77275e-05
0.00881807
1.94963e-05
0.00879689
2.11832e-05
0.00877411
2.27818e-05
0.00874982
2.42874e-05
0.00872412
2.56971e-05
0.00869711
2.70101e-05
0.00866888
2.82279e-05
0.00863953
2.93538e-05
0.00860914
3.03928e-05
0.00857779
3.13516e-05
0.00854555
3.22379e-05
0.00851249
3.30602e-05
0.00847866
3.38269e-05
0.00844411
3.45463e-05
0.00840889
3.5226e-05
0.00837302
3.58721e-05
0.00833653
3.64897e-05
0.00829944
3.7082e-05
0.00826179
3.76506e-05
0.0082236
3.81954e-05
0.00818488
3.87146e-05
0.00814568
3.92052e-05
0.00810601
3.96632e-05
0.00806593
4.00837e-05
0.00802547
4.04613e-05
0.00798468
4.07908e-05
0.00794361
4.10671e-05
0.00790233
4.12853e-05
0.00786088
4.14416e-05
0.00781935
4.15328e-05
0.0077778
4.15565e-05
0.00773628
4.15116e-05
0.00769489
4.13976e-05
0.00765367
4.12152e-05
0.00761271
4.09657e-05
0.00757205
4.06514e-05
0.00753178
4.02748e-05
0.00749194
3.98393e-05
0.00745259
3.93485e-05
0.00741379
3.88064e-05
0.00737557
3.8217e-05
0.00733798
3.75847e-05
0.00730107
3.69136e-05
0.00726486
3.62082e-05
0.00722939
3.54724e-05
0.00719468
3.47106e-05
0.00716075
3.39265e-05
0.00712763
3.31239e-05
0.00709532
3.23066e-05
0.00706384
3.14777e-05
0.0070332
3.06406e-05
0.00700341
2.97982e-05
0.00697445
2.89534e-05
0.00694634
2.81086e-05
0.00691908
2.72662e-05
0.00689265
2.64285e-05
0.00686705
2.55973e-05
0.00684228
2.47745e-05
0.00681832
2.39617e-05
0.00679515
2.31603e-05
0.00677278
2.23716e-05
0.00675119
2.15967e-05
0.00673035
2.08365e-05
0.00671026
2.0092e-05
0.00669089
1.93637e-05
0.00667224
1.86524e-05
0.00665428
1.79584e-05
0.006637
1.72822e-05
0.00662038
1.6624e-05
0.00660439
1.5984e-05
0.00658903
1.53623e-05
0.00657427
1.47591e-05
0.0065601
1.41742e-05
0.00654649
1.36076e-05
0.00653343
1.30591e-05
0.0065209
1.25286e-05
0.00650889
1.20159e-05
0.00649737
1.15207e-05
0.00648632
1.10427e-05
0.00647574
1.05816e-05
0.0064656
1.01371e-05
0.0064559
9.70879e-06
0.0064466
9.29636e-06
0.0064377
8.89938e-06
0.00642918
8.51747e-06
0.00642103
8.15023e-06
0.00641324
7.79725e-06
0.00640578
7.45811e-06
0.00639864
7.1324e-06
0.00639182
6.81971e-06
0.00638531
6.51962e-06
0.00637907
6.23174e-06
0.00637312
5.95565e-06
0.00636743
5.69095e-06
0.00636199
5.43726e-06
0.0063568
5.19418e-06
0.00635183
4.96133e-06
0.0063471
4.73835e-06
0.00634257
4.52487e-06
0.00633825
4.32054e-06
0.00633413
4.12501e-06
0.00633019
3.93795e-06
0.00632643
3.75902e-06
0.00632284
3.58792e-06
0.00631942
3.42433e-06
0.00631615
3.26796e-06
0.00631303
3.11852e-06
0.00631005
2.97572e-06
0.00630721
2.8393e-06
0.00630451
2.70901e-06
0.00630192
2.58457e-06
0.00629946
2.46576e-06
0.0062971
2.35234e-06
0.00629486
2.24408e-06
0.00629272
2.14077e-06
0.00629068
2.04219e-06
0.00628873
1.94815e-06
0.00628687
1.85846e-06
0.0062851
1.77292e-06
0.00628341
1.69136e-06
0.00628179
1.61361e-06
0.00628025
1.53951e-06
0.00627878
1.4689e-06
0.00627738
1.40162e-06
0.00627604
1.33753e-06
0.00627477
1.2765e-06
0.00627355
1.21839e-06
0.00627239
1.16308e-06
0.00627128
1.11044e-06
0.00627022
1.06036e-06
0.0062692
1.01274e-06
0.00626823
9.67452e-07
0.00626731
9.2441e-07
0.00626643
8.83516e-07
0.00626558
8.44678e-07
0.00626477
8.07808e-07
0.006264
7.72824e-07
0.00626326
7.39646e-07
0.00626255
7.082e-07
0.00626188
6.78414e-07
0.00626123
6.50221e-07
0.0062606
6.23556e-07
0.00626
5.98358e-07
0.00625943
5.74569e-07
0.00625888
5.52136e-07
0.00625835
5.31004e-07
0.00625783
5.11129e-07
0.00625734
4.92457e-07
0.00625687
4.74959e-07
0.00625641
4.58568e-07
0.00625597
4.43273e-07
0.00625554
4.29029e-07
0.00625512
4.15541e-07
0.00625472
4.04038e-07
3.89462e-07
0.0062505
-9.98121e-07
0.006252
-2.99373e-06
0.00625449
-4.9906e-06
0.00625798
-6.99056e-06
0.00626248
-8.99554e-06
0.00626798
-1.10075e-05
0.00627449
-1.3028e-05
0.00628202
-1.50587e-05
0.00629057
-1.71009e-05
0.00630014
-1.9156e-05
0.00631075
-2.12253e-05
0.0063224
-2.33098e-05
0.0063351
-2.54105e-05
0.00634887
-2.75281e-05
0.00636369
-2.96631e-05
0.0063796
-3.18158e-05
0.00639659
-3.39863e-05
0.00641467
-3.61743e-05
0.00643386
-3.83795e-05
0.00645416
-4.06009e-05
0.00647557
-4.28376e-05
0.00649812
-4.50881e-05
0.00652179
-4.73507e-05
0.0065466
-4.96232e-05
0.00657255
-5.19032e-05
0.00659965
-5.41877e-05
0.00662789
-5.64735e-05
0.00665727
-5.8757e-05
0.00668779
-6.1034e-05
0.00671945
-6.33001e-05
0.00675223
-6.55504e-05
0.00678613
-6.77797e-05
0.00682113
-6.99823e-05
0.00685722
-7.21522e-05
0.00689437
-7.42832e-05
0.00693257
-7.63687e-05
0.00697179
-7.84017e-05
0.007012
-8.03752e-05
0.00705316
-8.2282e-05
0.00709524
-8.41146e-05
0.0071382
-8.58656e-05
0.00718199
-8.75276e-05
0.00722656
-8.90932e-05
0.00727187
-9.0555e-05
0.00731786
-9.19061e-05
0.00736446
-9.31395e-05
0.00741162
-9.42487e-05
0.00745927
-9.52275e-05
0.00750734
-9.60703e-05
0.00755576
-9.67717e-05
0.00760447
-9.73271e-05
0.00765337
-9.77321e-05
0.00770241
-9.79833e-05
0.00775149
-9.80777e-05
0.00780053
-9.80128e-05
0.00784947
-9.7787e-05
0.00789821
-9.73991e-05
0.00794668
-9.68487e-05
0.00799479
-9.61357e-05
0.00804246
-9.5261e-05
0.00808961
-9.42256e-05
0.00813617
-9.30313e-05
0.00818205
-9.16801e-05
0.00822718
-9.01747e-05
0.00827147
-8.85178e-05
0.00831487
-8.67129e-05
0.00835729
-8.47632e-05
0.00839866
-8.26725e-05
0.00843891
-8.04446e-05
0.00847799
-7.80836e-05
0.00851582
-7.55934e-05
0.00855234
-7.29782e-05
0.00858749
-7.02422e-05
0.00862121
-6.73893e-05
0.00865345
-6.44238e-05
0.00868415
-6.13498e-05
0.00871326
-5.81711e-05
0.00874073
-5.48919e-05
0.00876652
-5.1516e-05
0.00879056
-4.80475e-05
0.00881283
-4.44902e-05
0.00883327
-4.08483e-05
0.00885186
-3.71257e-05
0.00886854
-3.33268e-05
0.00888328
-2.94561e-05
0.00889606
-2.55185e-05
0.00890684
-2.15193e-05
0.00891558
-1.74645e-05
0.00892228
-1.33609e-05
0.0089269
-9.21637e-06
0.00892943
-5.03977e-06
0.00892986
-8.41303e-07
0.00892818
3.36672e-06
0.0089244
7.57133e-06
0.00891853
1.17574e-05
0.00891057
1.59084e-05
0.00890057
2.00064e-05
0.00888855
2.40324e-05
0.00887456
2.79669e-05
0.00885865
3.17902e-05
0.0088409
3.54835e-05
0.00882136
3.9029e-05
0.00880013
4.2411e-05
0.0087773
4.56167e-05
0.00875295
4.86366e-05
0.00872718
5.14648e-05
0.00870009
5.40998e-05
0.00867178
5.65439e-05
0.00864233
5.88037e-05
0.00861183
6.08893e-05
0.00858037
6.28139e-05
0.00854801
6.45928e-05
0.00851483
6.62426e-05
0.00848088
6.77804e-05
0.0084462
6.92227e-05
0.00841084
7.05845e-05
0.00837484
7.18784e-05
0.00833821
7.31143e-05
0.00830099
7.42989e-05
0.00826321
7.54353e-05
0.00822488
7.65234e-05
0.00818604
7.75599e-05
0.0081467
7.85387e-05
0.00810691
7.94518e-05
0.00806671
8.02896e-05
0.00802613
8.10414e-05
0.00798522
8.16968e-05
0.00794404
8.22453e-05
0.00790265
8.26776e-05
0.00786111
8.29858e-05
0.00781948
8.31636e-05
0.00777783
8.32065e-05
0.00773623
8.31119e-05
0.00769475
8.28791e-05
0.00765345
8.25093e-05
0.00761241
8.20054e-05
0.00757169
8.13716e-05
0.00753135
8.06135e-05
0.00749145
7.97375e-05
0.00745205
7.87509e-05
0.0074132
7.76617e-05
0.00737494
7.64782e-05
0.00733731
7.52088e-05
0.00730036
7.38622e-05
0.00726412
7.24469e-05
0.00722863
7.09713e-05
0.00719389
6.94435e-05
0.00715995
6.78715e-05
0.00712681
6.62628e-05
0.00709449
6.46246e-05
0.007063
6.29636e-05
0.00703236
6.12864e-05
0.00700256
5.95989e-05
0.0069736
5.79066e-05
0.0069455
5.62146e-05
0.00691824
5.45277e-05
0.00689182
5.28503e-05
0.00686623
5.11862e-05
0.00684146
4.9539e-05
0.00681751
4.79119e-05
0.00679436
4.63079e-05
0.00677201
4.47293e-05
0.00675042
4.31785e-05
0.0067296
4.16574e-05
0.00670953
4.01676e-05
0.00669018
3.87105e-05
0.00667155
3.72873e-05
0.00665361
3.5899e-05
0.00663634
3.45463e-05
0.00661974
3.32297e-05
0.00660377
3.19496e-05
0.00658843
3.07062e-05
0.00657369
2.94997e-05
0.00655953
2.833e-05
0.00654594
2.71969e-05
0.0065329
2.61001e-05
0.00652039
2.50394e-05
0.00650839
2.40142e-05
0.00649689
2.30241e-05
0.00648586
2.20684e-05
0.0064753
2.11466e-05
0.00646518
2.02579e-05
0.00645548
1.94017e-05
0.0064462
1.85772e-05
0.00643732
1.77837e-05
0.00642882
1.70202e-05
0.00642068
1.62862e-05
0.0064129
1.55806e-05
0.00640545
1.49028e-05
0.00639833
1.42518e-05
0.00639152
1.36268e-05
0.00638502
1.3027e-05
0.0063788
1.24517e-05
0.00637285
1.18999e-05
0.00636717
1.13709e-05
0.00636175
1.08639e-05
0.00635656
1.03781e-05
0.00635161
9.91279e-06
0.00634688
9.46719e-06
0.00634237
9.04059e-06
0.00633806
8.63227e-06
0.00633394
8.24155e-06
0.00633001
7.86775e-06
0.00632626
7.51022e-06
0.00632268
7.16832e-06
0.00631926
6.84144e-06
0.006316
6.52899e-06
0.00631289
6.23038e-06
0.00630992
5.94507e-06
0.00630708
5.67249e-06
0.00630438
5.41215e-06
0.0063018
5.16352e-06
0.00629934
4.92613e-06
0.006297
4.69952e-06
0.00629476
4.48322e-06
0.00629262
4.2768e-06
0.00629058
4.07985e-06
0.00628864
3.89197e-06
0.00628678
3.71276e-06
0.00628502
3.54187e-06
0.00628333
3.37892e-06
0.00628172
3.22359e-06
0.00628018
3.07554e-06
0.00627872
2.93446e-06
0.00627732
2.80004e-06
0.00627598
2.67201e-06
0.00627471
2.55008e-06
0.00627349
2.43399e-06
0.00627233
2.32349e-06
0.00627123
2.21833e-06
0.00627017
2.11828e-06
0.00626916
2.02313e-06
0.00626819
1.93266e-06
0.00626727
1.84668e-06
0.00626639
1.76498e-06
0.00626555
1.68739e-06
0.00626474
1.61373e-06
0.00626397
1.54384e-06
0.00626323
1.47756e-06
0.00626252
1.41474e-06
0.00626185
1.35524e-06
0.0062612
1.29892e-06
0.00626058
1.24565e-06
0.00625998
1.19531e-06
0.00625941
1.14779e-06
0.00625886
1.10297e-06
0.00625833
1.06076e-06
0.00625782
1.02105e-06
0.00625732
9.83759e-07
0.00625685
9.48782e-07
0.00625639
9.16093e-07
0.00625595
8.85431e-07
0.00625552
8.57297e-07
0.00625511
8.29854e-07
0.0062547
8.08513e-07
7.7678e-07
0.0062505
-1.49615e-06
0.00625199
-4.48752e-06
0.00625448
-7.48084e-06
0.00625797
-1.04791e-05
0.00626246
-1.34849e-05
0.00626795
-1.65012e-05
0.00627446
-1.95304e-05
0.00628197
-2.25749e-05
0.00629051
-2.56369e-05
0.00630007
-2.87185e-05
0.00631067
-3.18215e-05
0.0063223
-3.49476e-05
0.00633499
-3.80981e-05
0.00634874
-4.12743e-05
0.00636355
-4.44768e-05
0.00637944
-4.77062e-05
0.00639642
-5.09626e-05
0.00641449
-5.42457e-05
0.00643367
-5.75548e-05
0.00645395
-6.08888e-05
0.00647536
-6.4246e-05
0.0064979
-6.76244e-05
0.00652157
-7.10214e-05
0.00654638
-7.44337e-05
0.00657233
-7.78576e-05
0.00659943
-8.12889e-05
0.00662768
-8.47227e-05
0.00665708
-8.81533e-05
0.00668762
-9.15748e-05
0.0067193
-9.49803e-05
0.00675211
-9.83626e-05
0.00678605
-0.000101714
0.00682109
-0.000105025
0.00685723
-0.000108288
0.00689444
-0.000111493
0.0069327
-0.00011463
0.00697199
-0.000117689
0.00701227
-0.000120658
0.00705351
-0.000123528
0.00709569
-0.000126286
0.00713874
-0.000128922
0.00718264
-0.000131424
0.00722733
-0.000133781
0.00727275
-0.000135982
0.00731886
-0.000138017
0.0073656
-0.000139875
0.0074129
-0.000141547
0.00746069
-0.000143022
0.00750891
-0.000144292
0.00755749
-0.00014535
0.00760635
-0.000146188
0.00765542
-0.0001468
0.00770462
-0.00014718
0.00775387
-0.000147325
0.00780308
-0.000147229
0.00785219
-0.000146892
0.0079011
-0.00014631
0.00794973
-0.000145484
0.00799801
-0.000144414
0.00804585
-0.0001431
0.00809317
-0.000141544
0.00813989
-0.00013975
0.00818593
-0.000137719
0.00823121
-0.000135457
0.00827566
-0.000132968
0.0083192
-0.000130256
0.00836176
-0.000127326
0.00840328
-0.000124185
0.00844367
-0.000120838
0.00848288
-0.000117291
0.00852083
-0.00011355
0.00855748
-0.000109622
0.00859275
-0.000105512
0.00862659
-0.000101228
0.00865894
-9.67742e-05
0.00868974
-9.21578e-05
0.00871896
-8.73847e-05
0.00874653
-8.24608e-05
0.0087724
-7.73921e-05
0.00879654
-7.21844e-05
0.00881889
-6.68437e-05
0.00883942
-6.13759e-05
0.00885808
-5.57872e-05
0.00887484
-5.00839e-05
0.00888966
-4.42729e-05
0.0089025
-3.83613e-05
0.00891334
-3.23571e-05
0.00892214
-2.62693e-05
0.00892889
-2.01079e-05
0.00893356
-1.38847e-05
0.00893613
-7.61275e-06
0.0089366
-1.30719e-06
0.00893495
5.013e-06
0.00893119
1.13293e-05
0.00892533
1.76187e-05
0.00891738
2.38567e-05
0.00890737
3.00164e-05
0.00889534
3.60694e-05
0.00888132
4.19866e-05
0.00886537
4.77385e-05
0.00884755
5.32965e-05
0.00882795
5.86342e-05
0.00880663
6.37278e-05
0.00878369
6.85578e-05
0.00875922
7.31095e-05
0.00873331
7.73739e-05
0.00870606
8.13483e-05
0.00867757
8.50359e-05
0.00864793
8.84461e-05
0.00861722
9.15937e-05
0.00858554
9.44979e-05
0.00855295
9.71817e-05
0.00851952
9.96698e-05
0.00848531
0.000101988
0.00845038
0.00010416
0.00841475
0.000106209
0.00837848
0.000108154
0.00834158
0.000110009
0.0083041
0.000111786
0.00826604
0.000113489
0.00822745
0.000115117
0.00818834
0.000116667
0.00814875
0.000118129
0.00810871
0.000119492
0.00806826
0.000120741
0.00802744
0.00012186
0.0079863
0.000122833
0.0079449
0.000123646
0.0079033
0.000124284
0.00786155
0.000124736
0.00781972
0.000124991
0.00777788
0.000125044
0.00773611
0.00012489
0.00769446
0.000124528
0.007653
0.000123961
0.00761182
0.000123193
0.00757096
0.00012223
0.00753049
0.00012108
0.00749048
0.000119753
0.00745097
0.000118261
0.00741201
0.000116615
0.00737366
0.000114828
0.00733596
0.000112912
0.00729894
0.00011088
0.00726264
0.000108747
0.00722709
0.000106523
0.00719231
0.000104221
0.00715833
0.000101853
0.00712516
9.9431e-05
0.00709282
9.69651e-05
0.00706132
9.44658e-05
0.00703067
9.19424e-05
0.00700086
8.94042e-05
0.00697191
8.68592e-05
0.00694381
8.43154e-05
0.00691656
8.17796e-05
0.00689015
7.92585e-05
0.00686458
7.67579e-05
0.00683983
7.42831e-05
0.0068159
7.1839e-05
0.00679278
6.94297e-05
0.00677045
6.70591e-05
0.0067489
6.47305e-05
0.00672811
6.24467e-05
0.00670807
6.02103e-05
0.00668876
5.80232e-05
0.00667016
5.58873e-05
0.00665225
5.38038e-05
0.00663502
5.1774e-05
0.00661845
4.97987e-05
0.00660253
4.78783e-05
0.00658722
4.60131e-05
0.00657252
4.42034e-05
0.0065584
4.24491e-05
0.00654484
4.07497e-05
0.00653184
3.91051e-05
0.00651936
3.75145e-05
0.0065074
3.59774e-05
0.00649593
3.44929e-05
0.00648494
3.30602e-05
0.00647441
3.16783e-05
0.00646432
3.03462e-05
0.00645466
2.90628e-05
0.00644541
2.78271e-05
0.00643655
2.66377e-05
0.00642808
2.54936e-05
0.00641997
2.43935e-05
0.00641222
2.33362e-05
0.0064048
2.23205e-05
0.00639771
2.1345e-05
0.00639093
2.04086e-05
0.00638444
1.951e-05
0.00637825
1.8648e-05
0.00637232
1.78213e-05
0.00636667
1.70288e-05
0.00636126
1.62693e-05
0.0063561
1.55415e-05
0.00635117
1.48445e-05
0.00634646
1.4177e-05
0.00634196
1.3538e-05
0.00633766
1.29264e-05
0.00633357
1.23411e-05
0.00632965
1.17813e-05
0.00632592
1.12458e-05
0.00632235
1.07337e-05
0.00631895
1.02441e-05
0.0063157
9.77617e-06
0.0063126
9.32896e-06
0.00630965
8.90166e-06
0.00630682
8.49345e-06
0.00630413
8.10356e-06
0.00630157
7.73123e-06
0.00629912
7.37574e-06
0.00629678
7.03638e-06
0.00629455
6.71247e-06
0.00629242
6.40337e-06
0.00629039
6.10845e-06
0.00628846
5.82711e-06
0.00628661
5.55876e-06
0.00628485
5.30286e-06
0.00628317
5.05887e-06
0.00628157
4.82628e-06
0.00628004
4.6046e-06
0.00627858
4.39336e-06
0.00627719
4.1921e-06
0.00627586
4.0004e-06
0.00627459
3.81783e-06
0.00627338
3.64401e-06
0.00627223
3.47856e-06
0.00627113
3.32111e-06
0.00627007
3.17132e-06
0.00626907
3.02885e-06
0.00626811
2.8934e-06
0.00626719
2.76466e-06
0.00626631
2.64234e-06
0.00626547
2.52618e-06
0.00626467
2.4159e-06
0.0062639
2.31126e-06
0.00626317
2.21203e-06
0.00626247
2.11797e-06
0.00626179
2.02889e-06
0.00626115
1.94456e-06
0.00626053
1.86481e-06
0.00625993
1.78945e-06
0.00625936
1.7183e-06
0.00625881
1.65121e-06
0.00625829
1.58801e-06
0.00625778
1.52856e-06
0.00625729
1.47274e-06
0.00625682
1.42037e-06
0.00625636
1.37145e-06
0.00625592
1.32552e-06
0.0062555
1.28349e-06
0.00625508
1.2423e-06
0.00625468
1.21056e-06
1.16273e-06
0.0062505
-1.993e-06
0.00625199
-5.97785e-06
0.00625447
-9.96533e-06
0.00625795
-1.39595e-05
0.00626243
-1.79641e-05
0.00626791
-2.19827e-05
0.0062744
-2.60186e-05
0.0062819
-3.00752e-05
0.00629042
-3.41554e-05
0.00629996
-3.8262e-05
0.00631054
-4.23976e-05
0.00632216
-4.65643e-05
0.00633482
-5.07641e-05
0.00634855
-5.49985e-05
0.00636334
-5.92686e-05
0.00637921
-6.35752e-05
0.00639616
-6.79183e-05
0.00641421
-7.22976e-05
0.00643337
-7.67124e-05
0.00645364
-8.1161e-05
0.00647504
-8.56414e-05
0.00649757
-9.01509e-05
0.00652123
-9.46859e-05
0.00654604
-9.92423e-05
0.006572
-0.000103815
0.00659911
-0.000108398
0.00662737
-0.000112986
0.00665679
-0.00011757
0.00668736
-0.000122144
0.00671907
-0.000126696
0.00675193
-0.000131219
0.00678591
-0.000135701
0.00682102
-0.000140131
0.00685723
-0.000144497
0.00689452
-0.000148786
0.00693287
-0.000152984
0.00697226
-0.000157079
0.00701266
-0.000161055
0.00705403
-0.000164898
0.00709634
-0.000168593
0.00713954
-0.000172125
0.0071836
-0.000175479
0.00722846
-0.000178638
0.00727406
-0.00018159
0.00732037
-0.000184319
0.0073673
-0.000186811
0.00741481
-0.000189054
0.00746282
-0.000191034
0.00751127
-0.00019274
0.00756008
-0.000194161
0.00760918
-0.000195288
0.00765849
-0.000196111
0.00770793
-0.000196625
0.00775743
-0.000196822
0.0078069
-0.000196698
0.00785626
-0.00019625
0.00790542
-0.000195476
0.00795431
-0.000194373
0.00800284
-0.000192944
0.00805093
-0.000191189
0.0080985
-0.00018911
0.00814546
-0.000186712
0.00819174
-0.000183998
0.00823726
-0.000180975
0.00828194
-0.000177647
0.0083257
-0.000174022
0.00836848
-0.000170107
0.00841021
-0.000165909
0.00845081
-0.000161436
0.00849021
-0.000156697
0.00852836
-0.000151699
0.00856519
-0.000146451
0.00860064
-0.000140961
0.00863465
-0.000135239
0.00866717
-0.000129291
0.00869814
-0.000123126
0.0087275
-0.000116752
0.00875522
-0.000110177
0.00878124
-0.00010341
0.00880551
-9.6457e-05
0.00882799
-8.9327e-05
0.00884864
-8.20276e-05
0.00886742
-7.4567e-05
0.00888429
-6.69535e-05
0.00889922
-5.91961e-05
0.00891216
-5.13044e-05
0.00892309
-4.32888e-05
0.00893198
-3.51612e-05
0.00893881
-2.69349e-05
0.00894355
-1.86252e-05
0.00894619
-1.02497e-05
0.00894671
-1.8277e-06
0.00894511
6.6146e-06
0.00894138
1.50536e-05
0.00893554
2.34589e-05
0.0089276
3.17975e-05
0.00891758
4.00341e-05
0.00890552
4.8131e-05
0.00889146
5.60493e-05
0.00887545
6.37499e-05
0.00885755
7.11946e-05
0.00883784
7.83477e-05
0.00881639
8.51774e-05
0.00879329
9.16572e-05
0.00876863
9.77671e-05
0.00874251
0.000103494
0.00871502
0.000108835
0.00868627
0.000113791
0.00865634
0.000118377
0.00862532
0.000122609
0.0085933
0.000126514
0.00856036
0.000130122
0.00852657
0.000133465
0.00849198
0.000136576
0.00845665
0.000139488
0.00842063
0.000142232
0.00838395
0.000144833
0.00834665
0.000147311
0.00830875
0.00014968
0.0082703
0.000151947
0.0082313
0.000154112
0.0081918
0.000156169
0.00815182
0.000158107
0.0081114
0.000159911
0.00807058
0.000161561
0.00802941
0.000163036
0.00798792
0.000164317
0.00794619
0.000165382
0.00790426
0.000166213
0.0078622
0.000166795
0.00782008
0.000167114
0.00777796
0.000167162
0.00773591
0.000166935
0.00769401
0.00016643
0.00765232
0.000165651
0.00761091
0.000164603
0.00756985
0.000163294
0.00752919
0.000161738
0.007489
0.000159945
0.00744933
0.000157932
0.00741023
0.000155715
0.00737174
0.000153309
0.00733392
0.000150733
0.0072968
0.000148003
0.00726041
0.000145137
0.00722478
0.000142152
0.00718994
0.000139064
0.0071559
0.000135889
0.00712269
0.000132643
0.00709032
0.000129339
0.00705879
0.000125992
0.00702812
0.000122613
0.00699831
0.000119216
0.00696936
0.000115811
0.00694126
0.000112408
0.00691403
0.000109017
0.00688764
0.000105646
0.00686209
0.000102304
0.00683738
9.89964e-05
0.00681349
9.57309e-05
0.00679041
9.25126e-05
0.00676812
8.93467e-05
0.00674661
8.62373e-05
0.00672587
8.31885e-05
0.00670588
8.02033e-05
0.00668662
7.72845e-05
0.00666807
7.44344e-05
0.00665022
7.16548e-05
0.00663304
6.89471e-05
0.00661653
6.63124e-05
0.00660066
6.37514e-05
0.00658541
6.12644e-05
0.00657076
5.88516e-05
0.00655669
5.65128e-05
0.0065432
5.42477e-05
0.00653025
5.20557e-05
0.00651782
4.9936e-05
0.00650591
4.78877e-05
0.0064945
4.59097e-05
0.00648356
4.40009e-05
0.00647307
4.216e-05
0.00646303
4.03856e-05
0.00645342
3.86762e-05
0.00644422
3.70303e-05
0.00643541
3.54464e-05
0.00642698
3.39229e-05
0.00641892
3.2458e-05
0.0064112
3.10502e-05
0.00640382
2.96978e-05
0.00639677
2.83992e-05
0.00639003
2.71525e-05
0.00638358
2.59563e-05
0.00637742
2.48088e-05
0.00637153
2.37085e-05
0.00636591
2.26537e-05
0.00636053
2.16428e-05
0.0063554
2.06743e-05
0.0063505
1.97466e-05
0.00634582
1.88583e-05
0.00634135
1.8008e-05
0.00633708
1.71941e-05
0.00633301
1.64153e-05
0.00632912
1.56704e-05
0.0063254
1.49579e-05
0.00632186
1.42765e-05
0.00631848
1.36252e-05
0.00631525
1.30026e-05
0.00631218
1.24076e-05
0.00630924
1.18391e-05
0.00630644
1.12961e-05
0.00630376
1.07774e-05
0.00630121
1.02821e-05
0.00629878
9.80921e-06
0.00629646
9.35778e-06
0.00629424
8.92691e-06
0.00629213
8.51576e-06
0.00629011
8.12347e-06
0.00628819
7.74924e-06
0.00628636
7.39232e-06
0.00628461
7.05195e-06
0.00628294
6.72743e-06
0.00628135
6.41808e-06
0.00627983
6.12323e-06
0.00627838
5.84228e-06
0.006277
5.5746e-06
0.00627568
5.31964e-06
0.00627442
5.07684e-06
0.00627322
4.84567e-06
0.00627207
4.62563e-06
0.00627098
4.41624e-06
0.00626993
4.21703e-06
0.00626893
4.02757e-06
0.00626798
3.84743e-06
0.00626707
3.67623e-06
0.0062662
3.51356e-06
0.00626536
3.35908e-06
0.00626457
3.21243e-06
0.0062638
3.07328e-06
0.00626307
2.94132e-06
0.00626238
2.81625e-06
0.00626171
2.69778e-06
0.00626107
2.58565e-06
0.00626045
2.47959e-06
0.00625986
2.37938e-06
0.0062593
2.28477e-06
0.00625875
2.19555e-06
0.00625823
2.11151e-06
0.00625772
2.03246e-06
0.00625724
1.95823e-06
0.00625677
1.8886e-06
0.00625632
1.82356e-06
0.00625588
1.76248e-06
0.00625546
1.70663e-06
0.00625505
1.65181e-06
0.00625465
1.60967e-06
1.546e-06
0.0062505
-2.48829e-06
0.00625198
-7.46347e-06
0.00625446
-1.2442e-05
0.00625793
-1.74291e-05
0.00626239
-2.24294e-05
0.00626786
-2.74475e-05
0.00627433
-3.24877e-05
0.00628181
-3.75539e-05
0.0062903
-4.26502e-05
0.00629982
-4.77799e-05
0.00631037
-5.29465e-05
0.00632195
-5.81526e-05
0.00633459
-6.34008e-05
0.00634829
-6.8693e-05
0.00636305
-7.40307e-05
0.00637889
-7.94149e-05
0.00639582
-8.48457e-05
0.00641384
-9.03229e-05
0.00643297
-9.58455e-05
0.00645322
-0.000101412
0.0064746
-0.000107019
0.00649711
-0.000112663
0.00652077
-0.000118341
0.00654557
-0.000124047
0.00657153
-0.000129775
0.00659865
-0.000135518
0.00662694
-0.000141268
0.00665638
-0.000147014
0.00668699
-0.000152749
0.00671875
-0.000158459
0.00675166
-0.000164133
0.00678572
-0.000169757
0.00682091
-0.000175318
0.00685721
-0.0001808
0.00689461
-0.000186186
0.00693309
-0.000191461
0.00697261
-0.000196607
0.00701316
-0.000201605
0.0070547
-0.000206437
0.00709719
-0.000211083
0.00714059
-0.000215526
0.00718486
-0.000219746
0.00722994
-0.000223723
0.00727579
-0.000227439
0.00732235
-0.000230875
0.00736955
-0.000234015
0.00741734
-0.000236841
0.00746564
-0.000239337
0.00751439
-0.000241489
0.00756351
-0.000243282
0.00761293
-0.000244706
0.00766257
-0.000245748
0.00771234
-0.0002464
0.00776218
-0.000246655
0.00781198
-0.000246506
0.00786168
-0.000245949
0.00791119
-0.000244982
0.00796042
-0.000243603
0.00800929
-0.000241813
0.00805771
-0.000239613
0.00810561
-0.000237007
0.0081529
-0.000234
0.0081995
-0.000230598
0.00824533
-0.000226806
0.00829031
-0.000222633
0.00833438
-0.000218088
0.00837745
-0.000213179
0.00841946
-0.000207915
0.00846033
-0.000202308
0.0085
-0.000196368
0.00853841
-0.000190104
0.00857548
-0.000183527
0.00861117
-0.000176649
0.00864541
-0.000169479
0.00867815
-0.000162028
0.00870933
-0.000154306
0.0087389
-0.000146324
0.00876681
-0.00013809
0.00879302
-0.000129616
0.00881747
-0.00012091
0.00884013
-0.000111983
0.00886095
-0.000102845
0.00887988
-9.35046e-05
0.0088969
-8.39732e-05
0.00891197
-7.42615e-05
0.00892505
-6.43815e-05
0.0089361
-5.4346e-05
0.00894511
-4.41696e-05
0.00895205
-3.38688e-05
0.00895688
-2.34624e-05
0.0089596
-1.2972e-05
0.0089602
-2.42203e-06
0.00895866
8.15628e-06
0.00895498
1.87328e-05
0.00894917
2.92702e-05
0.00894124
3.97277e-05
0.00893121
5.00614e-05
0.00891912
6.02246e-05
0.008905
7.01686e-05
0.0088889
7.98446e-05
0.00887089
8.92048e-05
0.00885104
9.82043e-05
0.00882941
0.000106803
0.0088061
0.000114967
0.0087812
0.00012267
0.0087548
0.000129895
0.00872699
0.000136637
0.00869789
0.000142898
0.00866757
0.000148691
0.00863614
0.00015404
0.00860368
0.000158974
0.00857028
0.000163531
0.00853599
0.00016775
0.00850089
0.000171673
0.00846504
0.000175341
0.00842848
0.00017879
0.00839126
0.000182054
0.00835341
0.000185158
0.00831498
0.000188119
0.00827598
0.000190947
0.00823644
0.000193643
0.00819641
0.0001962
0.00815592
0.000198605
0.00811499
0.000200838
0.00807367
0.000202876
0.00803202
0.000204694
0.00799007
0.000206266
0.00794788
0.000207567
0.00790552
0.000208574
0.00786305
0.000209268
0.00782053
0.000209632
0.00777803
0.000209657
0.00773563
0.000209336
0.00769339
0.000208669
0.00765139
0.000207657
0.00760968
0.000206309
0.00756834
0.000204635
0.00752743
0.000202651
0.007487
0.000200372
0.00744711
0.000197818
0.00740782
0.000195009
0.00736916
0.000191966
0.00733119
0.00018871
0.00729393
0.000185264
0.00725741
0.000181648
0.00722168
0.000177885
0.00718675
0.000173995
0.00715264
0.000169997
0.00711937
0.000165912
0.00708696
0.000161757
0.0070554
0.000157548
0.00702471
0.000153303
0.00699489
0.000149035
0.00696594
0.000144759
0.00693786
0.000140488
0.00691065
0.000136233
0.00688429
0.000132005
0.00685878
0.000127813
0.00683411
0.000123668
0.00681026
0.000119575
0.00678723
0.000115543
0.006765
0.000111577
0.00674355
0.000107683
0.00672288
0.000103866
0.00670295
0.000100129
0.00668376
9.64767e-05
0.00666528
9.29107e-05
0.0066475
8.94335e-05
0.0066304
8.60469e-05
0.00661396
8.27522e-05
0.00659817
7.95501e-05
0.00658299
7.64412e-05
0.00656841
7.34254e-05
0.00655442
7.05027e-05
0.006541
6.76723e-05
0.00652812
6.49337e-05
0.00651577
6.22858e-05
0.00650393
5.97274e-05
0.00649258
5.72572e-05
0.00648171
5.48736e-05
0.0064713
5.25751e-05
0.00646132
5.03598e-05
0.00645177
4.82259e-05
0.00644263
4.61715e-05
0.00643388
4.41946e-05
0.00642551
4.22933e-05
0.00641751
4.04653e-05
0.00640985
3.87087e-05
0.00640252
3.70213e-05
0.00639552
3.54011e-05
0.00638883
3.3846e-05
0.00638243
3.23538e-05
0.00637632
3.09225e-05
0.00637048
2.95501e-05
0.0063649
2.82345e-05
0.00635956
2.69738e-05
0.00635447
2.5766e-05
0.00634961
2.46093e-05
0.00634497
2.35016e-05
0.00634053
2.24414e-05
0.0063363
2.14266e-05
0.00633226
2.04557e-05
0.0063284
1.9527e-05
0.00632472
1.86387e-05
0.00632121
1.77894e-05
0.00631786
1.69774e-05
0.00631466
1.62013e-05
0.00631161
1.54597e-05
0.00630869
1.47512e-05
0.00630592
1.40743e-05
0.00630327
1.34279e-05
0.00630074
1.28106e-05
0.00629833
1.22212e-05
0.00629603
1.16586e-05
0.00629383
1.11216e-05
0.00629174
1.06093e-05
0.00628974
1.01204e-05
0.00628783
9.65408e-06
0.00628602
9.20931e-06
0.00628428
8.78519e-06
0.00628263
8.38082e-06
0.00628105
7.99535e-06
0.00627955
7.62798e-06
0.00627811
7.27791e-06
0.00627674
6.9444e-06
0.00627544
6.62673e-06
0.00627419
6.32422e-06
0.006273
6.0362e-06
0.00627186
5.76206e-06
0.00627078
5.50118e-06
0.00626974
5.253e-06
0.00626875
5.01696e-06
0.00626781
4.79254e-06
0.0062669
4.57925e-06
0.00626604