/*--------------------------------*- C++ -*----------------------------------*\
| =========                 |                                                 |
| \\      /  F ield         | OpenFOAM: The Open Source CFD Toolbox           |
|  \\    /   O peration     | Version:  2306                                  |
|   \\  /    A nd           | Website:  www.openfoam.com                      |
|    \\/     M anipulation  |                                                 |
\*---------------------------------------------------------------------------*/
FoamFile
{
    version     2.0;
    format      ascii;
    arch        "LSB;label=32;scalar=64";
    class       volScalarField;
    location    "3";
    object      T;
}
// * * * * * * * * * * * * * * * * * * * * * * * * * * * * * * * * * * * * * //

dimensions      [0 0 0 1 0 0 0];

internalField   nonuniform List<scalar> 
32768
(
300
300
300
300
300
300
300
300
300
300
300
300
300
300
300
300
300
299.999
299.999
299.999
299.999
299.998
299.998
299.997
299.996
299.995
299.994
299.992
299.99
299.987
299.984
299.981
299.976
299.971
299.965
299.957
299.948
299.937
299.924
299.909
299.892
299.871
299.847
299.819
299.786
299.748
299.705
299.655
299.598
299.532
299.458
299.373
299.277
299.169
299.046
298.908
298.753
298.58
298.386
298.169
297.929
297.661
297.365
297.036
296.674
296.275
295.836
295.354
294.825
294.247
293.615
292.927
292.177
291.362
290.479
289.521
288.486
287.367
286.162
284.864
283.469
281.972
280.368
278.651
276.818
274.862
272.779
270.563
268.211
265.717
263.078
260.288
257.345
254.246
250.986
247.564
243.978
240.227
236.311
232.229
227.982
223.573
219.003
214.278
209.4
204.376
199.211
193.914
188.491
182.953
177.308
171.567
165.743
159.845
153.889
147.886
141.851
135.799
129.743
123.701
117.687
111.717
105.807
99.9741
94.233
88.5996
83.089
77.7156
72.4933
67.4347
62.5517
57.8546
53.3527
49.0537
44.9635
41.087
37.4269
33.9846
30.7599
27.7509
24.9544
22.3658
19.9793
17.7879
15.784
13.9588
12.3031
10.8073
9.46141
8.25519
7.17852
6.22129
5.37363
4.62595
3.96904
3.39411
2.89288
2.45756
2.08092
1.75628
1.47749
1.23896
1.03563
0.86292
0.716751
0.593481
0.489886
0.40313
0.330724
0.2705
0.220576
0.17933
0.145364
0.117486
0.094677
0.0760756
0.0609534
0.0486982
0.0387971
0.0308224
0.0244188
0.0192922
0.0152002
0.0119436
0.00935938
0.00731469
0.0057015
0.00443237
0.00343672
0.0026578
0.00205011
0.00157731
0.00121046
0.000926589
0.000707506
0.000538876
0.000409421
0.000310299
0.000234599
0.000176936
0.000133124
9.99198e-05
7.48185e-05
5.589e-05
4.16518e-05
3.09678e-05
2.29704e-05
1.69983e-05
1.25489e-05
9.24095e-06
6.78577e-06
4.96449e-06
3.61026e-06
2.59353e-06
1.80893e-06
1.16178e-06
5.50923e-07
-1.57123e-07
-1.17237e-06
-2.86143e-06
-5.89667e-06
-1.1537e-05
-2.2159e-05
-4.2262e-05
-8.0374e-05
-0.000152661
-0.000289762
-0.000549746
-0.00104262
-0.00197677
-0.00374676
-0.00709962
-0.0134492
-0.025471
-0.0482265
-0.0912894
-0.172764
-0.326877
-0.61833
-1.1694
-2.21113
-4.18002
-7.90052
-14.9297
-28.2074
-53.2841
-100.636
-190.036
-358.795
-677.304
-1278.35
-2412.41
-4551.79
-8587.14
-16197.6
-30548.2
300
300
300
300
300
300
300
300
300
300
300
300
300
300
300
300
300
299.999
299.999
299.999
299.999
299.998
299.998
299.997
299.996
299.995
299.994
299.992
299.99
299.987
299.984
299.981
299.976
299.971
299.965
299.957
299.948
299.937
299.924
299.909
299.891
299.871
299.846
299.818
299.786
299.748
299.705
299.655
299.597
299.532
299.457
299.373
299.277
299.168
299.045
298.907
298.752
298.579
298.385
298.168
297.927
297.66
297.363
297.035
296.673
296.273
295.834
295.352
294.824
294.245
293.614
292.925
292.176
291.362
290.478
289.521
288.486
287.368
286.163
284.866
283.472
281.976
280.372
278.657
276.824
274.87
272.788
270.574
268.223
265.731
263.093
260.306
257.365
254.267
251.01
247.59
244.007
240.258
236.344
232.264
228.02
223.613
219.046
214.322
209.446
204.424
199.261
193.965
188.544
183.006
177.362
171.622
165.798
159.901
153.944
147.94
141.904
135.851
129.794
123.75
117.734
111.762
105.85
100.015
94.2711
88.6351
83.1219
77.7459
72.5209
67.4598
62.5742
57.8746
53.3704
49.069
44.9768
41.0983
37.4364
33.9924
30.7662
27.7558
24.9582
22.3685
19.9811
17.7891
15.7845
13.9588
12.3027
10.8066
9.46044
8.25406
7.17728
6.21999
5.37232
4.62466
3.96778
3.39292
2.89176
2.45652
2.07997
1.75541
1.4767
1.23826
1.03501
0.862372
0.716272
0.593064
0.489526
0.40282
0.330459
0.270275
0.220386
0.17917
0.14523
0.117374
0.0945839
0.0759986
0.0608901
0.0486462
0.0387546
0.0307878
0.0243908
0.0192696
0.015182
0.011929
0.00934772
0.0073054
0.00569413
0.00442654
0.00343212
0.00265418
0.00204728
0.0015751
0.00120874
0.000925251
0.000706471
0.000538077
0.000408806
0.000309827
0.000234238
0.000176661
0.000132914
9.97606e-05
7.4698e-05
5.57991e-05
4.15833e-05
3.09164e-05
2.29319e-05
1.69695e-05
1.25274e-05
9.225e-06
6.77394e-06
4.95574e-06
3.6038e-06
2.58876e-06
1.80543e-06
1.1592e-06
5.49017e-07
-1.58549e-07
-1.17347e-06
-2.86233e-06
-5.89751e-06
-1.15379e-05
-2.21601e-05
-4.22637e-05
-8.03765e-05
-0.000152664
-0.000289768
-0.000549755
-0.00104264
-0.00197678
-0.00374678
-0.00709962
-0.0134492
-0.0254709
-0.0482261
-0.0912884
-0.172761
-0.326872
-0.618318
-1.16937
-2.21108
-4.17991
-7.9003
-14.9292
-28.2065
-53.2824
-100.633
-190.03
-358.782
-677.279
-1278.31
-2412.31
-4551.62
-8586.83
-16197
-30547.4
300
300
300
300
300
300
300
300
300
300
300
300
300
300
300
300
300
299.999
299.999
299.999
299.999
299.998
299.998
299.997
299.996
299.995
299.994
299.992
299.99
299.987
299.984
299.981
299.976
299.971
299.965
299.957
299.948
299.937
299.924
299.909
299.891
299.87
299.846
299.818
299.785
299.748
299.704
299.654
299.597
299.531
299.457
299.372
299.276
299.167
299.044
298.906
298.751
298.577
298.383
298.167
297.926
297.658
297.361
297.033
296.671
296.272
295.833
295.351
294.822
294.245
293.613
292.925
292.177
291.363
290.48
289.524
288.49
287.373
286.17
284.874
283.482
281.988
280.387
278.674
276.844
274.892
272.813
270.603
268.256
265.768
263.134
260.351
257.415
254.322
251.069
247.655
244.077
240.333
236.424
232.35
228.111
223.709
219.147
214.428
209.557
204.539
199.38
194.087
188.669
183.134
177.492
171.753
165.93
160.033
154.075
148.071
142.034
135.978
129.918
123.871
117.851
111.875
105.959
100.118
94.3693
88.7278
83.2089
77.8272
72.5964
67.5294
62.638
57.9329
53.4231
49.1165
45.0193
41.136
37.4696
34.0215
30.7914
27.7776
24.9767
22.3842
19.9943
17.7999
15.7934
13.966
12.3084
10.8111
9.46387
8.25661
7.17911
6.22124
5.3731
4.62508
3.96793
3.39285
2.89154
2.4562
2.07958
1.75499
1.47627
1.23783
1.03459
0.861985
0.715914
0.592738
0.489233
0.40256
0.33023
0.270074
0.220213
0.179021
0.145103
0.117266
0.0944933
0.0759227
0.0608269
0.0485938
0.0387114
0.0307524
0.0243619
0.0192461
0.015163
0.0119136
0.0093354
0.00729555
0.00568628
0.00442031
0.00342719
0.0026503
0.00204423
0.00157271
0.00120688
0.000923803
0.000705348
0.000537209
0.000408137
0.000309314
0.000233845
0.000176361
0.000132686
9.95873e-05
7.45668e-05
5.57001e-05
4.15088e-05
3.08605e-05
2.289e-05
1.69383e-05
1.25042e-05
9.2077e-06
6.76112e-06
4.94626e-06
3.59681e-06
2.58361e-06
1.80163e-06
1.15638e-06
5.46899e-07
-1.60203e-07
-1.17487e-06
-2.8637e-06
-5.89912e-06
-1.15402e-05
-2.21637e-05
-4.22697e-05
-8.03868e-05
-0.000152682
-0.000289799
-0.000549808
-0.00104273
-0.00197694
-0.00374704
-0.00710007
-0.0134499
-0.0254721
-0.0482282
-0.0912916
-0.172766
-0.326879
-0.61833
-1.16939
-2.2111
-4.17993
-7.9003
-14.9292
-28.2063
-53.2817
-100.631
-190.026
-358.774
-677.262
-1278.27
-2412.25
-4551.49
-8586.59
-16196.6
-30546.6
300
300
300
300
300
300
300
300
300
300
300
300
300
300
300
300
300
299.999
299.999
299.999
299.999
299.998
299.998
299.997
299.996
299.995
299.994
299.992
299.99
299.987
299.984
299.981
299.976
299.971
299.964
299.957
299.948
299.937
299.924
299.909
299.891
299.87
299.846
299.818
299.785
299.747
299.703
299.653
299.596
299.53
299.456
299.371
299.274
299.165
299.043
298.904
298.749
298.575
298.381
298.164
297.923
297.656
297.359
297.031
296.669
296.27
295.831
295.349
294.821
294.244
293.613
292.926
292.178
291.365
290.484
289.529
288.497
287.383
286.181
284.888
283.499
282.008
280.41
278.701
276.875
274.928
272.854
270.649
268.307
265.825
263.198
260.422
257.493
254.407
251.162
247.756
244.185
240.45
236.549
232.483
228.252
223.859
219.304
214.593
209.729
204.718
199.565
194.278
188.864
183.333
177.694
171.958
166.136
160.239
154.282
148.276
142.236
136.177
130.114
124.061
118.036
112.054
106.13
100.282
94.5255
88.8757
83.3482
77.9576
72.7178
67.6419
62.7417
58.0278
53.5095
49.1947
45.0896
41.1988
37.5254
34.0708
30.8346
27.8151
25.0092
22.412
20.0179
17.8199
15.8101
13.9798
12.3198
10.8203
9.47126
8.26246
7.18366
6.22473
5.37571
4.62697
3.96925
3.39373
2.89207
2.45647
2.07965
1.75492
1.47611
1.2376
1.03433
0.861702
0.715629
0.592462
0.488973
0.402319
0.330011
0.269879
0.22004
0.17887
0.144972
0.117154
0.0943974
0.0758416
0.0607587
0.0485369
0.0386642
0.0307134
0.0243298
0.0192199
0.0151417
0.0118964
0.00932153
0.00728442
0.00567739
0.00441323
0.00342158
0.00264587
0.00204074
0.00156998
0.00120475
0.000922143
0.00070406
0.000536213
0.00040737
0.000308724
0.000233394
0.000176016
0.000132423
9.93879e-05
7.44158e-05
5.55861e-05
4.1423e-05
3.07961e-05
2.28419e-05
1.69023e-05
1.24774e-05
9.18781e-06
6.74639e-06
4.93538e-06
3.58878e-06
2.57769e-06
1.79725e-06
1.15312e-06
5.44414e-07
-1.62204e-07
-1.17667e-06
-2.86562e-06
-5.90161e-06
-1.1544e-05
-2.21699e-05
-4.22803e-05
-8.04054e-05
-0.000152715
-0.000289856
-0.000549909
-0.0010429
-0.00197725
-0.00374758
-0.00710101
-0.0134516
-0.0254749
-0.048233
-0.0912998
-0.17278
-0.326903
-0.618368
-1.16945
-2.2112
-4.18009
-7.90055
-14.9295
-28.2068
-53.2824
-100.632
-190.027
-358.773
-677.258
-1278.26
-2412.22
-4551.42
-8586.44
-16196.3
-30546
300
300
300
300
300
300
300
300
300
300
300
300
300
300
300
300
300
299.999
299.999
299.999
299.999
299.998
299.998
299.997
299.996
299.995
299.994
299.992
299.99
299.987
299.984
299.981
299.976
299.971
299.964
299.957
299.947
299.937
299.924
299.908
299.891
299.87
299.845
299.817
299.784
299.746
299.703
299.652
299.595
299.529
299.454
299.369
299.273
299.163
299.04
298.902
298.747
298.573
298.378
298.161
297.92
297.653
297.356
297.028
296.666
296.267
295.828
295.347
294.819
294.243
293.613
292.927
292.18
291.369
290.489
289.536
288.506
287.394
286.196
284.906
283.52
282.033
280.44
278.736
276.916
274.975
272.908
270.709
268.376
265.902
263.283
260.516
257.596
254.52
251.285
247.889
244.33
240.606
236.716
232.661
228.441
224.058
219.515
214.814
209.959
204.957
199.813
194.533
189.126
183.601
177.966
172.233
166.413
160.518
154.56
148.552
142.51
136.447
130.378
124.32
118.287
112.296
106.364
100.506
94.7383
89.0774
83.5383
78.1358
72.8841
67.7962
62.884
58.1583
53.6286
49.3027
45.187
41.2861
37.6031
34.1395
30.8951
27.868
25.055
22.4515
20.0517
17.8486
15.8342
14
12.3365
10.834
9.4824
8.27142
7.19078
6.2303
5.38001
4.63023
3.97166
3.39546
2.89327
2.45725
2.08012
1.75515
1.47616
1.23754
1.03418
0.861502
0.715401
0.592222
0.488734
0.402089
0.329796
0.269681
0.219862
0.178712
0.144834
0.117033
0.094294
0.0757535
0.0606842
0.0484743
0.038612
0.0306701
0.0242941
0.0191907
0.0151178
0.0118771
0.00930589
0.00727185
0.00566733
0.00440522
0.00341522
0.00264084
0.00203678
0.00156688
0.00120232
0.00092025
0.000702591
0.000535077
0.000406493
0.00030805
0.000232878
0.000175622
0.000132123
9.91601e-05
7.42435e-05
5.5456e-05
4.13251e-05
3.07226e-05
2.27869e-05
1.68613e-05
1.24468e-05
9.16514e-06
6.7296e-06
4.92297e-06
3.57963e-06
2.57095e-06
1.79226e-06
1.14939e-06
5.41543e-07
-1.64565e-07
-1.17887e-06
-2.86809e-06
-5.90496e-06
-1.15492e-05
-2.21786e-05
-4.22955e-05
-8.04321e-05
-0.000152762
-0.00028994
-0.000550057
-0.00104316
-0.00197771
-0.00374839
-0.00710243
-0.013454
-0.0254792
-0.0482405
-0.0913128
-0.172802
-0.326941
-0.618433
-1.16956
-2.21139
-4.1804
-7.90106
-14.9304
-28.2081
-53.2844
-100.635
-190.031
-358.779
-677.265
-1278.26
-2412.21
-4551.39
-8586.34
-16196.1
-30545.3
300
300
300
300
300
300
300
300
300
300
300
300
300
300
300
300
299.999
299.999
299.999
299.999
299.999
299.998
299.998
299.997
299.996
299.995
299.994
299.992
299.99
299.987
299.984
299.981
299.976
299.971
299.964
299.956
299.947
299.936
299.923
299.908
299.89
299.869
299.845
299.816
299.783
299.745
299.701
299.651
299.593
299.527
299.452
299.367
299.27
299.161
299.038
298.899
298.743
298.569
298.375
298.158
297.916
297.648
297.352
297.023
296.661
296.263
295.824
295.343
294.817
294.241
293.612
292.927
292.181
291.372
290.494
289.544
288.516
287.407
286.212
284.927
283.545
282.063
280.476
278.778
276.965
275.031
272.971
270.782
268.457
265.993
263.385
260.629
257.721
254.657
251.436
248.053
244.507
240.796
236.921
232.88
228.674
224.304
219.774
215.086
210.244
205.253
200.119
194.849
189.451
183.933
178.304
172.576
166.759
160.865
154.907
148.898
142.852
136.784
130.709
124.643
118.601
112.6
106.656
100.786
95.0056
89.3309
83.7774
78.3603
73.0937
67.9907
63.0637
58.3233
53.7793
49.4395
45.3104
41.3968
37.7019
34.227
30.9721
27.9354
25.1136
22.5021
20.0951
17.8855
15.8654
14.0261
12.3582
10.8519
9.49703
8.28325
7.20025
6.23779
5.38585
4.63471
3.97505
3.39796
2.89506
2.45849
2.08093
1.75563
1.4764
1.2376
1.03412
0.86136
0.715206
0.592
0.488501
0.401858
0.329574
0.269474
0.219673
0.178542
0.144683
0.116902
0.0941805
0.0756562
0.0606015
0.0484047
0.0385537
0.0306217
0.0242541
0.0191578
0.015091
0.0118552
0.00928825
0.00725766
0.00565596
0.00439614
0.00340802
0.00263514
0.00203229
0.00156335
0.00119956
0.000918103
0.000700924
0.000533787
0.000405499
0.000307286
0.000232292
0.000175174
0.000131783
9.89017e-05
7.40479e-05
5.53085e-05
4.12141e-05
3.06394e-05
2.27246e-05
1.68148e-05
1.24123e-05
9.13949e-06
6.71061e-06
4.90895e-06
3.56929e-06
2.56332e-06
1.78662e-06
1.14516e-06
5.38263e-07
-1.673e-07
-1.18148e-06
-2.87111e-06
-5.90918e-06
-1.15559e-05
-2.21899e-05
-4.23152e-05
-8.0467e-05
-0.000152824
-0.00029005
-0.000550252
-0.00104351
-0.00197832
-0.00374947
-0.00710432
-0.0134574
-0.0254851
-0.0482506
-0.0913304
-0.172833
-0.326994
-0.618524
-1.16972
-2.21165
-4.18084
-7.9018
-14.9316
-28.2102
-53.2877
-100.64
-190.039
-358.791
-677.282
-1278.29
-2412.24
-4551.4
-8586.31
-16195.9
-30544.8
300
300
300
300
300
300
300
300
300
300
300
300
300
300
300
300
299.999
299.999
299.999
299.999
299.999
299.998
299.998
299.997
299.996
299.995
299.993
299.992
299.99
299.987
299.984
299.98
299.976
299.971
299.964
299.956
299.947
299.936
299.923
299.908
299.89
299.869
299.844
299.815
299.782
299.744
299.7
299.65
299.592
299.525
299.45
299.365
299.268
299.158
299.034
298.895
298.739
298.565
298.37
298.153
297.911
297.643
297.346
297.018
296.656
296.257
295.819
295.338
294.812
294.236
293.609
292.925
292.181
291.373
290.497
289.549
288.525
287.42
286.229
284.948
283.571
282.095
280.514
278.823
277.017
275.092
273.042
270.863
268.549
266.096
263.501
260.758
257.863
254.814
251.608
248.241
244.711
241.017
237.158
233.133
228.944
224.591
220.077
215.404
210.577
205.6
200.48
195.222
189.834
184.325
178.704
172.981
167.168
161.276
155.318
149.307
143.258
137.185
131.103
125.028
118.976
112.963
107.006
101.121
95.325
89.6339
84.0635
78.629
73.3446
68.2238
63.279
58.5212
53.96
49.6036
45.4586
41.5298
37.8205
34.3322
31.0648
28.0165
25.1842
22.5631
20.1474
17.9301
15.9031
14.0578
12.3846
10.8737
9.51483
8.29768
7.21182
6.24697
5.39304
4.64027
3.97926
3.4011
2.89734
2.46009
2.082
1.7563
1.47677
1.23775
1.03411
0.861243
0.715021
0.591775
0.488257
0.40161
0.329334
0.269248
0.219465
0.178354
0.144517
0.116756
0.0940535
0.0755472
0.0605087
0.0483264
0.0384881
0.0305671
0.024209
0.0191207
0.0150606
0.0118306
0.0092683
0.0072416
0.00564309
0.00438588
0.00339986
0.00262869
0.00202721
0.00155936
0.00119644
0.000915673
0.000699038
0.000532328
0.000404374
0.000306422
0.00023163
0.000174669
0.000131398
9.86097e-05
7.38271e-05
5.51419e-05
4.10888e-05
3.05454e-05
2.26543e-05
1.67624e-05
1.23733e-05
9.11059e-06
6.68923e-06
4.89316e-06
3.55765e-06
2.55474e-06
1.78026e-06
1.14039e-06
5.34549e-07
-1.70428e-07
-1.18452e-06
-2.8747e-06
-5.91426e-06
-1.1564e-05
-2.22038e-05
-4.23395e-05
-8.051e-05
-0.0001529
-0.000290186
-0.000550493
-0.00104394
-0.00197908
-0.00375081
-0.00710668
-0.0134615
-0.0254924
-0.0482634
-0.0913528
-0.172872
-0.327061
-0.618641
-1.16992
-2.21199
-4.18142
-7.90279
-14.9332
-28.2129
-53.2922
-100.648
-190.051
-358.809
-677.308
-1278.32
-2412.28
-4551.45
-8586.33
-16195.8
-30544.4
300
300
300
300
300
300
300
300
300
300
300
300
300
300
300
300
299.999
299.999
299.999
299.999
299.999
299.998
299.998
299.997
299.996
299.995
299.993
299.992
299.99
299.987
299.984
299.98
299.976
299.97
299.964
299.956
299.947
299.936
299.923
299.907
299.889
299.868
299.843
299.814
299.781
299.743
299.699
299.648
299.589
299.523
299.447
299.361
299.264
299.154
299.03
298.891
298.734
298.559
298.364
298.146
297.904
297.635
297.338
297.01
296.647
296.248
295.81
295.33
294.804
294.229
293.602
292.919
292.177
291.371
290.497
289.552
288.531
287.429
286.242
284.966
283.595
282.125
280.551
278.868
277.071
275.155
273.115
270.947
268.645
266.206
263.624
260.896
258.018
254.986
251.796
248.447
244.936
241.261
237.421
233.416
229.246
224.912
220.417
215.763
210.953
205.993
200.888
195.644
190.268
184.77
179.158
173.443
167.635
161.746
155.789
149.777
143.724
137.645
131.556
125.471
119.407
113.38
107.408
101.507
95.6935
89.9838
84.3939
78.9393
73.6346
68.4933
63.528
58.75
54.1691
49.7935
45.6301
41.6838
37.9579
34.454
31.1721
28.1105
25.2659
22.6337
20.208
17.9817
15.9468
14.0944
12.4151
10.8988
9.53543
8.31437
7.22521
6.25759
5.40136
4.64669
3.98414
3.40473
2.89998
2.46194
2.08325
1.75708
1.47721
1.23793
1.03411
0.861117
0.714815
0.591521
0.487981
0.40133
0.329062
0.268992
0.219229
0.178141
0.144327
0.116589
0.0939093
0.0754234
0.0604034
0.0482375
0.0384136
0.0305051
0.0241577
0.0190786
0.0150262
0.0118026
0.0092457
0.00722341
0.00562852
0.00437426
0.00339064
0.0026214
0.00202146
0.00155485
0.00119292
0.000912929
0.000696908
0.000530681
0.000403105
0.000305447
0.000230883
0.000174099
0.000130964
9.8281e-05
7.35785e-05
5.49545e-05
4.09479e-05
3.04398e-05
2.25754e-05
1.67036e-05
1.23296e-05
9.07816e-06
6.66524e-06
4.87546e-06
3.5446e-06
2.54512e-06
1.77314e-06
1.13503e-06
5.30369e-07
-1.7397e-07
-1.188e-06
-2.87886e-06
-5.9202e-06
-1.15736e-05
-2.22202e-05
-4.23682e-05
-8.05608e-05
-0.000152991
-0.000290347
-0.000550779
-0.00104445
-0.00197998
-0.0037524
-0.00710951
-0.0134665
-0.0255011
-0.0482788
-0.0913797
-0.172919
-0.327143
-0.618783
-1.17016
-2.21241
-4.18214
-7.904
-14.9353
-28.2163
-53.2978
-100.657
-190.065
-358.832
-677.344
-1278.38
-2412.35
-4551.54
-8586.4
-16195.8
-30544.1
300
300
300
300
300
300
300
300
300
300
300
300
300
300
300
300
299.999
299.999
299.999
299.999
299.998
299.998
299.997
299.997
299.996
299.995
299.993
299.992
299.99
299.987
299.984
299.98
299.976
299.97
299.964
299.956
299.946
299.935
299.922
299.906
299.888
299.867
299.842
299.813
299.78
299.741
299.697
299.645
299.587
299.52
299.444
299.358
299.26
299.149
299.025
298.885
298.728
298.552
298.356
298.137
297.895
297.626
297.328
296.999
296.636
296.237
295.798
295.318
294.792
294.217
293.591
292.909
292.168
291.363
290.492
289.549
288.53
287.432
286.25
284.978
283.613
282.149
280.583
278.908
277.12
275.214
273.186
271.03
268.741
266.316
263.75
261.039
258.178
255.164
251.994
248.665
245.174
241.52
237.702
233.719
229.572
225.26
220.786
216.153
211.364
206.423
201.335
196.108
190.748
185.263
179.662
173.955
168.154
162.269
156.313
150.301
144.245
138.16
132.062
125.966
119.89
113.849
107.86
101.941
96.1075
90.377
84.7655
79.2885
73.9609
68.7966
63.8083
59.0076
54.4044
50.0073
45.8231
41.857
38.1124
34.591
31.2928
28.2161
25.3576
22.7129
20.2759
18.0395
15.9956
14.1354
12.4491
10.9269
9.55838
8.33294
7.24008
6.26936
5.41056
4.65378
3.9895
3.4087
2.90285
2.46394
2.08457
1.7579
1.47764
1.23808
1.03406
0.860939
0.714553
0.591212
0.487652
0.400999
0.328742
0.268693
0.218955
0.177894
0.144108
0.116398
0.0937437
0.0752815
0.0602829
0.0481359
0.0383286
0.0304345
0.0240994
0.0190307
0.0149872
0.0117709
0.00922006
0.00720279
0.00561201
0.00436111
0.0033802
0.00261315
0.00201497
0.00154976
0.00118894
0.000909833
0.000694507
0.000528825
0.000401675
0.000304349
0.000230044
0.000173459
0.000130477
9.79118e-05
7.32994e-05
5.47442e-05
4.07899e-05
3.03214e-05
2.24869e-05
1.66377e-05
1.22806e-05
9.04186e-06
6.63841e-06
4.85567e-06
3.53002e-06
2.53437e-06
1.76518e-06
1.12905e-06
5.2569e-07
-1.7795e-07
-1.19193e-06
-2.88359e-06
-5.92701e-06
-1.15845e-05
-2.2239e-05
-4.24013e-05
-8.06195e-05
-0.000153095
-0.000290533
-0.00055111
-0.00104503
-0.00198102
-0.00375426
-0.00711278
-0.0134723
-0.0255113
-0.0482967
-0.0914111
-0.172974
-0.327238
-0.618948
-1.17045
-2.21291
-4.18299
-7.90545
-14.9377
-28.2204
-53.3047
-100.668
-190.084
-358.861
-677.388
-1278.44
-2412.45
-4551.66
-8586.53
-16195.8
-30543.8
300
300
300
300
300
300
300
300
300
300
300
300
300
300
300
300
299.999
299.999
299.999
299.999
299.998
299.998
299.997
299.997
299.996
299.995
299.993
299.992
299.99
299.987
299.984
299.98
299.975
299.97
299.963
299.955
299.946
299.935
299.921
299.906
299.887
299.866
299.841
299.812
299.778
299.739
299.694
299.643
299.584
299.516
299.44
299.353
299.254
299.143
299.018
298.877
298.719
298.543
298.346
298.126
297.883
297.613
297.314
296.984
296.62
296.22
295.781
295.3
294.774
294.199
293.573
292.891
292.151
291.347
290.477
289.537
288.521
287.426
286.247
284.98
283.621
282.164
280.604
278.938
277.159
275.264
273.247
271.104
268.83
266.42
263.871
261.177
258.335
255.341
252.192
248.885
245.417
241.787
237.993
234.035
229.912
225.625
221.176
216.566
211.8
206.881
201.814
196.606
191.263
185.793
180.205
174.509
168.716
162.837
156.884
150.871
144.813
138.722
132.616
126.51
120.42
114.363
108.357
102.418
96.5631
90.8099
85.1746
79.6731
74.3204
69.1308
64.1172
59.2915
54.6637
50.2428
46.0357
42.0477
38.2824
34.7416
31.4253
28.3319
25.4583
22.7997
20.3502
18.1027
16.0489
14.1799
12.4861
10.9574
9.58319
8.35296
7.25606
6.28195
5.42035
4.66126
3.99512
3.41283
2.90578
2.46595
2.08586
1.75864
1.47798
1.23814
1.03392
0.860664
0.714198
0.590816
0.487242
0.400596
0.328358
0.268336
0.218631
0.177605
0.143853
0.116176
0.093552
0.0751177
0.0601441
0.0480192
0.0382312
0.0303537
0.0240328
0.0189761
0.0149427
0.0117348
0.00919093
0.0071794
0.00559331
0.00434622
0.0033684
0.00260383
0.00200764
0.00154402
0.00118446
0.000906347
0.000691805
0.000526738
0.000400069
0.000303117
0.000229101
0.00017274
0.000129931
9.7498e-05
7.29868e-05
5.45087e-05
4.06131e-05
3.0189e-05
2.2388e-05
1.6564e-05
1.22259e-05
9.00134e-06
6.60847e-06
4.83359e-06
3.51376e-06
2.52239e-06
1.75631e-06
1.12238e-06
5.20473e-07
-1.82393e-07
-1.19633e-06
-2.8889e-06
-5.93467e-06
-1.15969e-05
-2.22602e-05
-4.24386e-05
-8.06859e-05
-0.000153213
-0.000290743
-0.000551485
-0.0010457
-0.00198221
-0.00375636
-0.0071165
-0.0134788
-0.0255229
-0.048317
-0.0914468
-0.173036
-0.327348
-0.619138
-1.17078
-2.21347
-4.18396
-7.90711
-14.9405
-28.2252
-53.3126
-100.681
-190.105
-358.895
-677.441
-1278.52
-2412.56
-4551.81
-8586.69
-16195.9
-30543.7
300
300
300
300
300
300
300
300
300
300
300
300
300
300
300
300
299.999
299.999
299.999
299.999
299.998
299.998
299.997
299.997
299.996
299.995
299.993
299.992
299.99
299.987
299.984
299.98
299.975
299.97
299.963
299.955
299.945
299.934
299.921
299.905
299.886
299.865
299.839
299.81
299.776
299.737
299.691
299.639
299.58
299.512
299.435
299.347
299.248
299.136
299.009
298.868
298.709
298.531
298.333
298.112
297.867
297.596
297.296
296.964
296.599
296.198
295.758
295.276
294.748
294.173
293.546
292.864
292.123
291.32
290.451
289.512
288.498
287.406
286.23
284.968
283.613
282.162
280.61
278.951
277.182
275.297
273.292
271.162
268.903
266.509
263.977
261.302
258.48
255.507
252.381
249.098
245.655
242.051
238.283
234.352
230.256
225.996
221.574
216.991
212.251
207.357
202.314
197.127
191.804
186.352
180.78
175.097
169.314
163.442
157.493
151.482
145.421
139.325
133.211
127.094
120.99
114.917
108.892
102.932
97.0553
91.278
85.6172
80.0893
74.7096
69.4926
64.4516
59.5986
54.9443
50.4975
46.2654
42.2537
38.4659
34.904
31.5681
28.4566
25.5664
22.8928
20.4298
18.1702
16.1057
14.2274
12.5254
10.9896
9.6093
8.37393
7.2727
6.29498
5.4304
4.66887
4.00077
3.41689
2.9086
2.46781
2.08699
1.75922
1.47815
1.23803
1.03362
0.860239
0.713706
0.590296
0.486722
0.400096
0.32789
0.267908
0.218245
0.177263
0.143553
0.115916
0.0933287
0.0749277
0.0599837
0.0478848
0.0381193
0.0302611
0.0239566
0.0189138
0.014892
0.0116938
0.00915786
0.00715287
0.00557213
0.00432938
0.00335506
0.00259331
0.00199938
0.00153755
0.00117941
0.000902427
0.000688769
0.000524395
0.000398267
0.000301735
0.000228045
0.000171935
0.00012932
9.70352e-05
7.26374e-05
5.42457e-05
4.04156e-05
3.00412e-05
2.22777e-05
1.64819e-05
1.21649e-05
8.9562e-06
6.57513e-06
4.80901e-06
3.49567e-06
2.50907e-06
1.74645e-06
1.11497e-06
5.14678e-07
-1.87328e-07
-1.20122e-06
-2.8948e-06
-5.94319e-06
-1.16107e-05
-2.22839e-05
-4.24802e-05
-8.07597e-05
-0.000153345
-0.000290978
-0.000551903
-0.00104644
-0.00198353
-0.0037587
-0.00712065
-0.0134862
-0.0255358
-0.0483398
-0.0914868
-0.173106
-0.32747
-0.619351
-1.17115
-2.21411
-4.18505
-7.90898
-14.9437
-28.2305
-53.3215
-100.696
-190.129
-358.933
-677.502
-1278.61
-2412.7
-4551.99
-8586.91
-16196.1
-30543.6
300
300
300
300
300
300
300
300
300
300
300
300
300
300
300
300
299.999
299.999
299.999
299.999
299.998
299.998
299.997
299.997
299.996
299.995
299.993
299.992
299.989
299.987
299.984
299.98
299.975
299.969
299.963
299.955
299.945
299.933
299.92
299.904
299.885
299.863
299.838
299.808
299.773
299.734
299.688
299.635
299.575
299.507
299.428
299.34
299.24
299.126
298.999
298.856
298.695
298.516
298.316
298.094
297.847
297.574
297.272
296.938
296.571
296.168
295.726
295.242
294.713
294.135
293.507
292.824
292.082
291.279
290.409
289.47
288.457
287.367
286.194
284.934
283.584
282.138
280.592
278.941
277.18
275.306
273.312
271.196
268.951
266.573
264.058
261.403
258.602
255.652
252.549
249.291
245.875
242.299
238.56
234.657
230.591
226.362
221.969
217.416
212.704
207.838
202.821
197.66
192.36
186.928
181.374
175.707
169.936
164.073
158.131
152.122
146.06
139.961
133.84
127.712
121.595
115.505
109.461
103.48
97.5788
91.7761
86.0885
80.5326
75.1241
69.878
64.8078
59.9258
55.243
50.7685
46.5098
42.4725
38.6607
35.0761
31.7192
28.5884
25.6805
22.9908
20.5134
18.2409
16.165
14.2767
12.5661
11.0227
9.6361
8.39531
7.28953
6.30804
5.44035
4.6763
4.00616
3.42068
2.91113
2.46936
2.08781
1.7595
1.47805
1.23766
1.03308
0.85961
0.713032
0.589615
0.486062
0.399474
0.327317
0.267389
0.217783
0.176856
0.1432
0.115611
0.0930685
0.0747072
0.0597982
0.0477298
0.0379906
0.0301549
0.0238696
0.0188427
0.0148342
0.0116471
0.00912034
0.00712282
0.00554817
0.00431035
0.00334001
0.00258145
0.00199007
0.00153028
0.00117375
0.000898026
0.000685364
0.00052177
0.000396248
0.000300189
0.000226864
0.000171036
0.000128638
9.65187e-05
7.22477e-05
5.39525e-05
4.01957e-05
2.98766e-05
2.2155e-05
1.63906e-05
1.20971e-05
8.90604e-06
6.53809e-06
4.78172e-06
3.47559e-06
2.49429e-06
1.73552e-06
1.10675e-06
5.08262e-07
-1.92784e-07
-1.20662e-06
-2.9013e-06
-5.95256e-06
-1.16259e-05
-2.23099e-05
-4.25259e-05
-8.08408e-05
-0.00015349
-0.000291236
-0.000552362
-0.00104726
-0.00198498
-0.00376128
-0.00712521
-0.0134943
-0.0255501
-0.0483649
-0.0915308
-0.173183
-0.327605
-0.619586
-1.17156
-2.21481
-4.18627
-7.91105
-14.9472
-28.2365
-53.3315
-100.712
-190.156
-358.977
-677.57
-1278.72
-2412.85
-4552.21
-8587.17
-16196.3
-30543.6
300
300
300
300
300
300
300
300
300
300
300
300
300
300
300
300
299.999
299.999
299.999
299.999
299.998
299.998
299.997
299.997
299.996
299.995
299.993
299.991
299.989
299.987
299.983
299.98
299.975
299.969
299.962
299.954
299.944
299.933
299.919
299.903
299.884
299.861
299.836
299.805
299.77
299.73
299.684
299.63
299.57
299.5
299.421
299.331
299.23
299.115
298.986
298.841
298.679
298.498
298.296
298.071
297.822
297.546
297.241
296.905
296.535
296.129
295.683
295.196
294.664
294.084
293.453
292.767
292.023
291.217
290.347
289.406
288.393
287.303
286.131
284.873
283.525
282.083
280.542
278.898
277.145
275.28
273.297
271.193
268.962
266.6
264.104
261.467
258.688
255.761
252.684
249.452
246.064
242.517
238.808
234.937
230.903
226.706
222.347
217.826
213.146
208.311
203.324
198.19
192.916
187.509
181.976
176.327
170.571
164.72
158.786
152.782
146.722
140.62
134.492
128.355
122.225
116.119
110.056
104.052
98.1274
92.2985
86.583
80.998
75.5595
70.2827
65.1818
60.2693
55.5564
51.0527
46.7657
42.7016
38.8642
35.2558
31.8767
28.7254
25.7988
23.0922
20.5996
18.3135
16.2258
14.327
12.6073
11.0562
9.66288
8.41649
7.30603
6.32067
5.44981
4.68321
4.01102
3.42393
2.91314
2.47043
2.08818
1.75937
1.47758
1.23696
1.03225
0.858714
0.712125
0.588733
0.485228
0.398703
0.326618
0.266764
0.217231
0.176374
0.142783
0.115254
0.0927651
0.0744513
0.0595838
0.0475513
0.0378429
0.0300334
0.0237701
0.0187617
0.0147686
0.0115942
0.00907783
0.00708883
0.00552111
0.00428889
0.00332306
0.00256812
0.00197962
0.00152211
0.00116739
0.000893097
0.000681554
0.000518834
0.000393994
0.000298463
0.000225547
0.000170034
0.000127877
9.59436e-05
7.1814e-05
5.36264e-05
3.99512e-05
2.96938e-05
2.20186e-05
1.62892e-05
1.20219e-05
8.85041e-06
6.49703e-06
4.75149e-06
3.45336e-06
2.47793e-06
1.72342e-06
1.09767e-06
5.0118e-07
-1.9879e-07
-1.21253e-06
-2.9084e-06
-5.96277e-06
-1.16424e-05
-2.23381e-05
-4.25756e-05
-8.09291e-05
-0.000153647
-0.000291516
-0.000552862
-0.00104815
-0.00198656
-0.00376408
-0.00713019
-0.0135031
-0.0255656
-0.0483923
-0.0915789
-0.173268
-0.327752
-0.619842
-1.172
-2.21558
-4.18759
-7.91332
-14.9511
-28.243
-53.3424
-100.731
-190.186
-359.025
-677.646
-1278.84
-2413.02
-4552.45
-8587.47
-16196.6
-30543.7
300
300
300
300
300
300
300
300
300
300
300
300
300
300
300
300
299.999
299.999
299.999
299.999
299.998
299.998
299.997
299.997
299.996
299.995
299.993
299.991
299.989
299.987
299.983
299.979
299.974
299.969
299.962
299.953
299.943
299.932
299.918
299.901
299.882
299.859
299.833
299.802