/*--------------------------------*- C++ -*----------------------------------*\
| =========                 |                                                 |
| \\      /  F ield         | OpenFOAM: The Open Source CFD Toolbox           |
|  \\    /   O peration     | Version:  2306                                  |
|   \\  /    A nd           | Website:  www.openfoam.com                      |
|    \\/     M anipulation  |                                                 |
\*---------------------------------------------------------------------------*/
FoamFile
{
    version     2.0;
    format      ascii;
    arch        "LSB;label=32;scalar=64";
    class       volVectorField;
    location    "3";
    object      U;
}
// * * * * * * * * * * * * * * * * * * * * * * * * * * * * * * * * * * * * * //

dimensions      [0 1 -1 0 0 0 0];

internalField   nonuniform List<vector> 
32768
(
(1.00001 -3.98265e-05 0)
(1.00017 -0.000119639 0)
(1.00048 -0.000199553 0)
(1.00096 -0.000279569 0)
(1.0016 -0.000359785 0)
(1.0024 -0.000440292 0)
(1.00336 -0.000521151 0)
(1.00448 -0.000602412 0)
(1.00577 -0.000684131 0)
(1.00722 -0.000766362 0)
(1.00884 -0.000849156 0)
(1.01062 -0.000932555 0)
(1.01257 -0.00101659 0)
(1.01469 -0.0011013 0)
(1.01697 -0.0011867 0)
(1.01943 -0.0012728 0)
(1.02206 -0.00135961 0)
(1.02487 -0.00144711 0)
(1.02785 -0.00153528 0)
(1.03101 -0.0016241 0)
(1.03435 -0.00171352 0)
(1.03787 -0.00180348 0)
(1.04157 -0.00189392 0)
(1.04544 -0.00198474 0)
(1.04951 -0.00207585 0)
(1.05375 -0.00216713 0)
(1.05817 -0.00225845 0)
(1.06278 -0.00234967 0)
(1.06757 -0.00244062 0)
(1.07255 -0.00253112 0)
(1.0777 -0.00262098 0)
(1.08303 -0.00270998 0)
(1.08854 -0.00279792 0)
(1.09423 -0.00288453 0)
(1.10008 -0.00296959 0)
(1.10611 -0.00305281 0)
(1.1123 -0.00313393 0)
(1.11865 -0.00321267 0)
(1.12515 -0.00328874 0)
(1.1318 -0.00336184 0)
(1.1386 -0.00343167 0)
(1.14553 -0.00349795 0)
(1.1526 -0.00356038 0)
(1.15978 -0.00361866 0)
(1.16707 -0.00367251 0)
(1.17447 -0.00372167 0)
(1.18197 -0.00376588 0)
(1.18954 -0.00380488 0)
(1.19719 -0.00383846 0)
(1.2049 -0.00386639 0)
(1.21266 -0.0038885 0)
(1.22046 -0.00390461 0)
(1.22828 -0.00391459 0)
(1.23612 -0.00391831 0)
(1.24396 -0.00391568 0)
(1.25179 -0.00390663 0)
(1.2596 -0.00389112 0)
(1.26736 -0.00386912 0)
(1.27508 -0.00384064 0)
(1.28273 -0.00380571 0)
(1.29031 -0.00376436 0)
(1.29779 -0.00371666 0)
(1.30518 -0.00366271 0)
(1.31245 -0.0036026 0)
(1.31959 -0.00353644 0)
(1.3266 -0.00346436 0)
(1.33346 -0.0033865 0)
(1.34015 -0.003303 0)
(1.34667 -0.00321402 0)
(1.35301 -0.00311972 0)
(1.35916 -0.00302025 0)
(1.3651 -0.00291578 0)
(1.37082 -0.00280647 0)
(1.37633 -0.0026925 0)
(1.3816 -0.00257401 0)
(1.38662 -0.00245118 0)
(1.3914 -0.00232416 0)
(1.39592 -0.00219312 0)
(1.40018 -0.00205821 0)
(1.40416 -0.00191959 0)
(1.40786 -0.00177741 0)
(1.41127 -0.00163185 0)
(1.41439 -0.00148307 0)
(1.41721 -0.00133123 0)
(1.41972 -0.00117652 0)
(1.42191 -0.00101914 0)
(1.42379 -0.000859298 0)
(1.42535 -0.000697239 0)
(1.42658 -0.000533235 0)
(1.42749 -0.000367601 0)
(1.42805 -0.000200697 0)
(1.42829 -3.29341e-05 0)
(1.42819 0.000135198 0)
(1.42775 0.000303167 0)
(1.42697 0.000470373 0)
(1.42587 0.000636151 0)
(1.42443 0.000799779 0)
(1.42267 0.000960497 0)
(1.42059 0.00111752 0)
(1.41819 0.00127007 0)
(1.4155 0.00141739 0)
(1.41252 0.00155876 0)
(1.40926 0.00169358 0)
(1.40574 0.00182132 0)
(1.40198 0.00194161 0)
(1.39797 0.00205424 0)
(1.39375 0.00215914 0)
(1.38933 0.00225642 0)
(1.38472 0.00234635 0)
(1.37994 0.00242934 0)
(1.37499 0.00250593 0)
(1.3699 0.00257673 0)
(1.36468 0.00264243 0)
(1.35933 0.0027037 0)
(1.35385 0.0027612 0)
(1.34827 0.00281553 0)
(1.34258 0.0028672 0)
(1.33679 0.00291661 0)
(1.33091 0.002964 0)
(1.32493 0.00300951 0)
(1.31886 0.00305313 0)
(1.3127 0.00309471 0)
(1.30647 0.00313401 0)
(1.30016 0.00317071 0)
(1.29378 0.00320441 0)
(1.28733 0.00323469 0)
(1.28083 0.00326113 0)
(1.27428 0.00328331 0)
(1.26769 0.00330085 0)
(1.26107 0.00331344 0)
(1.25442 0.00332082 0)
(1.24777 0.00332281 0)
(1.24113 0.00331931 0)
(1.23449 0.00331029 0)
(1.22788 0.0032958 0)
(1.2213 0.00327594 0)
(1.21477 0.00325089 0)
(1.20829 0.00322086 0)
(1.20188 0.00318611 0)
(1.19554 0.00314695 0)
(1.18929 0.00310367 0)
(1.18312 0.00305661 0)
(1.17706 0.00300612 0)
(1.1711 0.00295252 0)
(1.16525 0.00289617 0)
(1.15951 0.00283739 0)
(1.15389 0.00277651 0)
(1.1484 0.00271386 0)
(1.14304 0.00264972 0)
(1.1378 0.0025844 0)
(1.1327 0.00251815 0)
(1.12773 0.00245124 0)
(1.12289 0.0023839 0)
(1.11819 0.00231636 0)
(1.11363 0.00224882 0)
(1.1092 0.00218147 0)
(1.1049 0.00211448 0)
(1.10074 0.00204802 0)
(1.09671 0.00198223 0)
(1.09281 0.00191723 0)
(1.08904 0.00185314 0)
(1.0854 0.00179006 0)
(1.08189 0.00172808 0)
(1.07849 0.00166729 0)
(1.07522 0.00160773 0)
(1.07206 0.00154948 0)
(1.06902 0.00149258 0)
(1.06609 0.00143707 0)
(1.06328 0.00138297 0)
(1.06056 0.00133032 0)
(1.05796 0.00127912 0)
(1.05545 0.00122939 0)
(1.05304 0.00118112 0)
(1.05073 0.00113433 0)
(1.0485 0.00108899 0)
(1.04637 0.00104511 0)
(1.04433 0.00100267 0)
(1.04236 0.000961643 0)
(1.04048 0.000922019 0)
(1.03868 0.000883772 0)
(1.03695 0.000846877 0)
(1.03529 0.000811309 0)
(1.0337 0.000777037 0)
(1.03218 0.000744033 0)
(1.03073 0.000712266 0)
(1.02934 0.000681705 0)
(1.028 0.000652316 0)
(1.02673 0.000624069 0)
(1.02551 0.000596928 0)
(1.02434 0.000570863 0)
(1.02322 0.000545839 0)
(1.02216 0.000521823 0)
(1.02114 0.000498784 0)
(1.02016 0.000476688 0)
(1.01923 0.000455504 0)
(1.01834 0.0004352 0)
(1.01749 0.000415746 0)
(1.01668 0.00039711 0)
(1.01591 0.000379264 0)
(1.01516 0.000362178 0)
(1.01446 0.000345825 0)
(1.01378 0.000330175 0)
(1.01314 0.000315203 0)
(1.01252 0.000300883 0)
(1.01193 0.000287188 0)
(1.01137 0.000274095 0)
(1.01084 0.000261579 0)
(1.01033 0.000249618 0)
(1.00984 0.000238188 0)
(1.00938 0.00022727 0)
(1.00893 0.00021684 0)
(1.00851 0.000206881 0)
(1.00811 0.000197371 0)
(1.00772 0.000188293 0)
(1.00735 0.000179627 0)
(1.007 0.000171358 0)
(1.00667 0.000163468 0)
(1.00635 0.000155941 0)
(1.00604 0.000148761 0)
(1.00575 0.000141915 0)
(1.00548 0.000135386 0)
(1.00521 0.000129163 0)
(1.00496 0.000123232 0)
(1.00472 0.000117579 0)
(1.00449 0.000112194 0)
(1.00427 0.000107064 0)
(1.00406 0.000102179 0)
(1.00386 9.75278e-05 0)
(1.00367 9.31003e-05 0)
(1.00349 8.88869e-05 0)
(1.00332 8.48784e-05 0)
(1.00315 8.1066e-05 0)
(1.00299 7.74411e-05 0)
(1.00284 7.39958e-05 0)
(1.0027 7.07223e-05 0)
(1.00256 6.76134e-05 0)
(1.00243 6.46621e-05 0)
(1.0023 6.18617e-05 0)
(1.00218 5.92059e-05 0)
(1.00206 5.66888e-05 0)
(1.00195 5.43045e-05 0)
(1.00185 5.20476e-05 0)
(1.00175 4.99131e-05 0)
(1.00165 4.7896e-05 0)
(1.00155 4.59918e-05 0)
(1.00146 4.4196e-05 0)
(1.00138 4.25044e-05 0)
(1.00129 4.09134e-05 0)
(1.00121 3.94186e-05 0)
(1.00114 3.8018e-05 0)
(1.00106 3.67056e-05 0)
(1.00099 3.54818e-05 0)
(1.00092 3.43411e-05 0)
(1.00085 3.32632e-05 0)
(1.0008 3.23453e-05 0)
(1.00069 3.1155e-05 0)
(1.00001 -0.000119654 0)
(1.00017 -0.000359139 0)
(1.00048 -0.000598844 0)
(1.00096 -0.00083889 0)
(1.0016 -0.00107954 0)
(1.0024 -0.00132103 0)
(1.00336 -0.00156356 0)
(1.00448 -0.0018073 0)
(1.00577 -0.00205242 0)
(1.00722 -0.00229909 0)
(1.00883 -0.00254744 0)
(1.01061 -0.00279762 0)
(1.01256 -0.00304973 0)
(1.01468 -0.00330386 0)
(1.01696 -0.00356006 0)
(1.01942 -0.00381838 0)
(1.02205 -0.00407882 0)
(1.02486 -0.00434135 0)
(1.02784 -0.00460591 0)
(1.031 -0.00487243 0)
(1.03433 -0.00514075 0)
(1.03785 -0.00541071 0)
(1.04155 -0.00568211 0)
(1.04543 -0.00595468 0)
(1.04949 -0.00622813 0)
(1.05373 -0.0065021 0)
(1.05816 -0.00677621 0)
(1.06277 -0.00705002 0)
(1.06756 -0.00732303 0)
(1.07253 -0.00759472 0)
(1.07769 -0.00786449 0)
(1.08302 -0.00813172 0)
(1.08854 -0.00839574 0)
(1.09422 -0.00865582 0)
(1.10009 -0.00891121 0)
(1.10611 -0.00916112 0)
(1.11231 -0.00940473 0)
(1.11866 -0.0096412 0)
(1.12517 -0.00986965 0)
(1.13184 -0.0100892 0)
(1.13864 -0.0102989 0)
(1.14558 -0.010498 0)
(1.15265 -0.0106855 0)
(1.15984 -0.0108606 0)
(1.16715 -0.0110224 0)
(1.17456 -0.0111701 0)
(1.18206 -0.0113029 0)
(1.18965 -0.01142 0)
(1.19731 -0.0115209 0)
(1.20503 -0.0116048 0)
(1.21281 -0.0116713 0)
(1.22062 -0.0117197 0)
(1.22846 -0.0117497 0)
(1.23631 -0.0117609 0)
(1.24416 -0.011753 0)
(1.252 -0.0117259 0)
(1.25982 -0.0116793 0)
(1.2676 -0.0116132 0)
(1.27533 -0.0115277 0)
(1.28299 -0.0114228 0)
(1.29058 -0.0112987 0)
(1.29808 -0.0111555 0)
(1.30548 -0.0109935 0)
(1.31277 -0.010813 0)
(1.31992 -0.0106143 0)
(1.32694 -0.0103979 0)
(1.33381 -0.0101642 0)
(1.34051 -0.0099135 0)
(1.34705 -0.00964638 0)
(1.3534 -0.00936328 0)
(1.35955 -0.00906469 0)
(1.3655 -0.0087511 0)
(1.37124 -0.008423 0)
(1.37675 -0.00808089 0)
(1.38203 -0.00772526 0)
(1.38707 -0.00735659 0)
(1.39185 -0.00697537 0)
(1.39638 -0.00658207 0)
(1.40065 -0.00617718 0)
(1.40463 -0.00576116 0)
(1.40834 -0.00533449 0)
(1.41176 -0.00489765 0)
(1.41488 -0.00445114 0)
(1.41771 -0.00399548 0)
(1.42022 -0.00353119 0)
(1.42243 -0.00305888 0)
(1.42431 -0.00257919 0)
(1.42587 -0.00209284 0)
(1.42711 -0.00160065 0)
(1.42802 -0.00110355 0)
(1.42859 -0.000602635 0)
(1.42883 -9.91274e-05 0)
(1.42873 0.00040552 0)
(1.42829 0.000909705 0)
(1.42752 0.00141163 0)
(1.42641 0.0019093 0)
(1.42497 0.00240055 0)
(1.42321 0.00288311 0)
(1.42113 0.00335463 0)
(1.41873 0.00381277 0)
(1.41604 0.00425523 0)
(1.41305 0.00467991 0)
(1.40979 0.00508493 0)
(1.40626 0.00546876 0)
(1.40248 0.00583026 0)
(1.39847 0.00616876 0)
(1.39424 0.00648407 0)
(1.3898 0.0067765 0)
(1.38518 0.00704685 0)
(1.38038 0.00729635 0)
(1.37542 0.00752659 0)
(1.37031 0.00773942 0)
(1.36506 0.00793685 0)
(1.35969 0.00812094 0)
(1.3542 0.00829366 0)
(1.34859 0.0084568 0)
(1.34288 0.0086119 0)
(1.33707 0.00876013 0)
(1.33116 0.00890227 0)
(1.32516 0.00903871 0)
(1.31907 0.0091694 0)
(1.3129 0.00929396 0)
(1.30664 0.00941166 0)
(1.30031 0.00952151 0)
(1.29391 0.00962235 0)
(1.28744 0.00971292 0)
(1.28092 0.00979192 0)
(1.27435 0.00985814 0)
(1.26775 0.00991044 0)
(1.26111 0.00994786 0)
(1.25445 0.00996964 0)
(1.24779 0.00997525 0)
(1.24112 0.00996438 0)
(1.23447 0.00993694 0)
(1.22785 0.00989307 0)
(1.22126 0.00983311 0)
(1.21472 0.00975757 0)
(1.20823 0.0096671 0)
(1.20181 0.00956249 0)
(1.19546 0.00944461 0)
(1.1892 0.00931441 0)
(1.18303 0.00917288 0)
(1.17695 0.00902104 0)
(1.17099 0.00885991 0)
(1.16513 0.00869052 0)
(1.15939 0.00851388 0)
(1.15377 0.00833096 0)
(1.14827 0.00814271 0)
(1.14291 0.00795004 0)
(1.13767 0.00775381 0)
(1.13257 0.00755483 0)
(1.12759 0.00735387 0)
(1.12276 0.00715166 0)
(1.11806 0.00694884 0)
(1.11349 0.00674605 0)
(1.10906 0.00654385 0)
(1.10477 0.00634276 0)
(1.10061 0.00614325 0)
(1.09658 0.00594576 0)
(1.09268 0.00575066 0)
(1.08892 0.0055583 0)
(1.08528 0.00536899 0)
(1.08176 0.00518299 0)
(1.07837 0.00500054 0)
(1.0751 0.00482184 0)
(1.07195 0.00464705 0)
(1.06891 0.00447632 0)
(1.06598 0.00430976 0)
(1.06317 0.00414746 0)
(1.06046 0.00398948 0)
(1.05785 0.00383588 0)
(1.05535 0.00368669 0)
(1.05294 0.0035419 0)
(1.05063 0.00340153 0)
(1.04841 0.00326554 0)
(1.04629 0.00313391 0)
(1.04424 0.0030066 0)
(1.04228 0.00288354 0)
(1.0404 0.0027647 0)
(1.0386 0.00264998 0)
(1.03687 0.00253933 0)
(1.03522 0.00243265 0)
(1.03364 0.00232987 0)
(1.03212 0.00223089 0)
(1.03067 0.00213562 0)
(1.02928 0.00204397 0)
(1.02794 0.00195584 0)
(1.02667 0.00187113 0)
(1.02545 0.00178974 0)
(1.02429 0.00171158 0)
(1.02318 0.00163654 0)
(1.02211 0.00156452 0)
(1.02109 0.00149544 0)
(1.02012 0.00142918 0)
(1.01919 0.00136566 0)
(1.0183 0.00130478 0)
(1.01746 0.00124645 0)
(1.01664 0.00119057 0)
(1.01587 0.00113706 0)
(1.01513 0.00108583 0)
(1.01443 0.00103679 0)
(1.01375 0.000989872 0)
(1.01311 0.000944982 0)
(1.01249 0.000902045 0)
(1.01191 0.000860985 0)
(1.01135 0.000821728 0)
(1.01081 0.000784204 0)
(1.0103 0.000748342 0)
(1.00982 0.000714075 0)
(1.00935 0.000681339 0)
(1.00891 0.000650071 0)
(1.00849 0.00062021 0)
(1.00809 0.000591699 0)
(1.0077 0.000564481 0)
(1.00734 0.000538503 0)
(1.00699 0.000513711 0)
(1.00665 0.000490056 0)
(1.00633 0.000467489 0)
(1.00603 0.000445965 0)
(1.00574 0.000425439 0)
(1.00546 0.000405868 0)
(1.0052 0.000387211 0)
(1.00495 0.000369428 0)
(1.00471 0.000352483 0)
(1.00448 0.000336338 0)
(1.00426 0.00032096 0)
(1.00405 0.000306314 0)
(1.00385 0.00029237 0)
(1.00366 0.000279097 0)
(1.00348 0.000266466 0)
(1.00331 0.000254449 0)
(1.00314 0.00024302 0)
(1.00299 0.000232153 0)
(1.00284 0.000221824 0)
(1.00269 0.000212011 0)
(1.00255 0.000202691 0)
(1.00242 0.000193844 0)
(1.0023 0.000185448 0)
(1.00217 0.000177487 0)
(1.00206 0.000169941 0)
(1.00195 0.000162793 0)
(1.00184 0.000156028 0)
(1.00174 0.000149629 0)
(1.00164 0.000143582 0)
(1.00155 0.000137874 0)
(1.00146 0.00013249 0)
(1.00137 0.00012742 0)
(1.00129 0.00012265 0)
(1.00121 0.00011817 0)
(1.00113 0.000113969 0)
(1.00106 0.00011004 0)
(1.00099 0.000106362 0)
(1.00092 0.000102968 0)
(1.00085 9.96942e-05 0)
(1.00079 9.70605e-05 0)
(1.00069 9.33432e-05 0)
(1.00001 -0.000199513 0)
(1.00017 -0.000598533 0)
(1.00048 -0.00099784 0)
(1.00096 -0.00139777 0)
(1.00159 -0.00179872 0)
(1.00239 -0.00220105 0)
(1.00335 -0.0026051 0)
(1.00447 -0.00301118 0)
(1.00576 -0.00341957 0)
(1.00721 -0.00383056 0)
(1.00882 -0.00424439 0)
(1.0106 -0.00466128 0)
(1.01254 -0.00508142 0)
(1.01466 -0.00550494 0)
(1.01694 -0.00593195 0)
(1.0194 -0.00636252 0)
(1.02203 -0.00679665 0)
(1.02483 -0.00723432 0)
(1.02781 -0.00767542 0)
(1.03097 -0.0081198 0)
(1.0343 -0.00856724 0)
(1.03782 -0.00901747 0)
(1.04151 -0.00947013 0)
(1.04539 -0.00992479 0)
(1.04945 -0.010381 0)
(1.0537 -0.0108381 0)
(1.05812 -0.0112955 0)
(1.06274 -0.0117524 0)
(1.06753 -0.012208 0)
(1.07251 -0.0126615 0)
(1.07767 -0.0131119 0)
(1.08301 -0.013558 0)
(1.08853 -0.0139989 0)
(1.09422 -0.0144332 0)
(1.10009 -0.0148597 0)
(1.10613 -0.0152772 0)
(1.11233 -0.0156841 0)
(1.1187 -0.0160792 0)
(1.12522 -0.0164609 0)
(1.1319 -0.0168278 0)
(1.13872 -0.0171784 0)
(1.14568 -0.0175111 0)
(1.15276 -0.0178246 0)
(1.15998 -0.0181173 0)
(1.1673 -0.0183878 0)
(1.17473 -0.0186347 0)
(1.18226 -0.0188568 0)
(1.18987 -0.0190528 0)
(1.19755 -0.0192216 0)
(1.2053 -0.0193621 0)
(1.21309 -0.0194733 0)
(1.22093 -0.0195544 0)
(1.2288 -0.0196047 0)
(1.23667 -0.0196237 0)
(1.24455 -0.0196107 0)
(1.25242 -0.0195656 0)
(1.26027 -0.0194879 0)
(1.26807 -0.0193778 0)
(1.27583 -0.0192351 0)
(1.28352 -0.0190601 0)
(1.29114 -0.0188529 0)
(1.29867 -0.0186138 0)
(1.30609 -0.0183434 0)
(1.3134 -0.0180422 0)
(1.32058 -0.0177106 0)
(1.32762 -0.0173494 0)
(1.33451 -0.0169592 0)
(1.34124 -0.0165409 0)
(1.3478 -0.0160951 0)
(1.35417 -0.0156227 0)
(1.36034 -0.0151244 0)
(1.36631 -0.0146011 0)
(1.37207 -0.0140537 0)
(1.3776 -0.0134829 0)
(1.3829 -0.0128896 0)
(1.38795 -0.0122746 0)
(1.39276 -0.0116387 0)
(1.3973 -0.0109826 0)
(1.40158 -0.0103072 0)
(1.40558 -0.00961334 0)
(1.4093 -0.00890169 0)
(1.41274 -0.0081731 0)
(1.41587 -0.00742838 0)
(1.41871 -0.0066684 0)
(1.42124 -0.00589405 0)
(1.42345 -0.0051063 0)
(1.42535 -0.00430623 0)
(1.42692 -0.00349504 0)
(1.42816 -0.00267407 0)
(1.42908 -0.00184488 0)
(1.42966 -0.00100926 0)
(1.4299 -0.000169268 0)
(1.42981 0.000672722 0)
(1.42938 0.00151404 0)
(1.42861 0.00235169 0)
(1.4275 0.00318237 0)
(1.42606 0.00400249 0)
(1.4243 0.00480826 0)
(1.42221 0.00559579 0)
(1.41981 0.00636114 0)
(1.41711 0.00710052 0)
(1.41411 0.0078104 0)
(1.41084 0.00848763 0)
(1.40729 0.00912962 0)
(1.40349 0.00973446 0)
(1.39946 0.010301 0)
(1.3952 0.0108288 0)
(1.39074 0.0113185 0)
(1.38609 0.0117712 0)
(1.38126 0.0121891 0)
(1.37626 0.0125747 0)
(1.37112 0.012931 0)
(1.36583 0.0132615 0)
(1.36042 0.0135694 0)
(1.35489 0.0138582 0)
(1.34924 0.0141307 0)
(1.34349 0.0143896 0)
(1.33763 0.0146368 0)
(1.33168 0.0148737 0)
(1.32564 0.0151008 0)
(1.3195 0.0153183 0)
(1.31329 0.0155253 0)
(1.30699 0.0157208 0)
(1.30062 0.0159031 0)
(1.29418 0.0160703 0)
(1.28767 0.0162202 0)
(1.28111 0.0163509 0)
(1.27451 0.0164602 0)
(1.26787 0.0165462 0)
(1.2612 0.0166074 0)
(1.25451 0.0166424 0)
(1.24781 0.0166505 0)
(1.24112 0.0166311 0)
(1.23444 0.016584 0)
(1.22779 0.0165096 0)
(1.22118 0.0164083 0)
(1.21461 0.016281 0)
(1.2081 0.0161289 0)
(1.20166 0.0159532 0)
(1.19529 0.0157554 0)
(1.18902 0.015537 0)
(1.18283 0.0152999 0)
(1.17674 0.0150455 0)
(1.17076 0.0147757 0)
(1.1649 0.0144922 0)
(1.15915 0.0141967 0)
(1.15352 0.0138908 0)
(1.14802 0.013576 0)
(1.14265 0.0132539 0)
(1.13741 0.0129259 0)
(1.1323 0.0125934 0)
(1.12732 0.0122577 0)
(1.12249 0.0119199 0)
(1.11779 0.0115812 0)
(1.11322 0.0112426 0)
(1.10879 0.010905 0)
(1.1045 0.0105693 0)
(1.10034 0.0102363 0)
(1.09632 0.00990673 0)
(1.09243 0.00958118 0)
(1.08866 0.00926025 0)
(1.08503 0.00894444 0)
(1.08152 0.00863418 0)
(1.07813 0.00832988 0)
(1.07486 0.00803185 0)
(1.07172 0.00774039 0)
(1.06868 0.00745571 0)
(1.06576 0.00717801 0)
(1.06295 0.00690744 0)
(1.06025 0.0066441 0)
(1.05765 0.00638808 0)
(1.05515 0.00613941 0)
(1.05275 0.00589811 0)
(1.05045 0.00566417 0)
(1.04824 0.00543757 0)
(1.04611 0.00521824 0)
(1.04407 0.00500611 0)
(1.04212 0.0048011 0)
(1.04025 0.0046031 0)
(1.03845 0.004412 0)
(1.03673 0.00422767 0)
(1.03508 0.00404998 0)
(1.0335 0.00387877 0)
(1.03199 0.00371391 0)
(1.03054 0.00355524 0)
(1.02916 0.0034026 0)
(1.02783 0.00325583 0)
(1.02656 0.00311476 0)
(1.02535 0.00297923 0)
(1.02419 0.00284907 0)
(1.02308 0.00272412 0)
(1.02202 0.00260421 0)
(1.021 0.00248917 0)
(1.02003 0.00237886 0)
(1.01911 0.0022731 0)
(1.01822 0.00217173 0)
(1.01738 0.00207462 0)
(1.01657 0.00198159 0)
(1.0158 0.00189251 0)
(1.01506 0.00180722 0)
(1.01436 0.00172559 0)
(1.01369 0.00164748 0)
(1.01305 0.00157275 0)
(1.01244 0.00150128 0)
(1.01185 0.00143293 0)
(1.0113 0.00136758 0)
(1.01077 0.00130512 0)
(1.01026 0.00124543 0)
(1.00977 0.00118839 0)
(1.00931 0.0011339 0)
(1.00887 0.00108186 0)
(1.00845 0.00103215 0)
(1.00805 0.0009847 0)
(1.00767 0.000939398 0)
(1.0073 0.000896159 0)
(1.00695 0.000854897 0)
(1.00662 0.000815527 0)
(1.0063 0.000777969 0)
(1.006 0.000742146 0)
(1.00571 0.000707984 0)
(1.00544 0.000675412 0)
(1.00518 0.000644361 0)
(1.00493 0.000614767 0)
(1.00469 0.000586565 0)
(1.00446 0.000559697 0)
(1.00424 0.000534104 0)
(1.00403 0.000509731 0)
(1.00384 0.000486525 0)
(1.00365 0.000464436 0)
(1.00347 0.000443416 0)
(1.00329 0.000423417 0)
(1.00313 0.000404397 0)
(1.00297 0.000386313 0)
(1.00282 0.000369125 0)
(1.00268 0.000352795 0)
(1.00254 0.000337285 0)
(1.00241 0.000322562 0)
(1.00228 0.000308592 0)
(1.00216 0.000295343 0)
(1.00205 0.000282786 0)
(1.00194 0.000270892 0)
(1.00183 0.000259633 0)
(1.00173 0.000248985 0)
(1.00164 0.000238923 0)
(1.00154 0.000229424 0)
(1.00145 0.000220466 0)
(1.00137 0.000212028 0)
(1.00128 0.000204091 0)
(1.0012 0.000196637 0)
(1.00113 0.000189645 0)
(1.00105 0.000183113 0)
(1.00098 0.000176982 0)
(1.00091 0.000171365 0)
(1.00084 0.00016587 0)
(1.00079 0.000161617 0)
(1.00069 0.000155261 0)
(1.00001 -0.000279112 0)
(1.00016 -0.000837282 0)
(1.00048 -0.00139586 0)
(1.00095 -0.00195535 0)
(1.00159 -0.0025163 0)
(1.00239 -0.00307919 0)
(1.00335 -0.0036445 0)
(1.00446 -0.00421268 0)
(1.00575 -0.00478414 0)
(1.00719 -0.00535927 0)
(1.0088 -0.00593842 0)
(1.01057 -0.0065219 0)
(1.01252 -0.00710998 0)
(1.01463 -0.00770285 0)
(1.01691 -0.00830068 0)
(1.01936 -0.00890356 0)
(1.02199 -0.0095115 0)
(1.02479 -0.0101245 0)
(1.02776 -0.0107423 0)
(1.03092 -0.0113648 0)
(1.03425 -0.0119918 0)
(1.03776 -0.0126227 0)
(1.04146 -0.0132571 0)
(1.04534 -0.0138944 0)
(1.0494 -0.0145339 0)
(1.05364 -0.0151749 0)
(1.05807 -0.0158164 0)
(1.06269 -0.0164573 0)
(1.06749 -0.0170965 0)
(1.07247 -0.0177329 0)
(1.07763 -0.0183649 0)
(1.08298 -0.0189911 0)
(1.08851 -0.01961 0)
(1.09422 -0.0202199 0)
(1.1001 -0.020819 0)
(1.10615 -0.0214053 0)
(1.11237 -0.0219771 0)
(1.11875 -0.0225322 0)
(1.1253 -0.0230687 0)
(1.13199 -0.0235844 0)
(1.13883 -0.0240773 0)
(1.14582 -0.0245452 0)
(1.15293 -0.024986 0)
(1.16017 -0.0253977 0)
(1.16753 -0.0257783 0)
(1.17499 -0.0261259 0)
(1.18254 -0.0264385 0)
(1.19019 -0.0267144 0)
(1.19791 -0.0269521 0)
(1.20569 -0.0271501 0)
(1.21353 -0.0273069 0)
(1.2214 -0.0274214 0)
(1.22931 -0.0274927 0)
(1.23722 -0.0275198 0)
(1.24515 -0.0275021 0)
(1.25305 -0.0274391 0)
(1.26094 -0.0273305 0)
(1.26879 -0.0271762 0)
(1.27658 -0.0269762 0)
(1.28432 -0.0267307 0)
(1.29197 -0.0264401 0)
(1.29954 -0.0261048 0)
(1.307 -0.0257255 0)
(1.31435 -0.0253028 0)
(1.32157 -0.0248376 0)
(1.32865 -0.0243309 0)
(1.33557 -0.0237836 0)
(1.34234 -0.0231967 0)
(1.34892 -0.0225714 0)
(1.35533 -0.0219088 0)
(1.36153 -0.0212101 0)
(1.36753 -0.0204763 0)
(1.37332 -0.0197086 0)
(1.37888 -0.0189083 0)
(1.3842 -0.0180765 0)
(1.38928 -0.0172143 0)
(1.39411 -0.0163229 0)
(1.39868 -0.0154033 0)
(1.40298 -0.0144566 0)
(1.40701 -0.0134841 0)
(1.41075 -0.0124867 0)
(1.4142 -0.0114656 0)
(1.41736 -0.0104219 0)
(1.42021 -0.00935682 0)
(1.42276 -0.00827161 0)
(1.42499 -0.00716761 0)
(1.4269 -0.00604631 0)
(1.42849 -0.00490937 0)
(1.42975 -0.00375867 0)
(1.43067 -0.00259637 0)
(1.43126 -0.00142494 0)
(1.43152 -0.000247267 0)
(1.43143 0.00093341 0)
(1.431 0.00211335 0)
(1.43024 0.00328838 0)
(1.42914 0.0044539 0)
(1.4277 0.00560492 0)
(1.42593 0.00673615 0)
(1.42384 0.00784214 0)
(1.42143 0.00891741 0)
(1.41872 0.00995662 0)
(1.4157 0.0109548 0)
(1.41241 0.0119075 0)
(1.40884 0.0128111 0)
(1.40502 0.0136628 0)
(1.40095 0.0144609 0)
(1.39666 0.0152048 0)
(1.39216 0.0158951 0)
(1.38746 0.0165335 0)
(1.38258 0.0171228 0)
(1.37753 0.0176666 0)
(1.37233 0.0181689 0)
(1.36699 0.0186346 0)
(1.36152 0.0190682 0)
(1.35592 0.0194744 0)
(1.35021 0.0198574 0)
(1.3444 0.0202207 0)
(1.33848 0.0205673 0)
(1.33246 0.0208988 0)
(1.32635 0.0212164 0)
(1.32015 0.02152 0)
(1.31387 0.0218088 0)
(1.30751 0.0220811 0)
(1.30108 0.0223347 0)
(1.29458 0.022567 0)
(1.28802 0.022775 0)
(1.2814 0.0229558 0)
(1.27474 0.0231065 0)
(1.26805 0.0232246 0)
(1.26132 0.0233078 0)
(1.25459 0.0233544 0)
(1.24784 0.0233631 0)
(1.24111 0.0233333 0)
(1.23439 0.0232646 0)
(1.2277 0.0231576 0)
(1.22105 0.023013 0)
(1.21445 0.022832 0)
(1.20791 0.0226162 0)
(1.20144 0.0223674 0)
(1.19504 0.0220876 0)
(1.18874 0.0217792 0)
(1.18253 0.0214445 0)
(1.17643 0.0210858 0)
(1.17043 0.0207056 0)
(1.16455 0.0203062 0)
(1.15878 0.0198901 0)
(1.15315 0.0194595 0)
(1.14763 0.0190166 0)
(1.14225 0.0185637 0)
(1.13701 0.0181026 0)
(1.13189 0.0176353 0)
(1.12692 0.0171636 0)
(1.12208 0.0166892 0)
(1.11738 0.0162135 0)
(1.11281 0.0157381 0)
(1.10839 0.0152643 0)
(1.1041 0.0147932 0)
(1.09994 0.0143261 0)
(1.09592 0.0138637 0)
(1.09204 0.0134072 0)
(1.08828 0.0129572 0)
(1.08465 0.0125144 0)
(1.08115 0.0120795 0)
(1.07777 0.011653 0)
(1.07451 0.0112354 0)
(1.07137 0.010827 0)
(1.06835 0.0104282 0)
(1.06543 0.0100392 0)
(1.06263 0.00966026 0)
(1.05994 0.00929148 0)
(1.05735 0.00893298 0)
(1.05486 0.00858482 0)
(1.05247 0.00824702 0)
(1.05017 0.00791956 0)
(1.04797 0.00760239 0)
(1.04585 0.00729543 0)
(1.04382 0.00699857 0)
(1.04188 0.0067117 0)
(1.04001 0.00643467 0)
(1.03822 0.0061673 0)
(1.03651 0.00590943 0)
(1.03487 0.00566086 0)
(1.0333 0.00542139 0)
(1.03179 0.0051908 0)
(1.03035 0.00496889 0)
(1.02898 0.00475542 0)
(1.02766 0.00455016 0)
(1.0264 0.0043529 0)
(1.02519 0.00416339 0)
(1.02403 0.0039814 0)
(1.02293 0.0038067 0)
(1.02188 0.00363905 0)
(1.02087 0.00347823 0)
(1.01991 0.00332401 0)
(1.01898 0.00317617 0)
(1.01811 0.00303448 0)
(1.01727 0.00289873 0)
(1.01646 0.0027687 0)
(1.0157 0.00264419 0)
(1.01496 0.00252499 0)
(1.01427 0.0024109 0)
(1.0136 0.00230173 0)
(1.01296 0.00219729 0)
(1.01235 0.00209741 0)
(1.01177 0.00200189 0)
(1.01122 0.00191058 0)
(1.01069 0.00182329 0)
(1.01019 0.00173988 0)
(1.00971 0.00166018 0)
(1.00925 0.00158404 0)
(1.00881 0.00151132 0)
(1.00839 0.00144187 0)
(1.00799 0.00137557 0)
(1.00761 0.00131227 0)
(1.00725 0.00125186 0)
(1.00691 0.00119421 0)
(1.00658 0.0011392 0)
(1.00626 0.00108673 0)
(1.00596 0.00103668 0)
(1.00567 0.000988953 0)
(1.0054 0.000943448 0)
(1.00514 0.000900069 0)
(1.00489 0.000858725 0)
(1.00465 0.000819327 0)
(1.00443 0.000781792 0)
(1.00421 0.000746039 0)
(1.00401 0.000711991 0)
(1.00381 0.000679573 0)
(1.00362 0.000648716 0)
(1.00344 0.000619352 0)
(1.00327 0.000591417 0)
(1.00311 0.000564847 0)
(1.00295 0.000539586 0)
(1.0028 0.000515577 0)
(1.00266 0.000492765 0)
(1.00252 0.0004711 0)
(1.00239 0.000450534 0)
(1.00227 0.00043102 0)
(1.00215 0.000412514 0)
(1.00203 0.000394973 0)
(1.00193 0.000378359 0)
(1.00182 0.000362634 0)
(1.00172 0.00034776 0)
(1.00162 0.000333706 0)
(1.00153 0.000320437 0)
(1.00144 0.000307924 0)
(1.00136 0.000296139 0)
(1.00128 0.000285052 0)
(1.0012 0.000274642 0)
(1.00112 0.000264875 0)
(1.00105 0.000255753 0)
(1.00097 0.000247187 0)
(1.00091 0.000239353 0)
(1.00084 0.000231666 0)
(1.00078 0.000225755 0)
(1.00068 0.000216829 0)
(1.00001 -0.000358476 0)
(1.00016 -0.00107536 0)
(1.00048 -0.00179278 0)
(1.00095 -0.00251143 0)
(1.00159 -0.00323196 0)
(1.00238 -0.00395503 0)
(1.00334 -0.00468124 0)
(1.00445 -0.00541119 0)
(1.00573 -0.00614542 0)
(1.00717 -0.00688443 0)
(1.00877 -0.00762868 0)
(1.01054 -0.00837859 0)
(1.01248 -0.00913449 0)
(1.01459 -0.00989666 0)
(1.01686 -0.0106653 0)
(1.01931 -0.0114406 0)
(1.02193 -0.0122225 0)
(1.02473 -0.0130109 0)
(1.0277 -0.0138059 0)
(1.03085 -0.0146069 0)
(1.03418 -0.0154138 0)
(1.03769 -0.016226 0)
(1.04139 -0.0170429 0)
(1.04526 -0.0178636 0)
(1.04932 -0.0186874 0)
(1.05357 -0.0195133 0)
(1.058 -0.0203399 0)
(1.06262 -0.021166 0)
(1.06742 -0.0219902 0)
(1.07241 -0.0228108 0)
(1.07759 -0.0236261 0)
(1.08295 -0.0244341 0)
(1.08849 -0.0252328 0)
(1.0942 -0.02602 0)
(1.1001 -0.0267935 0)
(1.10617 -0.0275507 0)
(1.11241 -0.0282893 0)
(1.11882 -0.0290066 0)
(1.12539 -0.0296999 0)
(1.13211 -0.0303665 0)
(1.13899 -0.0310038 0)
(1.146 -0.0316089 0)
(1.15315 -0.0321792 0)
(1.16043 -0.0327119 0)
(1.16782 -0.0332045 0)
(1.17532 -0.0336544 0)
(1.18293 -0.0340592 0)
(1.19062 -0.0344167 0)
(1.19838 -0.0347248 0)
(1.20622 -0.0349815 0)
(1.2141 -0.035185 0)
(1.22203 -0.0353339 0)
(1.22999 -0.0354268 0)
(1.23796 -0.0354627 0)
(1.24593 -0.0354407 0)
(1.2539 -0.0353601 0)
(1.26183 -0.0352207 0)
(1.26974 -0.0350221 0)
(1.27759 -0.0347645 0)
(1.28537 -0.0344482 0)
(1.29308 -0.0340736 0)
(1.3007 -0.0336413 0)
(1.30822 -0.0331523 0)
(1.31561 -0.0326073 0)
(1.32288 -0.0320075 0)
(1.33001 -0.0313542 0)
(1.33698 -0.0306486 0)
(1.34379 -0.0298921 0)
(1.35043 -0.0290861 0)
(1.35687 -0.0282321 0)
(1.36312 -0.0273315 0)
(1.36916 -0.026386 0)
(1.37499 -0.0253969 0)
(1.38058 -0.0243659 0)
(1.38594 -0.0232944 0)
(1.39106 -0.0221838 0)
(1.39592 -0.0210357 0)
(1.40052 -0.0198514 0)
(1.40485 -0.0186324 0)
(1.40891 -0.0173801 0)
(1.41268 -0.0160959 0)
(1.41616 -0.0147812 0)
(1.41934 -0.0134375 0)
(1.42222 -0.0120662 0)
(1.42479 -0.010669 0)
(1.42704 -0.00924763 0)
(1.42897 -0.0078039 0)
(1.43058 -0.00633996 0)
(1.43185 -0.00485819 0)
(1.4328 -0.00336132 0)
(1.4334 -0.00185252 0)
(1.43367 -0.000335419 0)
(1.43359 0.0011858 0)
(1.43318 0.00270642 0)
(1.43242 0.00422113 0)
(1.43132 0.00572405 0)
(1.42988 0.0072088 0)
(1.42811 0.00866862 0)
(1.42601 0.0100965 0)
(1.42359 0.0114855 0)
(1.42086 0.0128286 0)
(1.41783 0.0141194 0)
(1.41451 0.0153522 0)
(1.41091 0.0165221 0)
(1.40705 0.0176256 0)
(1.40294 0.0186602 0)
(1.3986 0.0196251 0)
(1.39404 0.0205209 0)
(1.38929 0.0213497 0)
(1.38434 0.0221147 0)
(1.37923 0.0228205 0)
(1.37396 0.0234725 0)
(1.36854 0.0240763 0)
(1.36299 0.0246381 0)
(1.35731 0.0251638 0)
(1.35151 0.0256587 0)
(1.34561 0.0261275 0)
(1.3396 0.0265738 0)
(1.3335 0.0270001 0)
(1.3273 0.0274077 0)
(1.32102 0.0277967 0)
(1.31465 0.0281661 0)
(1.30821 0.0285139 0)
(1.30169 0.0288372 0)
(1.29511 0.0291327 0)
(1.28847 0.0293968 0)
(1.28178 0.0296256 0)
(1.27505 0.0298156 0)
(1.26828 0.0299634 0)
(1.26149 0.0300661 0)
(1.25469 0.0301217 0)
(1.24789 0.0301283 0)
(1.24109 0.0300853 0)
(1.23432 0.0299924 0)
(1.22757 0.02985 0)
(1.22087 0.0296592 0)
(1.21423 0.0294216 0)
(1.20764 0.0291392 0)
(1.20113 0.0288145 0)
(1.19471 0.02845 0)
(1.18837 0.0280488 0)
(1.18213 0.0276137 0)
(1.176 0.027148 0)
(1.16998 0.0266548 0)
(1.16408 0.0261371 0)
(1.1583 0.025598 0)
(1.15264 0.0250405 0)
(1.14712 0.0244675 0)
(1.14173 0.0238816 0)
(1.13647 0.0232855 0)
(1.13135 0.0226816 0)
(1.12637 0.0220722 0)
(1.12153 0.0214596 0)
(1.11683 0.0208456 0)
(1.11227 0.0202321 0)
(1.10785 0.0196208 0)
(1.10356 0.0190133 0)
(1.09941 0.0184109 0)
(1.0954 0.0178149 0)
(1.09152 0.0172266 0)
(1.08777 0.0166468 0)
(1.08415 0.0160764 0)
(1.08065 0.0155164 0)
(1.07728 0.0149672 0)
(1.07404 0.0144296 0)
(1.07091 0.013904 0)
(1.06789 0.0133908 0)
(1.06499 0.0128903 0)
(1.0622 0.0124028 0)
(1.05952 0.0119285 0)
(1.05694 0.0114675 0)
(1.05447 0.0110198 0)
(1.05209 0.0105855 0)
(1.0498 0.0101646 0)
(1.04761 0.00975695 0)
(1.04551 0.00936247 0)
(1.04349 0.00898102 0)
(1.04156 0.00861244 0)
(1.0397 0.00825653 0)
(1.03792 0.00791308 0)
(1.03622 0.00758186 0)
(1.03459 0.00726262 0)
(1.03303 0.00695509 0)
(1.03154 0.006659 0)
(1.03011 0.00637406 0)
(1.02874 0.00609999 0)
(1.02743 0.00583649 0)
(1.02617 0.00558326 0)
(1.02498 0.00534001 0)
(1.02383 0.00510642 0)
(1.02274 0.0048822 0)
(1.02169 0.00466705 0)
(1.02069 0.00446068 0)
(1.01973 0.00426278 0)
(1.01882 0.00407308 0)
(1.01795 0.00389128 0)
(1.01711 0.0037171 0)
(1.01632 0.00355028 0)
(1.01556 0.00339054 0)
(1.01483 0.00323763 0)
(1.01414 0.00309128 0)
(1.01348 0.00295124 0)
(1.01285 0.00281728 0)
(1.01224 0.00268916 0)
(1.01167 0.00256665 0)
(1.01112 0.00244953 0)
(1.0106 0.00233759 0)
(1.0101 0.00223061 0)
(1.00962 0.0021284 0)
(1.00916 0.00203075 0)
(1.00873 0.0019375 0)
(1.00832 0.00184845 0)
(1.00792 0.00176342 0)
(1.00754 0.00168226 0)
(1.00718 0.00160479 0)
(1.00684 0.00153087 0)
(1.00651 0.00146034 0)
(1.0062 0.00139306 0)
(1.0059 0.00132889 0)
(1.00562 0.0012677 0)
(1.00535 0.00120936 0)
(1.00509 0.00115374 0)
(1.00485 0.00110074 0)
(1.00461 0.00105023 0)
(1.00439 0.00100211 0)
(1.00417 0.00095627 0)
(1.00397 0.00091262 0)
(1.00377 0.000871062 0)
(1.00359 0.000831505 0)
(1.00341 0.000793862 0)
(1.00324 0.00075805 0)
(1.00308 0.000723991 0)
(1.00292 0.000691608 0)
(1.00278 0.00066083 0)
(1.00263 0.000631589 0)
(1.0025 0.000603818 0)
(1.00237 0.000577455 0)
(1.00225 0.000552441 0)
(1.00213 0.000528719 0)
(1.00202 0.000506235 0)