/*--------------------------------*- C++ -*----------------------------------*\
| =========                 |                                                 |
| \\      /  F ield         | OpenFOAM: The Open Source CFD Toolbox           |
|  \\    /   O peration     | Version:  2306                                  |
|   \\  /    A nd           | Website:  www.openfoam.com                      |
|    \\/     M anipulation  |                                                 |
\*---------------------------------------------------------------------------*/
FoamFile
{
    version     2.0;
    format      ascii;
    arch        "LSB;label=32;scalar=64";
    class       volScalarField;
    location    "0.015";
    object      G;
}
// * * * * * * * * * * * * * * * * * * * * * * * * * * * * * * * * * * * * * //

dimensions      [1 0 -3 0 0 0 0];

internalField   nonuniform List<scalar> 
100
(
8434.68
10199.3
11616.5
12355
12636.7
12636.5
12355
11616.8
10199.3
8434.86
10199.3
12499.4
14301.6
15184.3
15520.5
15520.4
15184.2
14301.8
12499.3
10199.3
11616.5
14301.6
16339
17350.7
17738.6
17738.6
17350.9
16339.3
14301.8
11616.8
12355
15184.3
17350.7
18443.7
18867.1
18867.1
18443.8
17350.9
15184.2
12355
12636.7
15520.5
17738.6
18867.1
19307.1
19307
18867.1
17738.6
15520.4
12636.5
12636.5
15520.4
17738.6
18867.1
19307
19307.1
18867.1
17738.6
15520.5
12636.7
12355
15184.2
17350.9
18443.8
18867.1
18867.1
18443.7
17350.7
15184.3
12355
11616.8
14301.8
16339.3
17350.9
17738.6
17738.6
17350.7
16339
14301.6
11616.5
10199.3
12499.3
14301.8
15184.2
15520.4
15520.5
15184.3
14301.6
12499.4
10199.3
8434.86
10199.3
11616.8
12355
12636.5
12636.7
12355
11616.5
10199.3
8434.68
)
;

boundaryField
{
    fixedWall_Bottom
    {
        type            calculated;
        value           nonuniform List<scalar> 10(7232.17 8854.83 10088.9 10734.2 10995 10994.9 10734.2 10089.2 8854.84 7232.37);
    }
    fixedWall_Right
    {
        type            calculated;
        value           nonuniform List<scalar> 10(7232.37 8854.84 10089.2 10734.2 10994.9 10995 10734.2 10088.9 8854.83 7232.17);
    }
    fixedWall_Left
    {
        type            calculated;
        value           nonuniform List<scalar> 10(7232.17 8854.83 10088.9 10734.2 10995 10994.9 10734.2 10089.2 8854.84 7232.37);
    }
    fixedWall_Top
    {
        type            calculated;
        value           nonuniform List<scalar> 10(7232.37 8854.84 10089.2 10734.2 10994.9 10995 10734.2 10088.9 8854.83 7232.17);
    }
    frontAndBack
    {
        type            empty;
    }
}


// ************************************************************************* //
