/*--------------------------------*- C++ -*----------------------------------*\
| =========                 |                                                 |
| \\      /  F ield         | OpenFOAM: The Open Source CFD Toolbox           |
|  \\    /   O peration     | Version:  2306                                  |
|   \\  /    A nd           | Website:  www.openfoam.com                      |
|    \\/     M anipulation  |                                                 |
\*---------------------------------------------------------------------------*/
FoamFile
{
    version     2.0;
    format      ascii;
    arch        "LSB;label=32;scalar=64";
    class       volScalarField;
    location    "0.015";
    object      ILambda_4_0;
}
// * * * * * * * * * * * * * * * * * * * * * * * * * * * * * * * * * * * * * //

dimensions      [1 0 -3 0 0 0 0];

internalField   nonuniform List<scalar> 
100
(
93.5133
136.745
159.791
153.88
140.993
136.789
135.536
135.221
135.173
135.179
108.598
418.81
658.752
715.056
709.404
701.681
696.776
694.248
693.08
692.536
109.276
562.665
987.158
1174.47
1231.63
1248.86
1252.36
1252.05
1251.15
1250.44
100.608
557.677
1063.83
1350.24
1480.15
1539.97
1565.16
1574.83
1578.12
1579.2
93.3765
534.574
1059.07
1392.22
1571.69
1669.89
1719.99
1744.02
1754.89
1760.02
92.8003
525.311
1049.75
1399.26
1604.24
1727.81
1798.03
1835.88
1855.33
1865.79
93.1434
522.319
1044.16
1397.79
1613.53
1750.85
1834.19
1882.57
1909.49
1925.23
93.4074
521.527
1041.63
1395.64
1615.18
1758.92
1849.61
1904.8
1937.2
1957.28
93.535
521.379
1040.66
1394.3
1614.9
1761.29
1855.63
1914.72
1950.65
1973.84
93.5888
521.372
1040.29
1393.61
1614.42
1761.84
1857.94
1919.19
1957.31
1982.65
)
;

boundaryField
{
    fixedWall_Bottom
    {
        type            greyDiffusiveRadiation;
        refValue        uniform 0;
        refGradient     uniform 0;
        valueFraction   uniform 1;
        source          uniform 0;
        value           uniform 0;
    }
    fixedWall_Right
    {
        type            greyDiffusiveRadiation;
        refValue        uniform 0;
        refGradient     uniform 0;
        valueFraction   uniform 0;
        source          uniform 0;
        value           nonuniform List<scalar> 10(135.179 692.536 1250.44 1579.2 1760.02 1865.79 1925.23 1957.28 1973.84 1982.65);
    }
    fixedWall_Left
    {
        type            greyDiffusiveRadiation;
        refValue        uniform 0;
        refGradient     uniform 0;
        valueFraction   uniform 1;
        source          uniform 0;
        value           uniform 0;
    }
    fixedWall_Top
    {
        type            greyDiffusiveRadiation;
        refValue        uniform 0;
        refGradient     uniform 0;
        valueFraction   uniform 0;
        source          uniform 0;
        value           nonuniform List<scalar> 10(93.5888 521.372 1040.29 1393.61 1614.42 1761.84 1857.94 1919.19 1957.31 1982.65);
    }
    frontAndBack
    {
        type            empty;
    }
}


// ************************************************************************* //
