/*--------------------------------*- C++ -*----------------------------------*\
| =========                 |                                                 |
| \\      /  F ield         | OpenFOAM: The Open Source CFD Toolbox           |
|  \\    /   O peration     | Version:  2306                                  |
|   \\  /    A nd           | Website:  www.openfoam.com                      |
|    \\/     M anipulation  |                                                 |
\*---------------------------------------------------------------------------*/
FoamFile
{
    version     2.0;
    format      ascii;
    arch        "LSB;label=32;scalar=64";
    class       volScalarField;
    location    "0.015";
    object      ILambda_13_0;
}
// * * * * * * * * * * * * * * * * * * * * * * * * * * * * * * * * * * * * * //

dimensions      [1 0 -3 0 0 0 0];

internalField   nonuniform List<scalar> 
100
(
229.452
968.055
1536.09
1797.75
1908.57
1957.85
1978.02
1985.49
1987.92
1988.63
229.939
968.245
1530.98
1782.46
1882.18
1922.66
1937.21
1941.69
1942.75
1942.88
230.846
968.097
1521.23
1756.95
1841.71
1871.85
1880.68
1882.51
1882.53
1882.29
232.63
966.365
1500.76
1710.82
1774.82
1792.68
1795.71
1795.28
1794.58
1794.15
236.033
959.926
1459.31
1630.3
1668.08
1673.14
1671.31
1669.46
1668.48
1668.07
242.259
941.013
1378.56
1495.15
1504.17
1498.5
1493.87
1491.69
1490.88
1490.62
252.96
891.327
1228.2
1279.26
1263.66
1252.48
1247.79
1246.27
1245.88
1245.79
238.262
738.448
933.419
924.625
898.118
888.536
886.012
885.553
885.539
885.573
171.552
402.787
461.851
431.053
413.304
410.226
410.166
410.39
410.513
410.561
93.0767
86.9109
80.3284
76.3916
74.6806
75.657
76.1485
76.3047
76.3444
76.3532
)
;

boundaryField
{
    fixedWall_Bottom
    {
        type            greyDiffusiveRadiation;
        refValue        uniform 0;
        refGradient     uniform 0;
        valueFraction   uniform 0;
        source          uniform 0;
        value           nonuniform List<scalar> 10(229.452 968.055 1536.09 1797.75 1908.57 1957.85 1978.02 1985.49 1987.92 1988.63);
    }
    fixedWall_Right
    {
        type            greyDiffusiveRadiation;
        refValue        uniform 0;
        refGradient     uniform 0;
        valueFraction   uniform 0;
        source          uniform 0;
        value           nonuniform List<scalar> 10(1988.63 1942.88 1882.29 1794.15 1668.07 1490.62 1245.79 885.573 410.561 76.3532);
    }
    fixedWall_Left
    {
        type            greyDiffusiveRadiation;
        refValue        uniform 0;
        refGradient     uniform 0;
        valueFraction   uniform 1;
        source          uniform 0;
        value           uniform 0;
    }
    fixedWall_Top
    {
        type            greyDiffusiveRadiation;
        refValue        uniform 0;
        refGradient     uniform 0;
        valueFraction   uniform 1;
        source          uniform 0;
        value           uniform 0;
    }
    frontAndBack
    {
        type            empty;
    }
}


// ************************************************************************* //
