/*--------------------------------*- C++ -*----------------------------------*\
| =========                 |                                                 |
| \\      /  F ield         | OpenFOAM: The Open Source CFD Toolbox           |
|  \\    /   O peration     | Version:  2306                                  |
|   \\  /    A nd           | Website:  www.openfoam.com                      |
|    \\/     M anipulation  |                                                 |
\*---------------------------------------------------------------------------*/
FoamFile
{
    version     2.0;
    format      ascii;
    arch        "LSB;label=32;scalar=64";
    class       volScalarField;
    location    "0.015";
    object      qr;
}
// * * * * * * * * * * * * * * * * * * * * * * * * * * * * * * * * * * * * * //

dimensions      [1 0 -3 0 0 0 0];

internalField   uniform 0;

boundaryField
{
    fixedWall_Bottom
    {
        type            calculated;
        value           nonuniform List<scalar> 10(3389.13 4502.5 4958.44 5106.17 5170.8 5170.7 5106.11 4958.64 4502.48 3389.2);
    }
    fixedWall_Right
    {
        type            calculated;
        value           nonuniform List<scalar> 10(3389.2 4502.48 4958.64 5106.11 5170.7 5170.8 5106.17 4958.44 4502.5 3389.13);
    }
    fixedWall_Left
    {
        type            calculated;
        value           nonuniform List<scalar> 10(3389.13 4502.5 4958.44 5106.17 5170.8 5170.7 5106.11 4958.64 4502.48 3389.2);
    }
    fixedWall_Top
    {
        type            calculated;
        value           nonuniform List<scalar> 10(3389.2 4502.48 4958.64 5106.11 5170.7 5170.8 5106.17 4958.44 4502.5 3389.13);
    }
    frontAndBack
    {
        type            empty;
    }
}


// ************************************************************************* //
