/*--------------------------------*- C++ -*----------------------------------*\
| =========                 |                                                 |
| \\      /  F ield         | OpenFOAM: The Open Source CFD Toolbox           |
|  \\    /   O peration     | Version:  2306                                  |
|   \\  /    A nd           | Website:  www.openfoam.com                      |
|    \\/     M anipulation  |                                                 |
\*---------------------------------------------------------------------------*/
FoamFile
{
    version     2.0;
    format      ascii;
    arch        "LSB;label=32;scalar=64";
    class       volScalarField;
    location    "8.5";
    object      Keff;
}
// * * * * * * * * * * * * * * * * * * * * * * * * * * * * * * * * * * * * * //

dimensions      [1 1 -3 -1 0 0 0];

internalField   nonuniform List<scalar> 
32768
(
67.2037
67.2017
67.1976
67.1914
67.1831
67.1727
67.1602
67.1456
67.1288
67.11
67.0889
67.0657
67.0403
67.0127
66.9829
66.9508
66.9164
66.8797
66.8407
66.7994
66.7557
66.7096
66.6612
66.6103
66.5569
66.5012
66.443
66.3823
66.3192
66.2536
66.1855
66.115
66.0421
65.9668
65.8891
65.809
65.7266
65.642
65.5551
65.466
65.3749
65.2817
65.1866
65.0896
64.9908
64.8904
64.7883
64.6848
64.5798
64.4737
64.3663
64.258
64.1487
64.0387
63.928
63.8168
63.7052
63.5933
63.4813
63.3692
63.2572
63.1454
63.0339
62.9228
62.8123
62.7023
62.5931
62.4846
62.377
62.2703
62.1646
62.0599
61.9564
61.8541
61.7529
61.6529
61.5543
61.4569
61.3608
61.2661
61.1727
61.0807
60.99
60.9007
60.8127
60.7261
60.6409
60.557
60.4744
60.3933
60.3134
60.2349
60.1577
60.0819
60.0074
59.9343
59.8625
59.792
59.7229
59.6552
59.5889
59.524
59.4605
59.3985
59.3379
59.2789
59.2213
59.1654
59.1111
59.0584
59.0074
58.9582
58.9107
58.8651
58.8213
58.7795
58.7396
58.7018
58.6661
58.6324
58.601
58.5718
58.5449
58.5204
58.4982
58.4785
58.4612
58.4465
58.4343
58.4248
58.4179
58.4137
58.4122
58.4134
58.4175
58.4244
58.4341
58.4466
58.4621
58.4804
58.5017
58.5258
58.5529
58.5829
58.6158
58.6517
58.6904
58.7321
58.7767
58.8241
58.8744
58.9275
58.9835
59.0422
59.1037
59.1679
59.2348
59.3043
59.3764
59.4511
59.5283
59.6078
59.6898
59.7741
59.8606
59.9493
60.0402
60.133
60.2279
60.3246
60.4231
60.5233
60.6251
60.7285
60.8333
60.9395
61.0469
61.1554
61.265
61.3755
61.4869
61.5989
61.7117
61.8249
61.9385
62.0525
62.1667
62.2809
62.3952
62.5093
62.6233
62.7369
62.8501
62.9628
63.075
63.1864
63.2971
63.4069
63.5158
63.6237
63.7305
63.8362
63.9406
64.0438
64.1457
64.2461
64.3451
64.4427
64.5387
64.6331
64.726
64.8173
64.9069
64.9948
65.0811
65.1657
65.2485
65.3297
65.4091
65.4868
65.5629
65.6372
65.7098
65.7807
65.85
65.9176
65.9836
66.048
66.1108
66.172
66.2317
66.2899
66.3466
66.4018
66.4556
66.5081
66.5592
66.609
66.6575
66.7047
66.7508
66.7956
66.8394
66.882
66.9236
66.9641
67.0037
67.0423
67.08
67.1169
67.1526
67.1883
67.2215
67.2582
67.284
67.3359
67.2037
67.2017
67.1976
67.1914
67.1831
67.1727
67.1602
67.1456
67.1289
67.11
67.089
67.0658
67.0404
67.0128
66.983
66.9509
66.9165
66.8798
66.8408
66.7995
66.7558
66.7097
66.6612
66.6103
66.557
66.5012
66.443
66.3823
66.3191
66.2535
66.1854
66.1148
66.0419
65.9665
65.8887
65.8085
65.7261
65.6413
65.5544
65.4652
65.374
65.2807
65.1855
65.0883
64.9894
64.8888
64.7866
64.683
64.5779
64.4716
64.3641
64.2556
64.1462
64.036
63.9252
63.8138
63.7021
63.5901
63.4779
63.3657
63.2536
63.1417
63.0301
62.9189
62.8082
62.6982
62.5888
62.4802
62.3725
62.2658
62.16
62.0553
61.9518
61.8494
61.7482
61.6482
61.5495
61.4521
61.356
61.2613
61.1679
61.0758
60.9851
60.8958
60.8079
60.7213
60.636
60.5521
60.4696
60.3884
60.3086
60.2301
60.1529
60.0771
60.0026
59.9295
59.8576
59.7872
59.7181
59.6504
59.584
59.5191
59.4556
59.3935
59.3329
59.2738
59.2163
59.1603
59.106
59.0532
59.0022
58.9529
58.9054
58.8597
58.8159
58.774
58.7341
58.6963
58.6605
58.6268
58.5953
58.5661
58.5392
58.5145
58.4923
58.4725
58.4552
58.4405
58.4283
58.4187
58.4118
58.4075
58.406
58.4073
58.4113
58.4181
58.4278
58.4404
58.4558
58.4741
58.4954
58.5195
58.5466
58.5766
58.6095
58.6454
58.6841
58.7258
58.7704
58.8178
58.8682
58.9213
58.9773
59.0361
59.0976
59.1618
59.2288
59.2983
59.3705
59.4452
59.5224
59.602
59.684
59.7684
59.855
59.9438
60.0347
60.1276
60.2225
60.3193
60.4179
60.5182
60.6202
60.7236
60.8285
60.9348
61.0423
61.1509
61.2606
61.3713
61.4827
61.5949
61.7078
61.8211
61.9349
62.049
62.1633
62.2776
62.392
62.5063
62.6203
62.7341
62.8474
62.9603
63.0725
63.1841
63.2949
63.4048
63.5138
63.6218
63.7287
63.8345
63.939
64.0423
64.1442
64.2448
64.3439
64.4415
64.5376
64.6321
64.725
64.8163
64.906
64.994
65.0803
65.1649
65.2478
65.329
65.4085
65.4863
65.5623
65.6366
65.7093
65.7802
65.8495
65.9171
65.9831
66.0475
66.1103
66.1715
66.2312
66.2894
66.3461
66.4013
66.4552
66.5076
66.5587
66.6084
66.6569
66.7042
66.7502
66.795
66.8387
66.8814
66.9229
66.9634
67.003
67.0416
67.0792
67.1161
67.1518
67.1875
67.2206
67.2573
67.2831
67.335
67.2037
67.2017
67.1976
67.1914
67.1831
67.1727
67.1603
67.1457
67.1289
67.1101
67.0891
67.0659
67.0405
67.0129
66.9831
66.951
66.9167
66.88
66.841
66.7997
66.756
66.7099
66.6614
66.6105
66.5571
66.5013
66.443
66.3822
66.319
66.2533
66.1851
66.1145
66.0414
65.9659
65.8879
65.8077
65.725
65.6401
65.553
65.4636
65.3722
65.2787
65.1832
65.0858
64.9866
64.8858
64.7833
64.6793
64.574
64.4674
64.3596
64.2508
64.1411
64.0306
63.9195
63.8079
63.6959
63.5836
63.4711
63.3586
63.2463
63.1341
63.0223
62.9109
62.8
62.6898
62.5803
62.4716
62.3637
62.2568
62.1509
62.0462
61.9425
61.84
61.7387
61.6387
61.5399
61.4425
61.3464
61.2516
61.1582
61.0662
60.9755
60.8861
60.7982
60.7116
60.6264
60.5425
60.46
60.3788
60.299
60.2205
60.1433
60.0675
59.993
59.9198
59.848
59.7775
59.7084
59.6406
59.5743
59.5093
59.4457
59.3836
59.323
59.2638
59.2062
59.1502
59.0957
59.0429
58.9918
58.9424
58.8948
58.8491
58.8052
58.7632
58.7232
58.6852
58.6493
58.6156
58.584
58.5547
58.5276
58.5029
58.4806
58.4607
58.4434
58.4285
58.4162
58.4066
58.3996
58.3953
58.3937
58.3949
58.3989
58.4057
58.4153
58.4278
58.4432
58.4615
58.4827
58.5069
58.534
58.5639
58.5969
58.6327
58.6715
58.7132
58.7578
58.8053
58.8557
58.9089
58.9649
59.0238
59.0853
59.1497
59.2167
59.2863
59.3586
59.4334
59.5107
59.5904
59.6725
59.757
59.8437
59.9327
60.0237
60.1168
60.2119
60.3088
60.4076
60.5081
60.6102
60.7139
60.819
60.9254
61.0332
61.142
61.2519
61.3628
61.4745
61.5869
61.7
61.8136
61.9276
62.0419
62.1564
62.2711
62.3857
62.5002
62.6145
62.7285
62.8421
62.9552
63.0676
63.1794
63.2904
63.4006
63.5098
63.618
63.7252
63.8311
63.9358
64.0393
64.1414
64.2421
64.3414
64.4391
64.5354
64.63
64.7231
64.8145
64.9043
64.9924
65.0788
65.1635
65.2465
65.3278
65.4073
65.4851
65.5612
65.6356
65.7083
65.7792
65.8486
65.9162
65.9822
66.0466
66.1094
66.1706
66.2303
66.2885
66.3451
66.4004
66.4542
66.5066
66.5576
66.6074
66.6558
66.703
66.749
66.7938
66.8375
66.8801
66.9216
66.9621
67.0015
67.0401
67.0777
67.1145
67.1502
67.1858
67.2189
67.2556
67.2813
67.3331
67.2037
67.2017
67.1976
67.1914
67.1832
67.1728
67.1603
67.1457
67.129
67.1102
67.0892
67.0661
67.0407
67.0131
66.9833
66.9513
66.9169
66.8803
66.8413
66.7999
66.7562
66.7101
66.6616
66.6107
66.5572
66.5014
66.443
66.3822
66.3188
66.253
66.1847
66.1139
66.0407
65.965
65.8869
65.8063
65.7235
65.6383
65.5509
65.4612
65.3694
65.2756
65.1798
65.082
64.9825
64.8812
64.7783
64.6739
64.5681
64.4611
64.3529
64.2436
64.1335
64.0226
63.911
63.799
63.6865
63.5738
63.4609
63.3481
63.2353
63.1228
63.0107
62.8989
62.7878
62.6773
62.5675
62.4585
62.3504
62.2434
62.1373
62.0324
61.9285
61.8259
61.7245
61.6244
61.5256
61.4281
61.332
61.2372
61.1437
61.0517
60.961
60.8716
60.7837
60.6971
60.6119
60.528
60.4455
60.3644
60.2845
60.2061
60.1289
60.0531
59.9786
59.9054
59.8335
59.763
59.6939
59.6261
59.5596
59.4946
59.431
59.3688
59.3081
59.2488
59.1911
59.1349
59.0804
59.0275
58.9762
58.9267
58.879
58.8331
58.789
58.7469
58.7068
58.6686
58.6326
58.5987
58.567
58.5375
58.5103
58.4855
58.463
58.443
58.4255
58.4106
58.3982
58.3884
58.3813
58.3769
58.3752
58.3764
58.3803
58.387
58.3966
58.4091
58.4244
58.4427
58.4639
58.488
58.515
58.545
58.578
58.6138
58.6527
58.6944
58.739
58.7866
58.837
58.8903
58.9464
59.0053
59.067
59.1314
59.1985
59.2683
59.3407
59.4156
59.4931
59.573
59.6553
59.74
59.8269
59.916
60.0073
60.1006
60.1959
60.2931
60.3922
60.4929
60.5953
60.6993
60.8047
60.9114
61.0195
61.1287
61.2389
61.3501
61.4621
61.5749
61.6884
61.8023
61.9167
62.0314
62.1463
62.2612
62.3762
62.4911
62.6058
62.7201
62.8341
62.9475
63.0603
63.1725
63.2838
63.3943
63.5038
63.6124
63.7198
63.826
63.9311
64.0348
64.1371
64.2381
64.3376
64.4356
64.532
64.6269
64.7202
64.8118
64.9017
64.99
65.0765
65.1614
65.2445
65.3259
65.4055
65.4834
65.5596
65.634
65.7068
65.7778
65.8471
65.9148
65.9808
66.0452
66.108
66.1693
66.2289
66.2871
66.3437
66.3989
66.4527
66.5051
66.5561
66.6058
66.6542
66.7013
66.7473
66.792
66.8356
66.8781
66.9196
66.96
66.9994
67.0379
67.0754
67.1122
67.1478
67.1834
67.2164
67.253
67.2786
67.3303
67.2037
67.2017
67.1977
67.1915
67.1832
67.1728
67.1604
67.1458
67.1292
67.1104
67.0894
67.0663
67.041
67.0134
66.9836
66.9516
66.9173
66.8806
66.8417
66.8003
66.7566
66.7105
66.6619
66.6109
66.5575
66.5015
66.4431
66.3821
66.3187
66.2527
66.1842
66.1133
66.0398
65.9638
65.8854
65.8046
65.7214
65.6359
65.5481
65.4581
65.3659
65.2716
65.1752
65.077
64.9769
64.8751
64.7717
64.6667
64.5604
64.4527
64.3439
64.2341
64.1234
64.0118
63.8997
63.787
63.674
63.5608
63.4474
63.334
63.2208
63.1078
62.9951
62.883
62.7714
62.6605
62.5504
62.4411
62.3328
62.2254
62.1191
62.0139
61.9099
61.8072
61.7057
61.6054
61.5065
61.4089
61.3127
61.2179
61.1244
61.0323
60.9416
60.8523
60.7644
60.6778
60.5926
60.5088
60.4263
60.3452
60.2654
60.1869
60.1097
60.0339
59.9594
59.8862
59.8143
59.7438
59.6746
59.6067
59.5402
59.4751
59.4114
59.3491
59.2882
59.2289
59.171
59.1147
59.06
59.0069
58.9555
58.9058
58.8579
58.8118
58.7676
58.7252
58.6849
58.6466
58.6104
58.5763
58.5443
58.5147
58.4873
58.4623
58.4397
58.4195
58.4018
58.3867
58.3741
58.3642
58.357
58.3525
58.3507
58.3517
58.3555
58.3621
58.3716
58.384
58.3993
58.4175
58.4387
58.4628
58.4898
58.5198
58.5528
58.5887
58.6275
58.6693
58.714
58.7616
58.8121
58.8655
58.9217
58.9807
59.0425
59.1071
59.1744
59.2443
59.3169
59.392
59.4697
59.5498
59.6324
59.7173
59.8045
59.8939
59.9854
60.079
60.1747
60.2722
60.3716
60.4727
60.5755
60.6798
60.7856
60.8928
61.0012
61.1109
61.2215
61.3332
61.4457
61.5589
61.6728
61.7873
61.9021
62.0173
62.1327
62.2482
62.3636
62.479
62.5941
62.709
62.8234
62.9373
63.0506
63.1632
63.275
63.3859
63.4959
63.6048
63.7127
63.8193
63.9247
64.0288
64.1315
64.2328
64.3326
64.4309
64.5277
64.6228
64.7163
64.8082
64.8983
64.9868
65.0736
65.1586
65.2418
65.3234
65.4031
65.4811
65.5574
65.632
65.7048
65.7759
65.8453
65.913
65.979
66.0434
66.1063
66.1675
66.2271
66.2853
66.3419
66.397
66.4508
66.5031
66.5541
66.6037
66.652
66.6991
66.745
66.7896
66.8332
66.8756
66.9169
66.9573
66.9966
67.035
67.0724
67.1091
67.1446
67.1801
67.213
67.2495
67.2751
67.3266
67.2037
67.2017
67.1977
67.1915
67.1832
67.1729
67.1605
67.146
67.1294
67.1106
67.0897
67.0666
67.0413
67.0138
66.9841
66.9521
66.9178
66.8811
66.8422
66.8008
66.7571
66.711
66.6624
66.6113
66.5578
66.5018
66.4432
66.3821
66.3185
66.2524
66.1837
66.1125
66.0387
65.9625
65.8837
65.8026
65.719
65.633
65.5447
65.4542
65.3614
65.2666
65.1696
65.0708
64.9701
64.8676
64.7634
64.6578
64.5507
64.4423
64.3328
64.2222
64.1107
63.9984
63.8855
63.7722
63.6584
63.5444
63.4304
63.3164
63.2025
63.0889
62.9757
62.863
62.7509
62.6396
62.529
62.4193
62.3106
62.2029
62.0963
61.9909
61.8867
61.7837
61.682
61.5817
61.4826
61.385
61.2887
61.1938
61.1003
61.0082
60.9175
60.8282
60.7403
60.6538
60.5686
60.4848
60.4023
60.3212
60.2414
60.163
60.0858
60.01
59.9355
59.8623
59.7904
59.7198
59.6505
59.5826
59.516
59.4508
59.3869
59.3245
59.2635
59.204
59.146
59.0895
59.0346
58.9813
58.9297
58.8798
58.8316
58.7853
58.7408
58.6982
58.6577
58.6191
58.5826
58.5483
58.5161
58.4862
58.4586
58.4333
58.4105
58.3901
58.3722
58.3569
58.3441
58.334
58.3266
58.3219
58.32
58.3209
58.3245
58.3311
58.3405
58.3528
58.368
58.3862
58.4073
58.4313
58.4584
58.4884
58.5213
58.5572
58.5961
58.638
58.6827
58.7304
58.781
58.8345
58.8908
58.95
59.012
59.0767
59.1442
59.2143
59.2871
59.3625
59.4404
59.5208
59.6037
59.6889
59.7764
59.8662
59.9581
60.0521
60.1481
60.2461
60.3459
60.4475
60.5507
60.6555
60.7618
60.8695
60.9785
61.0886
61.1999
61.3121
61.4251
61.539
61.6535
61.7685
61.884
61.9997
62.1157
62.2318
62.3479
62.4639
62.5796
62.6951
62.8101
62.9246
63.0385
63.1517
63.264
63.3755
63.486
63.5955
63.7038
63.811
63.9168
64.0214
64.1245
64.2262
64.3265
64.4251
64.5222
64.6177
64.7116
64.8037
64.8942
64.9829
65.0699
65.1551
65.2386
65.3203
65.4002
65.4784
65.5548
65.6294
65.7023
65.7735
65.8429
65.9107
65.9768
66.0412
66.104
66.1653
66.2249
66.283
66.3396
66.3947
66.4484
66.5006
66.5515
66.6011
66.6493
66.6963
66.7421
66.7867
66.8301
66.8724
66.9136
66.9539
66.9931
67.0313
67.0687
67.1052
67.1406
67.1759
67.2088
67.2451
67.2706
67.322
67.2037
67.2017
67.1977
67.1915
67.1833
67.173
67.1606
67.1462
67.1296
67.1109
67.09
67.067
67.0417
67.0143
66.9846
66.9526
66.9183
66.8818
66.8428
66.8015
66.7578
66.7116
66.663
66.6119
66.5583
66.5021
66.4434
66.3822
66.3184
66.252
66.1831
66.1116
66.0375
65.9609
65.8818
65.8002
65.7161
65.6296
65.5407
65.4496
65.3562
65.2606
65.163
65.0634
64.9619
64.8586
64.7536
64.6471
64.5391
64.4298
64.3194
64.2079
64.0955
63.9823
63.8685
63.7543
63.6397
63.5249
63.41
63.2952
63.1805
63.0662
62.9523
62.839
62.7263
62.6144
62.5033
62.3932
62.284
62.1759
62.069
61.9633
61.8588
61.7556
61.6537
61.5531
61.454
61.3562
61.2599
61.1649
61.0714
60.9793
60.8886
60.7993
60.7114
60.6249
60.5398
60.456
60.3736
60.2926
60.2128
60.1344
60.0572
59.9814
59.9069
59.8337
59.7617
59.6911
59.6217
59.5537
59.487
59.4217
59.3577
59.2951
59.234
59.1743
59.116
59.0593
59.0042
58.9507
58.8988
58.8486
58.8002
58.7536
58.7088
58.6659
58.6251
58.5862
58.5494
58.5148
58.4823
58.4521
58.4242
58.3987
58.3756
58.3549
58.3368
58.3212
58.3082
58.2979
58.2903
58.2854
58.2833
58.284
58.2875
58.2939
58.3032
58.3154
58.3305
58.3486
58.3697
58.3937
58.4207
58.4507
58.4836
58.5196
58.5585
58.6004
58.6453
58.6931
58.7438
58.7974
58.8539
58.9132
58.9754
59.0403
59.108
59.1784
59.2515
59.3271
59.4054
59.4861
59.5693
59.6549
59.7428
59.833
59.9253
60.0198
60.1163
60.2147
60.3151
60.4172
60.521
60.6264
60.7333
60.8416
60.9512
61.062
61.1739
61.2868
61.4005
61.5151
61.6303
61.746
61.8622
61.9787
62.0954
62.2123
62.3291
62.4458
62.5623
62.6785
62.7942
62.9094
63.024
63.1379
63.2509
63.363
63.4742
63.5843
63.6932
63.801
63.9074
64.0125
64.1162
64.2184
64.3191
64.4183
64.5158
64.6117
64.7059
64.7984
64.8892
64.9782
65.0655
65.151
65.2347
65.3166
65.3967
65.4751
65.5516
65.6264
65.6994
65.7707
65.8402
65.908
65.9742
66.0386
66.1014
66.1627
66.2223
66.2803
66.3369
66.3919
66.4455
66.4977
66.5485
66.598
66.6461
66.693
66.7387
66.7831
66.8264
66.8686
66.9097
66.9498
66.9889
67.027
67.0642
67.1006
67.1358
67.171
67.2037
67.2399
67.2653
67.3164
67.2037
67.2017
67.1977
67.1916
67.1834
67.1731
67.1608
67.1464
67.1298
67.1112
67.0904
67.0674
67.0422
67.0148
66.9852
66.9533
66.9191
66.8825
66.8436
66.8023
66.7586
66.7124
66.6637
66.6126
66.5589
66.5026
66.4438
66.3824
66.3184
66.2518
66.1825
66.1107
66.0362
65.9592
65.8796
65.7975
65.7128
65.6257
65.5362
65.4443
65.3502
65.2538
65.1554
65.0548
64.9524
64.8482
64.7422
64.6346
64.5256
64.4153
64.3038
64.1912
64.0778
63.9635
63.8487
63.7334
63.6178
63.502
63.3861
63.2704
63.1549
63.0397
62.9251
62.811
62.6976
62.585
62.4733
62.3626
62.2529
62.1444
62.037
61.931
61.8262
61.7227
61.6206
61.5199
61.4206
61.3227
61.2263
61.1313
61.0377
60.9456
60.855
60.7657
60.6779
60.5914
60.5063
60.4226
60.3403
60.2592
60.1795
60.1011
60.024
59.9482
59.8737
59.8004
59.7285
59.6578
59.5883
59.5202
59.4534
59.3879
59.3238
59.261
59.1997
59.1397
59.0813
59.0243
58.9689
58.9151
58.8629
58.8124
58.7637
58.7167
58.6716
58.6284
58.5872
58.548
58.5108
58.4758
58.443
58.4125
58.3842
58.3584
58.3349
58.314
58.2955
58.2797
58.2664
58.2558
58.248
58.2429
58.2405
58.241
58.2444
58.2506
58.2598
58.2718
58.2869
58.3049
58.3259
58.3498
58.3768
58.4068
58.4398
58.4758
58.5147
58.5567
58.6016
58.6496
58.7004
58.7542
58.8108
58.8704
58.9328
58.998
59.0659
59.1366
59.21
59.286
59.3645
59.4457
59.5293
59.6153
59.7036
59.7943
59.8871
59.9821
60.0792
60.1782
60.2792
60.3819
60.4863
60.5924
60.7
60.809
60.9193
61.0309
61.1436
61.2573
61.3718
61.4872
61.6032
61.7198
61.8368
61.9542
62.0718
62.1895
62.3072
62.4248
62.5421
62.6591
62.7757
62.8918
63.0072
63.1218
63.2357
63.3486
63.4605
63.5713
63.681
63.7894
63.8965
64.0023
64.1066
64.2094
64.3107
64.4103
64.5084
64.6047
64.6994
64.7923
64.8835
64.9729
65.0605
65.1463
65.2303
65.3125
65.3928
65.4713
65.5481
65.623
65.6961
65.7675
65.8371
65.905
65.9712
66.0356
66.0985
66.1597
66.2193
66.2773
66.3338
66.3888
66.4423
66.4944
66.5451
66.5944
66.6424
66.6892
66.7347
66.779
66.8222
66.8642
66.9051
66.9451
66.984
67.0219
67.0589
67.0952
67.1303
67.1653
67.1978
67.2338
67.259
67.3099
67.2037
67.2017
67.1977
67.1916
67.1835
67.1733
67.161
67.1466
67.1302
67.1116
67.0908
67.0679
67.0428
67.0155
66.986
66.9541
66.92
66.8835
66.8446
66.8033
66.7596
66.7134
66.6647
66.6135
66.5597
66.5033
66.4443
66.3827
66.3185
66.2516
66.182
66.1098
66.0349
65.9574
65.8773
65.7946
65.7093
65.6215
65.5312
65.4385
65.3435
65.2462
65.1468
65.0452
64.9417
64.8364
64.7293
64.6205
64.5103
64.3988
64.286
64.1722
64.0575
63.9421
63.826
63.7095
63.5927
63.4758
63.3589
63.242
63.1255
63.0094
62.8938
62.7788
62.6646
62.5513
62.4389
62.3276
62.2173
62.1083
62.0005
61.894
61.7889
61.6851
61.5828
61.4819
61.3824
61.2844
61.1879
61.0929
60.9993
60.9072
60.8166
60.7274
60.6396
60.5532
60.4682
60.3846
60.3023
60.2213
60.1417
60.0633
59.9863
59.9105
59.8359
59.7627
59.6907
59.6199
59.5504
59.4822
59.4152
59.3496
59.2853
59.2223
59.1607
59.1005
59.0418
58.9845
58.9288
58.8746
58.8221
58.7713
58.7221
58.6748
58.6293
58.5857
58.5441
58.5044
58.4669
58.4315
58.3983
58.3674
58.3387
58.3125
58.2887
58.2673
58.2486
58.2324
58.2188
58.2079
58.1998
58.1944
58.1918
58.1921
58.1953
58.2013
58.2103
58.2222
58.2371
58.255
58.2759
58.2999
58.3268
58.3568
58.3898
58.4258
58.4648
58.5069
58.5519
58.6
58.651
58.7049
58.7618
58.8215
58.8842
58.9496
59.0179
59.0889
59.1626
59.239
59.318
59.3995
59.4836
59.5701
59.659
59.7501
59.8436
59.9392
60.0369
60.1365
60.2382
60.3416
60.4468
60.5536
60.662
60.7718
60.883
60.9955
61.109
61.2236
61.3391
61.4554
61.5724
61.6899
61.8079
61.9263
62.0449
62.1635
62.2822
62.4008
62.5191
62.6371
62.7547
62.8717
62.988
63.1036
63.2184
63.3322
63.445
63.5566
63.6671
63.7763
63.8842
63.9907
64.0957
64.1992
64.3011
64.4014
64.5
64.5969
64.6921
64.7855
64.8771
64.9669
65.0549
65.1411
65.2254
65.3078
65.3884
65.4672
65.5441
65.6192
65.6925
65.7639
65.8337
65.9016
65.9678
66.0323
66.0951
66.1563
66.2159
66.2739
66.3303
66.3852
66.4386
66.4906
66.5412
66.5904
66.6383
66.6849
66.7302
66.7744
66.8173
66.8592
66.9
66.9397
66.9784
67.0162
67.053
67.089
67.1239
67.1587
67.1911
67.2269
67.252
67.3025
67.2037
67.2017
67.1978
67.1917
67.1836
67.1734
67.1612
67.1469
67.1305
67.112
67.0914
67.0686
67.0436
67.0163
66.9869
66.9551
66.921
66.8846
66.8458
66.8045
66.7608
66.7146
66.6659
66.6146
66.5607
66.5042
66.4451
66.3833
66.3188
66.2516
66.1816
66.109
66.0337
65.9556
65.8749
65.7915
65.7055
65.6169
65.5258
65.4322
65.3362
65.2378
65.1373
65.0346
64.9299
64.8232
64.7148
64.6048
64.4932
64.3803
64.2661
64.1509
64.0348
63.918
63.8005
63.6827
63.5645
63.4463
63.3281
63.2101
63.0924
62.9752
62.8585
62.7426
62.6275
62.5133
62.4002
62.2881
62.1772
62.0676
61.9593
61.8524
61.7469
61.6428
61.5402
61.4391
61.3395
61.2414
61.1448
61.0497
60.9562
60.8641
60.7735
60.6844
60.5967
60.5104
60.4255
60.3419
60.2598
60.1789
60.0993
60.021
59.944
59.8683
59.7938
59.7205
59.6484
59.5776
59.508
59.4397
59.3726
59.3067
59.2422
59.179
59.1172
59.0567
58.9976
58.94
58.884
58.8294
58.7765
58.7252
58.6757
58.6279
58.582
58.5379
58.4958
58.4557
58.4177
58.3819
58.3482
58.3168
58.2878
58.2611
58.2369
58.2151
58.1959
58.1794
58.1655
58.1542
58.1458
58.1401
58.1372
58.1373
58.1402
58.146
58.1548
58.1666
58.1814
58.1991
58.22
58.2438
58.2707
58.3007
58.3337
58.3697
58.4088
58.451
58.4961
58.5443
58.5955
58.6496
58.7067
58.7667
58.8296
58.8954
58.964
59.0353
59.1094
59.1862
59.2657
59.3477
59.4323
59.5193
59.6088
59.7006
59.7946
59.8909
59.9893
60.0897
60.1921
60.2964
60.4024
60.5101
60.6193
60.7301
60.8422
60.9556
61.0702
61.1858
61.3023
61.4197
61.5377
61.6564
61.7755
61.895
62.0146
62.1344
62.2542
62.3739
62.4934
62.6125
62.7311
62.8492
62.9666
63.0833
63.199
63.3139
63.4276
63.5403
63.6517
63.7618
63.8705
63.9778
64.0836
64.1879
64.2905
64.3915
64.4907
64.5883
64.684
64.778
64.8701
64.9604
65.0488
65.1353
65.2199
65.3027
65.3836
65.4626
65.5397
65.615
65.6885
65.7601
65.8299
65.8979
65.9642
66.0287
66.0915
66.1527
66.2122
66.2701
66.3264
66.3812
66.4345
66.4864
66.5368
66.5859
66.6336
66.68
66.7252
66.7692
66.812
66.8536
66.8942
66.9337
66.9722
67.0098
67.0463
67.0822
67.1168
67.1514
67.1835
67.2191
67.244
67.2942
67.2037
67.2018
67.1978
67.1918
67.1837
67.1736
67.1615
67.1473
67.131
67.1126
67.092
67.0693
67.0444
67.0173
66.9879
66.9563
66.9223
66.8859
66.8472
66.806
66.7623
66.7161
66.6674
66.616
66.5621
66.5054
66.4461
66.3841
66.3193
66.2518
66.1815
66.1084
66.0325
65.9539
65.8725
65.7884
65.7016
65.6121
65.52
65.4254
65.3283
65.2288
65.127
65.023
64.9169
64.8088
64.699
64.5874
64.4743
64.3598
64.2441
64.1273
64.0096
63.8912
63.7722
63.6528
63.5332
63.4135
63.2939
63.1745
63.0555
62.9371
62.8193
62.7022
62.5861
62.471
62.357
62.2442
62.1326
62.0224
61.9135
61.8061
61.7002
61.5958
61.4929
61.3916
61.2918
61.1936
61.097
61.0019
60.9084
60.8163
60.7258
60.6368
60.5492
60.463
60.3782
60.2948
60.2128
60.132
60.0526
59.9744
59.8974
59.8217
59.7472
59.6739
59.6018
59.531
59.4613
59.3928
59.3255
59.2595
59.1948
59.1313
59.0692
59.0084
58.949
58.891
58.8345
58.7796
58.7262
58.6745
58.6244
58.5762
58.5297
58.4852
58.4425
58.4019
58.3634
58.3271
58.2929
58.261
58.2314
58.2043
58.1796
58.1574
58.1378
58.1208
58.1064
58.0948
58.086
58.08
58.0768
58.0766
58.0792
58.0848
58.0934
58.105
58.1196
58.1373
58.158
58.1818
58.2086
58.2386
58.2716
58.3077
58.3469
58.3891
58.4344
58.4827
58.534
58.5884
58.6457
58.706
58.7692
58.8353
58.9042
58.976
59.0505
59.1278
59.2077
59.2903
59.3754
59.463
59.5531
59.6456
59.7404
59.8374
59.9366
60.0378
60.141
60.2462
60.3531
60.4618
60.572
60.6838
60.797
60.9115
61.0271
61.1439
61.2616
61.3801
61.4994
61.6192
61.7395
61.8602
61.9812
62.1022
62.2233
62.3442
62.4649
62.5852
62.7051
62.8244
62.943
63.0608
63.1777
63.2937
63.4085
63.5222
63.6347
63.7458
63.8555
63.9637
64.0704
64.1755
64.2789
64.3807
64.4807
64.5789
64.6752
64.7698
64.8625
64.9532
65.0421
65.1291
65.2141
65.2972
65.3784
65.4577
65.5351
65.6106
65.6842
65.7559
65.8258
65.8939
65.9602
66.0248
66.0876
66.1487
66.2082
66.266
66.3223
66.377
66.4301
66.4818
66.5321
66.581
66.6285
66.6748
66.7197
66.7635
66.806
66.8475
66.8878
66.9271
66.9653
67.0026
67.039
67.0746
67.109
67.1433
67.1752
67.2105
67.2352
67.285
67.2037
67.2018
67.1979
67.1919
67.1839
67.1738
67.1618
67.1477
67.1315
67.1132
67.0927
67.0702
67.0454
67.0184
66.9892
66.9576
66.9238
66.8875
66.8489
66.8077
66.7641
66.7179
66.6692
66.6178
66.5637
66.507
66.4475
66.3852
66.3202
66.2523
66.1816
66.108
66.0316
65.9523
65.8702
65.7853
65.6976
65.6071
65.514
65.4182
65.3199
65.2191
65.1159
65.0105
64.9029
64.7932
64.6817
64.5685
64.4537
64.3374
64.22
64.1014
63.9819
63.8617
63.741
63.6199
63.4986
63.3773
63.2561
63.1352
63.0148
62.895
62.7759
62.6577
62.5405
62.4243
62.3094
62.1957
62.0834
61.9725
61.8631
61.7551
61.6488
61.544
61.4409
61.3394
61.2394
61.1412
61.0445
60.9494
60.8559
60.764
60.6735
60.5846
60.4972
60.4112
60.3266
60.2433
60.1614
60.0808
60.0015
59.9234
59.8466
59.7709
59.6965
59.6232
59.5511
59.4801
59.4103
59.3417
59.2743
59.2081
59.1431
59.0793
59.0168
58.9557
58.8959
58.8375
58.7806
58.7252
58.6713
58.6191
58.5685
58.5197
58.4727
58.4276
58.3844
58.3432
58.3041
58.2671
58.2324
58.1999
58.1698
58.1421
58.1169
58.0942
58.0741
58.0566
58.0419
58.0299
58.0206
58.0142
58.0107
58.0102
58.0125
58.0179
58.0262
58.0376
58.052
58.0696
58.0902
58.1139
58.1407
58.1706
58.2036
58.2397
58.279
58.3213
58.3667
58.4152
58.4667
58.5213
58.5789
58.6394
58.703
58.7694
58.8387
58.9109
58.9859
59.0637
59.1441
59.2273
59.313
59.4013
59.4921
59.5853
59.6808
59.7786
59.8787
59.9808
60.085
60.1911
60.299
60.4087
60.5201
60.633
60.7473
60.863
60.9799
61.0979
61.2168
61.3367
61.4572
61.5784
61.7001
61.8222
61.9445
62.0669
62.1893
62.3116
62.4337
62.5554
62.6766
62.7973
62.9172
63.0363
63.1545
63.2717
63.3877
63.5026
63.6162
63.7284
63.8392
63.9484
64.0561
64.1621
64.2664
64.369
64.4698
64.5687
64.6658
64.761
64.8543
64.9456
65.035
65.1225
65.2079
65.2914
65.373
65.4525
65.5302
65.6059
65.6796
65.7515
65.8215
65.8897
65.9561
66.0206
66.0834
66.1445
66.2039
66.2617
66.3178
66.3724
66.4254
66.4769
66.527
66.5757
66.6231
66.6691
66.7138
66.7573
66.7996
66.8408
66.8809
66.9199
66.9579
66.9949
67.0309
67.0662
67.1004
67.1344
67.166
67.201
67.2255
67.2749
67.2037
67.2018
67.1979
67.192
67.184
67.1741
67.1621
67.1481
67.132
67.1139
67.0936
67.0712
67.0466
67.0197
66.9906
66.9592
66.9255
66.8894
66.8508
66.8098
66.7662
66.7201
66.6714
66.6199
66.5658
66.5089
66.4493
66.3868
66.3214
66.2532
66.182
66.1079
66.0309
65.951
65.8681
65.7823
65.6936
65.6021
65.5078
65.4108
65.3111
65.2089
65.1042
64.9972
64.8879
64.7765
64.6632
64.5481
64.4314
64.3132
64.1937
64.0732
63.9518
63.8296
63.707
63.584
63.4608
63.3377
63.2148
63.0923
62.9703
62.849
62.7285
62.609
62.4905
62.3733
62.2573
62.1427
62.0296
61.918
61.8079
61.6995
61.5927
61.4876
61.3841
61.2824
61.1824
61.084
60.9873
60.8923
60.7989
60.707
60.6168
60.528
60.4408
60.355
60.2705
60.1875
60.1058
60.0254
59.9462
59.8683
59.7916
59.716
59.6416
59.5683
59.4962
59.4252
59.3553
59.2866
59.219
59.1525
59.0872
59.0232
58.9604
58.8988
58.8386
58.7798
58.7224
58.6664
58.612
58.5592
58.508
58.4586
58.411
58.3652
58.3214
58.2796
58.2399
58.2023
58.1669
58.1338
58.1031
58.0748
58.049
58.0258
58.0051
57.9871
57.9719
57.9594
57.9497
57.9429
57.939
57.9381
57.9401
57.9452
57.9533
57.9645
57.9787
57.9961
58.0165
58.0401
58.0669
58.0967
58.1298
58.1659
58.2052
58.2477
58.2932
58.3419
58.3936
58.4484
58.5063
58.5671
58.631
58.6978
58.7676
58.8402
58.9157
58.994
59.075
59.1588
59.2452
59.3342
59.4257
59.5197
59.6161
59.7147
59.8157
59.9188
60.024
60.1311
60.2402
60.351
60.4636
60.5777
60.6933
60.8102
60.9285
61.0478
61.1682
61.2894
61.4115
61.5341
61.6573
61.7808
61.9046
62.0286
62.1525
62.2763
62.3999
62.5231
62.6458
62.7679
62.8892
63.0098
63.1294
63.2479
63.3653
63.4815
63.5963
63.7097
63.8216
63.932
64.0407
64.1478
64.2531
64.3566
64.4582
64.558
64.6559
64.7518
64.8457
64.9376
65.0276
65.1155
65.2014
65.2853
65.3672
65.4471
65.525
65.601
65.6749
65.747
65.8171
65.8853
65.9517
66.0163
66.0791
66.1401
66.1994
66.2571
66.3131
66.3675
66.4204
66.4717
66.5216
66.5701
66.6172
66.663
66.7074
66.7507
66.7927
66.8336
66.8734
66.9121
66.9498
66.9865
67.0222
67.0572
67.0911
67.1248
67.1561
67.1908
67.215
67.2639
67.2037
67.2018
67.198
67.1921
67.1842
67.1744
67.1625
67.1486
67.1327
67.1147
67.0946
67.0723
67.0479
67.0212
66.9923
66.9611
66.9275
66.8916
66.8531
66.8122
66.7688
66.7227
66.674
66.6226
66.5684
66.5114
66.4516
66.3888
66.3232
66.2546
66.1829
66.1083
66.0307
65.95
65.8663
65.7796
65.6899
65.5972
65.5017
65.4033
65.3021
65.1983
65.092
64.9831
64.872
64.7587
64.6434
64.5263
64.4074
64.2871
64.1655
64.0428
63.9192
63.7949
63.6701
63.545
63.4199
63.2948
63.17
63.0456
62.9219
62.799
62.6769
62.556
62.4362
62.3178
62.2007
62.0852
61.9712
61.8588
61.7481
61.6391
61.5319
61.4264
61.3227
61.2208
61.1206
61.0222
60.9256
60.8306
60.7373
60.6456
60.5556
60.467
60.38
60.2945
60.2103
60.1275
60.0461
59.9659
59.8869
59.8092
59.7326
59.6572
59.5828
59.5096
59.4375
59.3664
59.2965
59.2276
59.1598
59.0931
59.0275
58.9631
58.8999
58.838
58.7773
58.7179
58.66
58.6035
58.5484
58.495
58.4432
58.3931
58.3448
58.2984
58.2539
58.2113
58.1709
58.1326
58.0966
58.0628
58.0314
58.0025
57.976
57.9522
57.9309
57.9124
57.8966
57.8836
57.8734
57.8662
57.8619
57.8606
57.8622
57.867
57.8748
57.8857
57.8997
57.9169
57.9372
57.9607
57.9874
58.0172
58.0503
58.0865
58.1258
58.1684
58.2141
58.2629
58.3148
58.3699
58.428
58.4892
58.5535
58.6207
58.6909
58.764
58.84
58.9188
59.0005
59.0849
59.172
59.2617
59.354
59.4489
59.5461
59.6458
59.7477
59.8518
59.9581
60.0664
60.1766
60.2887
60.4025
60.5179
60.6349
60.7533
60.8729
60.9938
61.1156
61.2384
61.362
61.4863
61.6111
61.7362
61.8617
61.9873
62.1129
62.2383
62.3635
62.4883
62.6127
62.7363
62.8593
62.9814
63.1025
63.2225
63.3413
63.4589
63.5751
63.6898
63.803
63.9146
64.0245
64.1326
64.239
64.3435
64.4461
64.5467
64.6454
64.7421
64.8367
64.9293
65.0198
65.1083
65.1947
65.2791
65.3613
65.4416
65.5197
65.5959
65.6701
65.7423
65.8125
65.8808
65.9473
66.0118
66.0746
66.1356
66.1948
66.2523
66.3082
66.3624
66.4151
66.4663
66.5159
66.5641
66.611
66.6565
66.7007
66.7436
66.7853
66.8259
66.8653
66.9037
66.9411
66.9775
67.0129
67.0475
67.081
67.1144
67.1454
67.1797
67.2037
67.252
67.2037
67.2018
67.198
67.1922
67.1844
67.1747
67.163
67.1492
67.1335
67.1156
67.0957
67.0736
67.0494
67.023
66.9942
66.9632
66.9299
66.8941
66.8558
66.8151
66.7717
66.7258
66.6771
66.6257
66.5715
66.5144
66.4544
66.3915
66.3255
66.2565
66.1845
66.1093
66.0309
65.9495
65.8649
65.7772
65.6864
65.5925
65.4956
65.3957
65.293
65.1875
65.0793
64.9685
64.8554
64.74
64.6225
64.5031
64.3819
64.2593
64.1353
64.0102
63.8842
63.7576
63.6304
63.5031
63.3757
63.2484
63.1215
62.9952
62.8696
62.7449
62.6212
62.4987
62.3776
62.2578
62.1396
62.023
61.9081
61.7949
61.6835
61.574
61.4663
61.3605
61.2565
61.1545
61.0542
60.9558
60.8592
60.7644
60.6713
60.5799
60.49
60.4018
60.3151
60.2298
60.146
60.0635
59.9824
59.9025
59.8238
59.7462
59.6699
59.5946
59.5204
59.4472
59.3751
59.304
59.2339
59.1649
59.0969
59.0299
58.964
58.8993
58.8357
58.7733
58.7121
58.6522