/*--------------------------------*- C++ -*----------------------------------*\
| =========                 |                                                 |
| \\      /  F ield         | OpenFOAM: The Open Source CFD Toolbox           |
|  \\    /   O peration     | Version:  2306                                  |
|   \\  /    A nd           | Website:  www.openfoam.com                      |
|    \\/     M anipulation  |                                                 |
\*---------------------------------------------------------------------------*/
FoamFile
{
    version     2.0;
    format      ascii;
    arch        "LSB;label=32;scalar=64";
    class       volScalarField;
    location    "8.5";
    object      p;
}
// * * * * * * * * * * * * * * * * * * * * * * * * * * * * * * * * * * * * * //

dimensions      [0 2 -2 0 0 0 0];

internalField   nonuniform List<scalar> 
32768
(
0.267251
0.267117
0.266826
0.266368
0.265743
0.264954
0.264001
0.262881
0.261593
0.260135
0.258504
0.2567
0.254719
0.252558
0.250216
0.247689
0.244974
0.242068
0.238968
0.23567
0.232171
0.228467
0.224555
0.220432
0.216094
0.211538
0.20676
0.201757
0.196527
0.191067
0.185374
0.179446
0.173281
0.166878
0.160236
0.153353
0.14623
0.138868
0.131267
0.123428
0.115354
0.107048
0.0985135
0.0897539
0.0807745
0.0715808
0.062179
0.0525759
0.0427791
0.0327969
0.022638
0.0123118
0.00182811
-0.00880259
-0.0195696
-0.0304616
-0.0414673
-0.052575
-0.0637727
-0.0750485
-0.0863905
-0.0977866
-0.109225
-0.120694
-0.132182
-0.143679
-0.155172
-0.166653
-0.17811
-0.189534
-0.200917
-0.212249
-0.223523
-0.234732
-0.245868
-0.256926
-0.267899
-0.278782
-0.289572
-0.300263
-0.310852
-0.321335
-0.331711
-0.341975
-0.352127
-0.362164
-0.372085
-0.381888
-0.391572
-0.401136
-0.410578
-0.419897
-0.429092
-0.438162
-0.447106
-0.455921
-0.464607
-0.473161
-0.48158
-0.489863
-0.498007
-0.506009
-0.513865
-0.521571
-0.529125
-0.536521
-0.543756
-0.550823
-0.557718
-0.564437
-0.570972
-0.577318
-0.583469
-0.58942
-0.595163
-0.600691
-0.606
-0.611081
-0.615929
-0.620536
-0.624896
-0.629003
-0.632851
-0.636433
-0.639743
-0.642776
-0.645526
-0.647987
-0.650156
-0.652027
-0.653596
-0.65486
-0.655815
-0.656458
-0.656786
-0.656798
-0.656491
-0.655864
-0.654918
-0.653651
-0.652063
-0.650156
-0.647931
-0.64539
-0.642534
-0.639367
-0.635891
-0.632111
-0.62803
-0.623653
-0.618986
-0.614033
-0.608801
-0.603297
-0.597526
-0.591497
-0.585217
-0.578694
-0.571937
-0.564953
-0.557753
-0.550346
-0.542742
-0.53495
-0.526981
-0.518845
-0.510554
-0.502118
-0.493549
-0.484857
-0.476054
-0.467152
-0.458162
-0.449096
-0.439966
-0.430782
-0.421558
-0.412303
-0.403029
-0.393748
-0.384471
-0.375208
-0.36597
-0.356766
-0.347608
-0.338505
-0.329465
-0.320498
-0.311613
-0.302817
-0.294118
-0.285524
-0.277041
-0.268675
-0.260432
-0.252319
-0.244338
-0.236496
-0.228795
-0.22124
-0.213834
-0.206578
-0.199476
-0.192528
-0.185737
-0.179102
-0.172625
-0.166306
-0.160144
-0.154138
-0.148289
-0.142594
-0.137053
-0.131663
-0.126423
-0.121331
-0.116383
-0.111578
-0.106913
-0.102384
-0.0979892
-0.0937252
-0.0895886
-0.085576
-0.081684
-0.0779092
-0.074248
-0.0706967
-0.0672519
-0.0639097
-0.0606665
-0.0575187
-0.0544626
-0.0514944
-0.0486106
-0.0458075
-0.0430814
-0.0404288
-0.0378461
-0.0353298
-0.0328763
-0.0304823
-0.0281443
-0.0258589
-0.0236229
-0.0214331
-0.019286
-0.0171788
-0.0151077
-0.0130715
-0.0110626
-0.0090895
-0.00712108
-0.0052226
-0.00321705
-0.00147285
0.267412
0.267279
0.266989
0.26653
0.265906
0.265118
0.264165
0.263046
0.261759
0.260302
0.258672
0.256869
0.254889
0.25273
0.250389
0.247863
0.24515
0.242245
0.239145
0.235848
0.23235
0.228647
0.224736
0.220614
0.216276
0.211719
0.206941
0.201938
0.196707
0.191245
0.18555
0.17962
0.173452
0.167045
0.160399
0.153512
0.146384
0.139016
0.131409
0.123564
0.115482
0.107168
0.098625
0.0898563
0.0808672
0.0716633
0.0622507
0.0526365
0.0428282
0.0328341
0.022663
0.0123244
0.00182818
-0.00881519
-0.0195949
-0.0304996
-0.0415179
-0.0526379
-0.0638478
-0.0751355
-0.086489
-0.0978963
-0.109345
-0.120825
-0.132323
-0.143828
-0.15533
-0.166818
-0.178282
-0.189713
-0.201102
-0.212439
-0.223718
-0.23493
-0.24607
-0.25713
-0.268105
-0.27899
-0.289781
-0.300472
-0.311062
-0.321545
-0.33192
-0.342184
-0.352335
-0.362371
-0.37229
-0.382092
-0.391774
-0.401336
-0.410777
-0.420095
-0.429289
-0.438358
-0.447301
-0.456115
-0.4648
-0.473354
-0.481774
-0.490057
-0.498202
-0.506205
-0.514062
-0.52177
-0.529326
-0.536725
-0.543962
-0.551032
-0.557931
-0.564652
-0.571191
-0.577541
-0.583697
-0.589651
-0.595399
-0.600932
-0.606245
-0.611331
-0.616183
-0.620795
-0.62516
-0.629272
-0.633124
-0.636711
-0.640025
-0.643062
-0.645816
-0.648282
-0.650455
-0.652329
-0.653902
-0.655169
-0.656127
-0.656772
-0.657103
-0.657116
-0.656811
-0.656187
-0.655241
-0.653975
-0.652389
-0.650482
-0.648257
-0.645716
-0.64286
-0.639692
-0.636215
-0.632433
-0.628351
-0.623973
-0.619303
-0.614348
-0.609114
-0.603607
-0.597833
-0.5918
-0.585517
-0.57899
-0.572228
-0.56524
-0.558035
-0.550623
-0.543013
-0.535216
-0.527241
-0.519099
-0.510802
-0.502359
-0.493783
-0.485084
-0.476274
-0.467364
-0.458367
-0.449293
-0.440154
-0.430963
-0.42173
-0.412466
-0.403184
-0.393895
-0.384609
-0.375337
-0.36609
-0.356878
-0.347712
-0.3386
-0.329552
-0.320576
-0.311683
-0.302879
-0.294172
-0.28557
-0.277079
-0.268706
-0.260456
-0.252336
-0.244349
-0.2365
-0.228794
-0.221233
-0.213821
-0.20656
-0.199453
-0.192501
-0.185705
-0.179066
-0.172586
-0.166263
-0.160098
-0.15409
-0.148238
-0.142541
-0.136998
-0.131607
-0.126365
-0.121271
-0.116323
-0.111517
-0.106851
-0.102322
-0.0979276
-0.0936637
-0.0895275
-0.0855154
-0.0816241
-0.0778502
-0.0741899
-0.0706398
-0.0671962
-0.0638553
-0.0606136
-0.0574674
-0.0544129
-0.0514464
-0.0485644
-0.0457632
-0.043039
-0.0403884
-0.0378077
-0.0352935
-0.0328421
-0.0304502
-0.0281144
-0.0258312
-0.0235974
-0.0214098
-0.0192649
-0.01716
-0.015091
-0.0130571
-0.0110502
-0.00907961
-0.00711242
-0.00521747
-0.00320925
-0.00147827
0.267736
0.267603
0.267313
0.266856
0.266232
0.265445
0.264494
0.263377
0.262091
0.260636
0.259009
0.257208
0.255231
0.253074
0.250736
0.248212
0.245501
0.242598
0.239502
0.236207
0.23271
0.229009
0.225099
0.220977
0.21664
0.212083
0.207304
0.202299
0.197066
0.191602
0.185903
0.179968
0.173794
0.167381
0.160727
0.153831
0.146694
0.139314
0.131694
0.123835
0.11574
0.107409
0.0988489
0.0900618
0.0810532
0.0718288
0.0623948
0.0527582
0.0429267
0.0329087
0.0227132
0.0123497
0.00182822
-0.0088406
-0.0196458
-0.030576
-0.0416195
-0.0527645
-0.0639988
-0.0753104
-0.086687
-0.0981166
-0.109587
-0.121087
-0.132604
-0.144127
-0.155646
-0.16715
-0.178629
-0.190072
-0.201473
-0.21282
-0.224108
-0.235329
-0.246475
-0.25754
-0.268519
-0.279408
-0.2902
-0.300893
-0.311482
-0.321965
-0.332339
-0.342602
-0.35275
-0.362784
-0.372701
-0.382499
-0.392179
-0.401738
-0.411175
-0.420491
-0.429682
-0.438749
-0.44769
-0.456504
-0.465188
-0.473741
-0.482161
-0.490446
-0.498592
-0.506597
-0.514457
-0.522169
-0.529729
-0.537132
-0.544374
-0.55145
-0.558356
-0.565084
-0.571631
-0.577989
-0.584152
-0.590116
-0.595872
-0.601414
-0.606737
-0.611832
-0.616694
-0.621315
-0.62569
-0.629811
-0.633673
-0.637268
-0.640592
-0.643637
-0.646399
-0.648873
-0.651053
-0.652935
-0.654515
-0.655788
-0.656751
-0.657402
-0.657737
-0.657755
-0.657454
-0.656833
-0.65589
-0.654626
-0.653041
-0.651135
-0.648911
-0.646369
-0.643512
-0.640343
-0.636864
-0.633081
-0.628995
-0.624613
-0.61994
-0.61498
-0.609741
-0.604227
-0.598448
-0.592408
-0.586117
-0.579582
-0.572812
-0.565815
-0.5586
-0.551178
-0.543558
-0.535749
-0.527762
-0.519609
-0.511298
-0.502842
-0.494252
-0.485539
-0.476715
-0.46779
-0.458777
-0.449688
-0.440533
-0.431325
-0.422075
-0.412795
-0.403496
-0.394189
-0.384886
-0.375597
-0.366332
-0.357103
-0.347919
-0.33879
-0.329725
-0.320733
-0.311823
-0.303003
-0.29428
-0.285662
-0.277156
-0.268768
-0.260504
-0.25237
-0.24437
-0.236508
-0.22879
-0.221217
-0.213794
-0.206523
-0.199406
-0.192445
-0.185641
-0.178994
-0.172506
-0.166177
-0.160006
-0.153992
-0.148135
-0.142434
-0.136887
-0.131492
-0.126248
-0.121152
-0.116202
-0.111395
-0.106728
-0.102199
-0.0978041
-0.0935405
-0.0894049
-0.0853939
-0.0815041
-0.0777318
-0.0740735
-0.0705256
-0.0670844
-0.0637463
-0.0605075
-0.0573644
-0.0543132
-0.0513502
-0.0484718
-0.0456743
-0.042954
-0.0403074
-0.0377308
-0.0352207
-0.0327736
-0.030386
-0.0280545
-0.0257757
-0.0235463
-0.0213631
-0.0192226
-0.0171222
-0.0150577
-0.0130282
-0.0110257
-0.00905945
-0.00709645
-0.00520604
-0.00320192
-0.00147744
0.268221
0.268089
0.267799
0.267343
0.266721
0.265936
0.264987
0.263872
0.26259
0.261137
0.259514
0.257716
0.255743
0.25359
0.251255
0.248736
0.246028
0.243129
0.240036
0.236744
0.233251
0.229552
0.225644
0.221523
0.217186
0.212629
0.207849
0.202843
0.197606
0.192137
0.186433
0.180491
0.174309
0.167886
0.16122
0.154311
0.147158
0.139762
0.132124
0.124244
0.116126
0.107772
0.0991854
0.0903707
0.0813328
0.0720775
0.0626111
0.0529408
0.0430745
0.0330206
0.0227882
0.0123871
0.00182763
-0.00887953
-0.0197232
-0.0306917
-0.0417733
-0.0529558
-0.0642269
-0.0755744
-0.0869859
-0.0984491
-0.109952
-0.121482
-0.133028
-0.144579
-0.156123
-0.16765
-0.17915
-0.190614
-0.202031
-0.213395
-0.224696
-0.235928
-0.247083
-0.258157
-0.269142
-0.280035
-0.290831
-0.301525
-0.312115
-0.322597
-0.332969
-0.343229
-0.353375
-0.363404
-0.373317
-0.383111
-0.392786
-0.40234
-0.411774
-0.421085
-0.430273
-0.439336
-0.448275
-0.457086
-0.465769
-0.474322
-0.482742
-0.491028
-0.499176
-0.507185
-0.515049
-0.522766
-0.530332
-0.537743
-0.544993
-0.552078
-0.558993
-0.565732
-0.57229
-0.57866
-0.584836
-0.590812
-0.596582
-0.602138
-0.607474
-0.612584
-0.61746
-0.622096
-0.626485
-0.63062
-0.634496
-0.638105
-0.641442
-0.6445
-0.647275
-0.649761
-0.651952
-0.653845
-0.655435
-0.656717
-0.65769
-0.658348
-0.658691
-0.658715
-0.65842
-0.657803
-0.656864
-0.655604
-0.654021
-0.652117
-0.649893
-0.647351
-0.644493
-0.641322
-0.63784
-0.634053
-0.629963
-0.625576
-0.620896
-0.61593
-0.610682
-0.605161
-0.599371
-0.593321
-0.587019
-0.580472
-0.573689
-0.566679
-0.55945
-0.552012
-0.544376
-0.53655
-0.528546
-0.520374
-0.512044
-0.503569
-0.494958
-0.486224
-0.477377
-0.46843
-0.459394
-0.450281
-0.441102
-0.431869
-0.422594
-0.413289
-0.403964
-0.394632
-0.385302
-0.375987
-0.366696
-0.357441
-0.348231
-0.339076
-0.329986
-0.320968
-0.312033
-0.303189
-0.294442
-0.285801
-0.277272
-0.268862
-0.260577
-0.252421
-0.244401
-0.236521
-0.228784
-0.221194
-0.213755
-0.206468
-0.199336
-0.192361
-0.185544
-0.178886
-0.172387
-0.166047
-0.159867
-0.153845
-0.147981
-0.142273
-0.13672
-0.131321
-0.126072
-0.120973
-0.11602
-0.111211
-0.106543
-0.102013
-0.0976183
-0.0933553
-0.0892208
-0.0852114
-0.0813236
-0.0775538
-0.0738985
-0.070354
-0.0669165
-0.0635825
-0.0603481
-0.0572097
-0.0541634
-0.0512057
-0.0483327
-0.0455408
-0.0428263
-0.0401857
-0.0376152
-0.0351113
-0.0326706
-0.0302894
-0.0279644
-0.0256922
-0.0234695
-0.0212929
-0.0191591
-0.0170654
-0.0150076
-0.0129848
-0.0109889
-0.00902926
-0.00707281
-0.00518901
-0.00319154
-0.00147346
0.268868
0.268736
0.268447
0.267992
0.267372
0.26659
0.265644
0.264532
0.263254
0.261806
0.260186
0.258394
0.256425
0.254277
0.251948
0.249433
0.246731
0.243837
0.240748
0.237461
0.233971
0.230276
0.226371
0.222252
0.217916
0.213359
0.208578
0.203568
0.198328
0.192853
0.187141
0.18119
0.174997
0.168561
0.16188
0.154953
0.14778
0.140362
0.132698
0.124791
0.116643
0.108257
0.0996358
0.0907841
0.0817069
0.0724102
0.0629004
0.0531849
0.0432717
0.0331695
0.0228877
0.0124363
0.0018257
-0.00893294
-0.0198282
-0.0308482
-0.0419808
-0.0532137
-0.0645342
-0.0759299
-0.0873881
-0.0988963
-0.110442
-0.122013
-0.133598
-0.145185
-0.156764
-0.168322
-0.179851
-0.19134
-0.202781
-0.214165
-0.225484
-0.236731
-0.247899
-0.258983
-0.269977
-0.280875
-0.291675
-0.302371
-0.312961
-0.323442
-0.333812
-0.344068
-0.354209
-0.364233
-0.37414
-0.383928
-0.393596
-0.403144
-0.412572
-0.421877
-0.43106
-0.440119
-0.449053
-0.457862
-0.466543
-0.475095
-0.483516
-0.491804
-0.499955
-0.507968
-0.515838
-0.523562
-0.531136
-0.538556
-0.545818
-0.552915
-0.559843
-0.566596
-0.573169
-0.579555
-0.585748
-0.591741
-0.597529
-0.603104
-0.608459
-0.613588
-0.618483
-0.623138
-0.627547
-0.631701
-0.635595
-0.639223
-0.642578
-0.645654
-0.648445
-0.650947
-0.653154
-0.655061
-0.656664
-0.65796
-0.658944
-0.659613
-0.659966
-0.659999
-0.659711
-0.6591
-0.658167
-0.65691
-0.655331
-0.653429
-0.651206
-0.648663
-0.645804
-0.64263
-0.639145
-0.635353
-0.631257
-0.626863
-0.622175
-0.617199
-0.611941
-0.606408
-0.600606
-0.594543
-0.588226
-0.581663
-0.574863
-0.567834
-0.560586
-0.553128
-0.54547
-0.537622
-0.529595
-0.521398
-0.513043
-0.504541
-0.495902
-0.48714
-0.478264
-0.469286
-0.460219
-0.451074
-0.441863
-0.432598
-0.423289
-0.41395
-0.404591
-0.395224
-0.385859
-0.376509
-0.367184
-0.357893
-0.348649
-0.339459
-0.330334
-0.321283
-0.312315
-0.303437
-0.294659
-0.285986
-0.277427
-0.268987
-0.260673
-0.25249
-0.244443
-0.236537
-0.228776
-0.221163
-0.213701
-0.206394
-0.199242
-0.192249
-0.185415
-0.17874
-0.172227
-0.165874
-0.159681
-0.153648
-0.147774
-0.142058
-0.136497
-0.131091
-0.125837
-0.120733
-0.115777
-0.110965
-0.106295
-0.101765
-0.0973698
-0.0931075
-0.0889744
-0.0849672
-0.0810822
-0.0773158
-0.0736645
-0.0701245
-0.0666921
-0.0633635
-0.060135
-0.0570028
-0.0539632
-0.0510124
-0.0481467
-0.0453624
-0.0426557
-0.040023
-0.0374607
-0.0349652
-0.0325329
-0.0301604
-0.0278441
-0.0255807
-0.0233668
-0.0211991
-0.0190743
-0.0169895
-0.0149406
-0.0129268
-0.0109397
-0.00898895
-0.00704131
-0.00516619
-0.00317753
-0.00146768
0.269675
0.269543
0.269256
0.268803
0.268186
0.267406
0.266464
0.265357
0.264083
0.26264
0.261027
0.25924
0.257278
0.255136
0.252814
0.250306
0.24761
0.244723
0.24164
0.238358
0.234874
0.231183
0.227281
0.223165
0.21883
0.214273
0.20949
0.204478
0.199233
0.193751
0.18803
0.182068
0.175861
0.169408
0.162708
0.155759
0.148561
0.141114
0.13342
0.125479
0.117293
0.108866
0.100202
0.0913032
0.0821766
0.0728277
0.0632633
0.0534908
0.0435185
0.0333555
0.0230114
0.0124964
0.00182141
-0.00900215
-0.0199625
-0.0310474
-0.0422443
-0.0535406
-0.0649234
-0.0763797
-0.0878967
-0.0994615
-0.111062
-0.122684
-0.134318
-0.145951
-0.157571
-0.169169
-0.180733
-0.192255
-0.203725
-0.215134
-0.226476
-0.237741
-0.248926
-0.260022
-0.271025
-0.281931
-0.292735
-0.303433
-0.314023
-0.324502
-0.334868
-0.345119
-0.355254
-0.365271
-0.37517
-0.38495
-0.39461
-0.40415
-0.41357
-0.422867
-0.432043
-0.441097
-0.450026
-0.458831
-0.46751
-0.476061
-0.484483
-0.492773
-0.500928
-0.508946
-0.516823
-0.524556
-0.532141
-0.539573
-0.546848
-0.55396
-0.560905
-0.567676
-0.574268
-0.580674
-0.586889
-0.592904
-0.598715
-0.604313
-0.609692
-0.614845
-0.619765
-0.624444
-0.628877
-0.633055
-0.636973
-0.640624
-0.644001
-0.647099
-0.649912
-0.652434
-0.65466
-0.656586
-0.658206
-0.659518
-0.660517
-0.6612
-0.661564
-0.661608
-0.66133
-0.660727
-0.659801
-0.658549
-0.656974
-0.655074
-0.652852
-0.650309
-0.647448
-0.644271
-0.640782
-0.636983
-0.63288
-0.628477
-0.623779
-0.618792
-0.613521
-0.607973
-0.602155
-0.596075
-0.589739
-0.583156
-0.576335
-0.569284
-0.562012
-0.554529
-0.546844
-0.538968
-0.530911
-0.522683
-0.514296
-0.505761
-0.497088
-0.488289
-0.479377
-0.470362
-0.461256
-0.452071
-0.442819
-0.433512
-0.424162
-0.41478
-0.405378
-0.395967
-0.386559
-0.377165
-0.367796
-0.358461
-0.349173
-0.33994
-0.330772
-0.321679
-0.312668
-0.30375
-0.294931
-0.286219
-0.277621
-0.269144
-0.260794
-0.252576
-0.244496
-0.236558
-0.228766
-0.221123
-0.213634
-0.2063
-0.199124
-0.192107
-0.185251
-0.178557
-0.172025
-0.165655
-0.159447
-0.1534
-0.147514
-0.141787
-0.136217
-0.130802
-0.125541
-0.120432
-0.115471
-0.110656
-0.105984
-0.101453
-0.0970577
-0.0927964
-0.0886652
-0.0846607
-0.0807792
-0.0770172
-0.0733709
-0.0698365
-0.0664104
-0.0630887
-0.0598676
-0.0567433
-0.0537121
-0.05077
-0.0479135
-0.0451386
-0.0424416
-0.039819
-0.0372669
-0.0347819
-0.0323603
-0.0299985
-0.0276932
-0.0254409
-0.0232381
-0.0210816
-0.018968
-0.0168943
-0.0148567
-0.012854
-0.0108781
-0.00893843
-0.00700183
-0.00513753
-0.00315997
-0.00146036
0.270642
0.270511
0.270225
0.269775
0.26916
0.268385
0.267447
0.266345
0.265077
0.263641
0.262034
0.260255
0.2583
0.256167
0.253853
0.251353
0.248666
0.245786
0.242711
0.239436
0.235958
0.232272
0.228375
0.224262
0.21993
0.215373
0.210589
0.205573
0.200322
0.194833
0.189101
0.183125
0.176902
0.17043
0.163706
0.156731
0.149503
0.142023
0.134291
0.126308
0.118078
0.109602
0.100884
0.0919297
0.0827433
0.0733313
0.0637006
0.0538591
0.0438152
0.0335784
0.0231586
0.0125666
0.00181348
-0.00908882
-0.0201281
-0.0312917
-0.0425666
-0.0539398
-0.0653979
-0.0769277
-0.0885158
-0.100149
-0.111815
-0.1235
-0.135192
-0.14688
-0.158551
-0.170196
-0.181804
-0.193364
-0.204868
-0.216308
-0.227676
-0.238964
-0.250166
-0.261277
-0.272292
-0.283205
-0.294014
-0.304714
-0.315304
-0.32578
-0.336141
-0.346385
-0.356512
-0.36652
-0.37641
-0.386179
-0.395829
-0.405359
-0.414768
-0.424056
-0.433224
-0.44227
-0.451193
-0.459994
-0.46867
-0.477219
-0.485642
-0.493934
-0.502094
-0.510118
-0.518004
-0.525748
-0.533346
-0.540793
-0.548084
-0.555215
-0.56218
-0.568973
-0.575588
-0.582019
-0.588259
-0.594302
-0.60014
-0.605766
-0.611174
-0.616357
-0.621306
-0.626015
-0.630477
-0.634685
-0.638632
-0.642311
-0.645715
-0.64884
-0.651678
-0.654225
-0.656475
-0.658422
-0.660064
-0.661394
-0.662411
-0.663111
-0.66349
-0.663547
-0.66328
-0.662688
-0.661769
-0.660524
-0.658953
-0.657057
-0.654836
-0.652293
-0.64943
-0.646249
-0.642754
-0.638948
-0.634836
-0.630422
-0.625712
-0.620711
-0.615425
-0.60986
-0.604023
-0.597922
-0.591564
-0.584957
-0.57811
-0.571032
-0.563731
-0.556217
-0.5485
-0.54059
-0.532498
-0.524233
-0.515808
-0.507232
-0.498518
-0.489677
-0.48072
-0.471659
-0.462507
-0.453274
-0.443973
-0.434616
-0.425215
-0.415782
-0.406328
-0.396865
-0.387404
-0.377957
-0.368534
-0.359147
-0.349806
-0.34052
-0.3313
-0.322155
-0.313095
-0.304126
-0.295259
-0.286499
-0.277855
-0.269333
-0.260939
-0.252679
-0.244558
-0.236581
-0.228752
-0.221075
-0.213552
-0.206186
-0.19898
-0.191936
-0.185054
-0.178336
-0.171781
-0.165391
-0.159165
-0.153101
-0.1472
-0.141459
-0.135878
-0.130454
-0.125185
-0.120068
-0.115102
-0.110283
-0.105609
-0.101076
-0.0966812
-0.0924211
-0.0882922
-0.084291
-0.0804139
-0.0766571
-0.0730168
-0.0694894
-0.0660709
-0.0627575
-0.0595453
-0.0564306
-0.0534094
-0.050478
-0.0476324
-0.0448689
-0.0421837
-0.0395732
-0.0370335
-0.0345611
-0.0321523
-0.0298036
-0.0275115
-0.0252724
-0.023083
-0.02094
-0.0188398
-0.0167797
-0.0147556
-0.0127664
-0.010804
-0.00887757
-0.00695428
-0.005103
-0.00313883
-0.00145148
0.271768
0.271638
0.271354
0.270906
0.270295
0.269524
0.268592
0.267497
0.266236
0.264807
0.263209
0.261439
0.259493
0.25737
0.255065
0.252575
0.249897
0.247027
0.243962
0.240695
0.237225
0.233546
0.229655
0.225546
0.221217
0.216661
0.211876
0.206856
0.201599
0.196101
0.190357
0.184366
0.178124
0.171629
0.164879
0.157873
0.15061
0.14309
0.135314
0.127283
0.119
0.110466
0.101687
0.0926657
0.0834088
0.0739223
0.0642134
0.0542904
0.044162
0.033838
0.0233289
0.0126457
0.00180034
-0.00919501
-0.0203275
-0.031584
-0.0429511
-0.054415
-0.0659621
-0.0775784
-0.0892503
-0.100964
-0.112707
-0.124465
-0.136226
-0.147978
-0.15971
-0.17141
-0.183067
-0.194673
-0.206217
-0.217692
-0.22909
-0.240404
-0.251627
-0.262755
-0.273781
-0.284703
-0.295517
-0.306218
-0.316806
-0.327278
-0.337633
-0.347869
-0.357985
-0.367982
-0.377859
-0.387616
-0.397253
-0.40677
-0.416167
-0.425444
-0.434601
-0.443638
-0.452554
-0.461348
-0.470021
-0.478569
-0.486992
-0.495287
-0.503452
-0.511484
-0.519381
-0.527137
-0.53475
-0.542214
-0.549525
-0.556678
-0.563667
-0.570486
-0.577129
-0.583589
-0.58986
-0.595934
-0.601805
-0.607465
-0.612908
-0.618125
-0.623109
-0.627853
-0.63235
-0.636593
-0.640573
-0.644286
-0.647723
-0.650879
-0.653748
-0.656323
-0.658601
-0.660574
-0.66224
-0.663594
-0.664632
-0.66535
-0.665747
-0.66582
-0.665566
-0.664985
-0.664076
-0.662839
-0.661274
-0.659381
-0.657162
-0.654618
-0.651752
-0.648567
-0.645066
-0.641252
-0.637129
-0.632703
-0.627979
-0.622961
-0.617657
-0.612072
-0.606213
-0.600088
-0.593704
-0.58707
-0.580193
-0.573082
-0.565748
-0.558198
-0.550444
-0.542495
-0.534361
-0.526053
-0.517582
-0.50896
-0.500197
-0.491306
-0.482297
-0.473183
-0.463975
-0.454687
-0.445329
-0.435913
-0.426453
-0.416959
-0.407444
-0.397919
-0.388396
-0.378887
-0.369402
-0.359952
-0.350549
-0.341202
-0.331921
-0.322715
-0.313595
-0.304568
-0.295643
-0.286828
-0.278129
-0.269554
-0.261109
-0.2528
-0.244631
-0.236609
-0.228736
-0.221017
-0.213454
-0.206052
-0.198811
-0.191734
-0.184821
-0.178075
-0.171494
-0.16508
-0.158832
-0.152749
-0.14683
-0.141074
-0.135479
-0.130044
-0.124765
-0.119641
-0.114669
-0.109845
-0.105168
-0.100634
-0.0962392
-0.0919806
-0.0878544
-0.0838572
-0.0799851
-0.0762345
-0.0726015
-0.0690821
-0.0656726
-0.062369
-0.0591674
-0.0560639
-0.0530546
-0.0501355
-0.0473029
-0.0445528
-0.0418815
-0.0392851
-0.03676
-0.0343024
-0.0319086
-0.0295752
-0.0272985
-0.025075
-0.0229013
-0.020774
-0.0186897
-0.0166455
-0.0146372
-0.0126637
-0.010717
-0.00880627
-0.00689857
-0.00506254
-0.00311408
-0.00144104
0.273052
0.272923
0.272641
0.272196
0.27159
0.270825
0.269899
0.268811
0.267558
0.266139
0.26455
0.26279
0.260856
0.258744
0.25645
0.253972
0.251306
0.248448
0.245393
0.242137
0.238676
0.235006
0.231121
0.227018
0.222692
0.218138
0.213352
0.208329
0.203066
0.197557
0.1918
0.185792
0.179529
0.173008
0.166228
0.159187
0.151884
0.14432
0.136493
0.128407
0.120062
0.111462
0.102611
0.0935136
0.0841751
0.0746024
0.0648031
0.0547856
0.0445592
0.0341341
0.0235214
0.0127326
0.00178009
-0.00932318
-0.0205638
-0.0319281
-0.0434019
-0.054971
-0.0666209
-0.0783374
-0.0901062
-0.101913
-0.113745
-0.125587
-0.137428
-0.149254
-0.161054
-0.172817
-0.184531
-0.196188
-0.207778
-0.219293
-0.230725
-0.242067
-0.253314
-0.264459
-0.275499
-0.28643
-0.297248
-0.30795
-0.318535
-0.329001
-0.339347
-0.349572
-0.359676
-0.369659
-0.379521
-0.389262
-0.398883
-0.408385
-0.417767
-0.42703
-0.436175
-0.4452
-0.454107
-0.462895
-0.471562
-0.480108
-0.488532
-0.49683
-0.505001
-0.513043
-0.520951
-0.528722
-0.536352
-0.543837
-0.551171
-0.55835
-0.565366
-0.572215
-0.57889
-0.585385
-0.591691
-0.597803
-0.603712
-0.609412
-0.614894
-0.620152
-0.625177
-0.629961
-0.634499
-0.638781
-0.642801
-0.646552
-0.650027
-0.65322
-0.656124
-0.658733
-0.661042
-0.663046
-0.664741
-0.666121
-0.667183
-0.667924
-0.668341
-0.668431
-0.668193
-0.667626
-0.666728
-0.665499
-0.66394
-0.662052
-0.659834
-0.65729
-0.654422
-0.651231
-0.647723
-0.643899
-0.639765
-0.635325
-0.630584
-0.625548
-0.620223
-0.614615
-0.608731
-0.602579
-0.596165
-0.589499
-0.582588
-0.575441
-0.568068
-0.560478
-0.55268
-0.544686
-0.536504
-0.528147
-0.519625
-0.510949
-0.50213
-0.493181
-0.484113
-0.474938
-0.465667
-0.456314
-0.44689
-0.437407
-0.427878
-0.418315
-0.408729
-0.399134
-0.389539
-0.379958
-0.370401
-0.36088
-0.351405
-0.341987
-0.332635
-0.32336
-0.314171
-0.305077
-0.296086
-0.287206
-0.278444
-0.269808
-0.261304
-0.252937
-0.244714
-0.236639
-0.228716
-0.220949
-0.213341
-0.205896
-0.198615
-0.1915
-0.184552
-0.177773
-0.171163
-0.164721
-0.158448
-0.152343
-0.146404
-0.14063
-0.13502
-0.129571
-0.124282
-0.119148
-0.114169
-0.109341
-0.104661
-0.100125
-0.0957304
-0.0914735
-0.0873506
-0.083358
-0.0794919
-0.0757485
-0.0721237
-0.0686138
-0.0652147
-0.0619224
-0.058733
-0.0556424
-0.0526467
-0.049742
-0.0469242
-0.0441896
-0.0415342
-0.0389541
-0.0364457
-0.0340051
-0.0316287
-0.0293128
-0.0270538
-0.0248483
-0.0226926
-0.0205835
-0.0185173
-0.0164912
-0.0145011
-0.0125458
-0.0106172
-0.00872436
-0.00683458
-0.00501604
-0.00308564
-0.00142901
0.274494
0.274365
0.274086
0.273645
0.273044
0.272284
0.271366
0.270286
0.269043
0.267634
0.266057
0.264309
0.262388
0.260289
0.258009
0.255545
0.252892
0.250047
0.247005
0.243761
0.240312
0.236652
0.232776
0.22868
0.224359
0.219807
0.215021
0.209995
0.204724
0.199206
0.193435
0.187408
0.181121
0.174572
0.167758
0.160678
0.153331
0.145715
0.137832
0.129682
0.121269
0.112594
0.103661
0.0944762
0.0850448
0.0753738
0.0654711
0.0553456
0.0450072
0.0344665
0.0237352
0.0128255
0.00175052
-0.00947622
-0.0208406
-0.0323281
-0.0439239
-0.055613
-0.0673805
-0.0792112
-0.0910904
-0.103003
-0.114936
-0.126874
-0.138805
-0.150715
-0.162592
-0.174426
-0.186205
-0.197919
-0.20956
-0.221119
-0.232588
-0.243962
-0.255233
-0.266398
-0.277452
-0.288391
-0.299212
-0.309914
-0.320494
-0.330952
-0.341287
-0.351498
-0.361586
-0.371552
-0.381396
-0.391118
-0.400721
-0.410204
-0.419568
-0.428815
-0.437944
-0.446957
-0.455853
-0.464632
-0.473294
-0.481837
-0.490261
-0.498563
-0.506741
-0.514792
-0.522714
-0.530502
-0.538153
-0.545661
-0.553021
-0.560229
-0.567278
-0.574162
-0.580874
-0.587407
-0.593755
-0.599909
-0.605862
-0.611607
-0.617135
-0.622439
-0.627511
-0.632342
-0.636926
-0.641254
-0.64532
-0.649115
-0.652633
-0.655867
-0.658811
-0.661459
-0.663805
-0.665843
-0.66757
-0.66898
-0.67007
-0.670836
-0.671276
-0.671387
-0.671167
-0.670615
-0.669729
-0.668511
-0.666959
-0.665075
-0.66286
-0.660315
-0.657444
-0.654248
-0.650731
-0.646897
-0.642749
-0.638293
-0.633534
-0.628478
-0.623129
-0.617495
-0.611583
-0.6054
-0.598953
-0.592251
-0.585301
-0.578114
-0.570697
-0.563061
-0.555215
-0.54717
-0.538935
-0.530522
-0.521941
-0.513205
-0.504323
-0.495309
-0.486173
-0.476928
-0.467587
-0.45816
-0.448662
-0.439103
-0.429496
-0.419854
-0.410189
-0.400512
-0.390837
-0.381174
-0.371536
-0.361933
-0.352376
-0.342877
-0.333446
-0.324091
-0.314824
-0.305653
-0.296587
-0.287634
-0.2788
-0.270095
-0.261524
-0.253092
-0.244807
-0.236672
-0.228691
-0.22087
-0.213211
-0.205717
-0.19839
-0.191233
-0.184246
-0.17743
-0.170785
-0.164313
-0.158012
-0.151881
-0.145919
-0.140126
-0.134498
-0.129034
-0.123732
-0.118589
-0.113602
-0.108769
-0.104085
-0.0995474
-0.0951532
-0.0908984
-0.0867793
-0.0827921
-0.0789328
-0.0751976
-0.0715824
-0.0680832
-0.064696
-0.0614166
-0.058241
-0.0551651
-0.052185
-0.0492965
-0.0464956
-0.0437785
-0.0411411
-0.0385795
-0.03609
-0.0336687
-0.0313119
-0.0290159
-0.026777
-0.0245917
-0.0224565
-0.0203678
-0.0183222
-0.0163167
-0.0143472
-0.0124124
-0.0105042
-0.00863169
-0.00676218
-0.00496343
-0.00305347
-0.00141538
0.276091
0.275964
0.275687
0.27525
0.274655
0.273902
0.272992
0.271922
0.27069
0.269293
0.267729
0.265995
0.264088
0.262004
0.25974
0.257292
0.254655
0.251826
0.248799
0.24557
0.242134
0.238486
0.234621
0.230533
0.226218
0.22167
0.216885
0.211856
0.206579
0.20105
0.195264
0.189217
0.182905
0.176325
0.169474
0.162351
0.154954
0.147281
0.139335
0.131115
0.122624
0.113864
0.10484
0.0955568
0.0860206
0.0762386
0.0662192
0.0559716
0.0455065
0.034835
0.0239694
0.0129228
0.00170904
-0.00965752
-0.0211619
-0.0327888
-0.0445226
-0.0563475
-0.0682477
-0.0802073
-0.0922109
-0.104243
-0.116289
-0.128335
-0.140366
-0.15237
-0.164334
-0.176247
-0.188097
-0.199875
-0.211572
-0.223179
-0.234689
-0.246096
-0.257394
-0.268579
-0.279646
-0.290593
-0.301417
-0.312116
-0.322689
-0.333136
-0.343457
-0.353651
-0.36372
-0.373665
-0.383487
-0.393187
-0.402766
-0.412227
-0.42157
-0.430797
-0.439909
-0.448906
-0.457789
-0.466559
-0.475213
-0.483753
-0.492177
-0.500483
-0.508668
-0.516731
-0.524668
-0.532476
-0.540149
-0.547684
-0.555075
-0.562316
-0.569401
-0.576325
-0.583079
-0.589657
-0.596051
-0.602253
-0.608257
-0.614053
-0.619633
-0.62499
-0.630114
-0.634999
-0.639635
-0.644016
-0.648132
-0.651978
-0.655545
-0.658826
-0.661815
-0.664506
-0.666893
-0.668971
-0.670734
-0.672178
-0.673299
-0.674094
-0.67456
-0.674693
-0.674493
-0.673958
-0.673087
-0.67188
-0.670337
-0.668458
-0.666245
-0.6637
-0.660825
-0.657623
-0.654097
-0.650251
-0.646089
-0.641615
-0.636836
-0.631756
-0.626382
-0.620719
-0.614776
-0.608558
-0.602074
-0.595332
-0.58834
-0.581107
-0.573643
-0.565955
-0.558056
-0.549953
-0.541659
-0.533184
-0.524538
-0.515734
-0.506782
-0.497695
-0.488484
-0.479162
-0.469741
-0.460232
-0.45065
-0.441006
-0.431312
-0.421582
-0.411827
-0.40206
-0.392294
-0.382539
-0.372809
-0.363114
-0.353467
-0.343877
-0.334355
-0.324912
-0.315557
-0.3063
-0.297149
-0.288113
-0.279199
-0.270416
-0.261769
-0.253265
-0.244909
-0.236707
-0.228662
-0.22078
-0.213063
-0.205515
-0.198137
-0.190931
-0.1839
-0.177042
-0.17036
-0.163853
-0.15752
-0.151361
-0.145374
-0.139558
-0.133912
-0.128431
-0.123116
-0.117962
-0.112966
-0.108126
-0.103439
-0.0988997
-0.094506
-0.0902537
-0.086139
-0.0821579
-0.0783064
-0.0745805
-0.0709761
-0.067489
-0.0641151
-0.0608503
-0.0576902
-0.0546309
-0.0516682
-0.0487979
-0.0460161
-0.0433185
-0.0407013
-0.0381605
-0.0356922
-0.0332925
-0.0309577
-0.0286839
-0.0264675
-0.0243049
-0.0221925
-0.0201267
-0.0181041
-0.0161216
-0.0141751
-0.0122632
-0.0103779
-0.00852806
-0.00668122
-0.00490459
-0.0030175
-0.0014001
0.277842
0.277716
0.277442
0.27701
0.276421
0.275677
0.274777
0.273718
0.272498
0.271115
0.269566
0.267848
0.265957
0.263891
0.261645
0.259214
0.256596
0.253784
0.250775
0.247563
0.244143
0.240509
0.236657
0.23258
0.228273
0.223731
0.218947
0.213916
0.208634
0.203094
0.197292
0.191224
0.184885
0.178272
0.171381
0.16421
0.156758
0.149024
0.141007
0.132709
0.124132
0.115278
0.106152
0.0967594
0.0871059
0.0771997
0.0670493
0.0566649
0.0460575
0.035239
0.0242227
0.0130223
0.00165264
-0.00987098
-0.0215326
-0.0333161
-0.0452047
-0.0571817
-0.0692305
-0.0813344
-0.0934771
-0.105643
-0.117815
-0.12998
-0.142124
-0.154231
-0.166291
-0.17829
-0.190219
-0.202066
-0.213824
-0.225483
-0.237037
-0.24848
-0.259806
-0.271011
-0.282091
-0.293044
-0.303868
-0.314562
-0.325126
-0.335558
-0.345861
-0.356034
-0.36608
-0.375999
-0.385795
-0.395468
-0.405021
-0.414456
-0.423774
-0.432978
-0.442069
-0.451048
-0.459916
-0.468673
-0.477319
-0.485855
-0.494278
-0.502588
-0.510782
-0.518858
-0.526812
-0.534641
-0.542341
-0.549905
-0.55733
-0.564609
-0.571736
-0.578704
-0.585506
-0.592134
-0.598581
-0.604838
-0.610898
-0.616752
-0.622391
-0.627807
-0.632991
-0.637935