/*--------------------------------*- C++ -*----------------------------------*\
| =========                 |                                                 |
| \\      /  F ield         | OpenFOAM: The Open Source CFD Toolbox           |
|  \\    /   O peration     | Version:  2306                                  |
|   \\  /    A nd           | Website:  www.openfoam.com                      |
|    \\/     M anipulation  |                                                 |
\*---------------------------------------------------------------------------*/
FoamFile
{
    version     2.0;
    format      ascii;
    arch        "LSB;label=32;scalar=64";
    class       surfaceScalarField;
    location    "8.5";
    object      phi;
}
// * * * * * * * * * * * * * * * * * * * * * * * * * * * * * * * * * * * * * //

dimensions      [0 3 -1 0 0 0 0];

oriented        oriented;

internalField   nonuniform List<scalar> 
65152
(
0.00625051
-5.05598e-07
0.00625202
-1.51874e-06
0.00625456
-2.53254e-06
0.0062581
-3.54812e-06
0.00626267
-4.56716e-06
0.00626826
-5.59076e-06
0.00627488
-6.61961e-06
0.00628254
-7.65444e-06
0.00629123
-8.69608e-06
0.00630098
-9.7453e-06
0.00631178
-1.08028e-05
0.00632365
-1.18692e-05
0.0063366
-1.2945e-05
0.00635063
-1.40307e-05
0.00636575
-1.51267e-05
0.00638199
-1.62331e-05
0.00639934
-1.73501e-05
0.00641781
-1.84777e-05
0.00643743
-1.96158e-05
0.00645819
-2.07641e-05
0.00648012
-2.19222e-05
0.00650321
-2.30896e-05
0.00652747
-2.42654e-05
0.00655292
-2.54489e-05
0.00657956
-2.66389e-05
0.00660739
-2.78342e-05
0.00663643
-2.90332e-05
0.00666666
-3.02345e-05
0.0066981
-3.14363e-05
0.00673073
-3.26364e-05
0.00676457
-3.38328e-05
0.00679959
-3.50232e-05
0.00683579
-3.6205e-05
0.00687317
-3.73756e-05
0.0069117
-3.85323e-05
0.00695137
-3.96721e-05
0.00699217
-4.0792e-05
0.00703406
-4.18889e-05
0.00707701
-4.29597e-05
0.00712102
-4.40013e-05
0.00716603
-4.50103e-05
0.00721201
-4.59838e-05
0.00725893
-4.69185e-05
0.00730674
-4.78114e-05
0.0073554
-4.86597e-05
0.00740486
-4.94606e-05
0.00745507
-5.02115e-05
0.00750598
-5.091e-05
0.00755754
-5.1554e-05
0.00760968
-5.21416e-05
0.00766235
-5.26712e-05
0.00771549
-5.31416e-05
0.00776904
-5.35517e-05
0.00782294
-5.39008e-05
0.00787713
-5.41887e-05
0.00793155
-5.44153e-05
0.00798613
-5.4581e-05
0.00804081
-5.46865e-05
0.00809555
-5.47326e-05
0.00815027
-5.47208e-05
0.00820492
-5.46525e-05
0.00825945
-5.45295e-05
0.0083138
-5.43541e-05
0.00836793
-5.41284e-05
0.00842179
-5.38548e-05
0.00847532
-5.35362e-05
0.0085285
-5.31751e-05
0.00858127
-5.27746e-05
0.00863361
-5.23374e-05
0.00868548
-5.18667e-05
0.00873684
-5.13654e-05
0.00878768
-5.08364e-05
0.00883796
-5.02828e-05
0.00888767
-4.97074e-05
0.00893678
-4.91129e-05
0.00898528
-4.85021e-05
0.00903316
-4.78774e-05
0.0090804
-4.72413e-05
0.009127
-4.6596e-05
0.00917294
-4.59435e-05
0.00921823
-4.52856e-05
0.00926285
-4.46241e-05
0.00930681
-4.39602e-05
0.00935011
-4.32954e-05
0.00939274
-4.26305e-05
0.0094347
-4.19664e-05
0.00947601
-4.13037e-05
0.00951665
-4.06427e-05
0.00955663
-3.99836e-05
0.00959596
-3.93264e-05
0.00963463
-3.86709e-05
0.00967265
-3.80167e-05
0.00971001
-3.73633e-05
0.00974672
-3.67098e-05
0.00978278
-3.60555e-05
0.00981818
-3.53995e-05
0.00985292
-3.47405e-05
0.00988699
-3.40775e-05
0.0099204
-3.34092e-05
0.00995314
-3.27342e-05
0.00998519
-3.20512e-05
0.0100165
-3.13589e-05
0.0100472
-3.06557e-05
0.0100771
-2.99403e-05
0.0101064
-2.92113e-05
0.0101348
-2.84673e-05
0.0101625
-2.77071e-05
0.0101895
-2.69293e-05
0.0102156
-2.61327e-05
0.0102409
-2.53163e-05
0.0102654
-2.4479e-05
0.010289
-2.36198e-05
0.0103117
-2.2738e-05
0.0103336
-2.18327e-05
0.0103545
-2.09034e-05
0.0103744
-1.99495e-05
0.0103934
-1.89708e-05
0.0104114
-1.79668e-05
0.0104283
-1.69375e-05
0.0104442
-1.58828e-05
0.010459
-1.48028e-05
0.0104727
-1.36978e-05
0.0104853
-1.2568e-05
0.0104967
-1.14139e-05
0.0105069
-1.0236e-05
0.0105159
-9.03492e-06
0.0105238
-7.81143e-06
0.0105303
-6.56632e-06
0.0105356
-5.30051e-06
0.0105396
-4.01495e-06
0.0105423
-2.7107e-06
0.0105437
-1.38881e-06
0.0105438
-5.13413e-08
0.0105425
1.30264e-06
0.0105398
2.66964e-06
0.0105358
4.0493e-06
0.0105303
5.44014e-06
0.0105235
6.84076e-06
0.0105152
8.24973e-06
0.0105056
9.6656e-06
0.0104945
1.10869e-05
0.010482
1.25121e-05
0.010468
1.39397e-05
0.0104527
1.53683e-05
0.0104359
1.67962e-05
0.0104176
1.82219e-05
0.010398
1.9644e-05
0.0103769
2.10607e-05
0.0103545
2.24706e-05
0.0103306
2.38721e-05
0.0103053
2.52636e-05
0.0102787
2.66435e-05
0.0102507
2.80103e-05
0.0102213
2.93623e-05
0.0101906
3.06979e-05
0.0101586
3.20156e-05
0.0101253
3.33137e-05
0.0100907
3.45906e-05
0.0100549
3.58447e-05
0.0100178
3.70744e-05
0.0099795
3.8278e-05
0.00994005
3.94539e-05
0.00989945
4.06006e-05
0.00985773
4.17164e-05
0.00981493
4.27998e-05
0.00977108
4.38491e-05
0.00972622
4.48629e-05
0.00968038
4.58395e-05
0.0096336
4.67777e-05
0.00958593
4.76758e-05
0.00953739
4.85326e-05
0.00948805
4.93467e-05
0.00943793
5.01168e-05
0.00938709
5.08417e-05
0.00933557
5.15204e-05
0.00928342
5.21517e-05
0.00923068
5.27348e-05
0.00917741
5.32688e-05
0.00912366
5.3753e-05
0.00906947
5.41867e-05
0.0090149
5.45694e-05
0.00896
5.49008e-05
0.00890482
5.51805e-05
0.00884941
5.54086e-05
0.00879383
5.55849e-05
0.00873812
5.57096e-05
0.00868234
5.5783e-05
0.00862653
5.58055e-05
0.00857075
5.57777e-05
0.00851505
5.57003e-05
0.00845948
5.5574e-05
0.00840408
5.53998e-05
0.0083489
5.51787e-05
0.00829399
5.49121e-05
0.00823939
5.4601e-05
0.00818514
5.4247e-05
0.00813129
5.38516e-05
0.00807787
5.34163e-05
0.00802493
5.29428e-05
0.0079725
5.24328e-05
0.00792061
5.18882e-05
0.0078693
5.13108e-05
0.00781859
5.07026e-05
0.00776853
5.00654e-05
0.00771913
4.94014e-05
0.00767041
4.87123e-05
0.00762241
4.80004e-05
0.00757515
4.72675e-05
0.00752863
4.65158e-05
0.00748288
4.57471e-05
0.00743792
4.49634e-05
0.00739375
4.41668e-05
0.00735039
4.33591e-05
0.00730785
4.25422e-05
0.00726613
4.17178e-05
0.00722525
4.08879e-05
0.00718519
4.00541e-05
0.00714597
3.9218e-05
0.00710759
3.83813e-05
0.00707005
3.75456e-05
0.00703334
3.67122e-05
0.00699745
3.58826e-05
0.0069624
3.50581e-05
0.00692816
3.424e-05
0.00689473
3.34295e-05
0.0068621
3.26277e-05
0.00683026
3.18357e-05
0.00679921
3.10544e-05
0.00676892
3.02848e-05
0.0067394
2.95277e-05
0.00671061
2.87838e-05
0.00668256
2.8054e-05
0.00665522
2.73388e-05
0.00662858
2.66388e-05
0.00660263
2.59546e-05
0.00657734
2.52866e-05
0.0065527
2.46352e-05
0.0065287
2.40008e-05
0.00650532
2.33836e-05
0.00648254
2.27841e-05
0.00646033
2.22022e-05
0.00643869
2.16383e-05
0.0064176
2.10924e-05
0.00639704
2.05646e-05
0.00637698
2.00549e-05
0.00635742
1.95634e-05
0.00633833
1.909e-05
0.00631969
1.86347e-05
0.0063015
1.81971e-05
0.00628372
1.77779e-05
0.00626634
1.73753e-05
0.00624935
1.69919e-05
0.00623273
1.66222e-05
0.00621646
1.62692e-05
0.00620052
1.59453e-05
1.55537e-05
0.00625051
-1.0117e-06
0.00625202
-3.03564e-06
0.00625455
-5.06218e-06
0.0062581
-7.09329e-06
0.00626266
-9.13102e-06
0.00626825
-1.11774e-05
0.00627486
-1.32343e-05
0.00628251
-1.53033e-05
0.0062912
-1.7386e-05
0.00630094
-1.9484e-05
0.00631174
-2.15985e-05
0.0063236
-2.37309e-05
0.00633654
-2.58823e-05
0.00635056
-2.80535e-05
0.00636568
-3.02453e-05
0.0063819
-3.24582e-05
0.00639924
-3.46924e-05
0.00641771
-3.69479e-05
0.00643732
-3.92246e-05
0.00645808
-4.15218e-05
0.00648
-4.38388e-05
0.00650308
-4.61744e-05
0.00652734
-4.85272e-05
0.00655279
-5.08954e-05
0.00657943
-5.32768e-05
0.00660726
-5.5669e-05
0.0066363
-5.8069e-05
0.00666654
-6.04736e-05
0.00669798
-6.28792e-05
0.00673063
-6.52818e-05
0.00676447
-6.76772e-05
0.00679951
-7.00606e-05
0.00683573
-7.2427e-05
0.00687313
-7.47712e-05
0.00691168
-7.70876e-05
0.00695138
-7.93703e-05
0.0069922
-8.16134e-05
0.00703412
-8.38106e-05
0.00707712
-8.59555e-05
0.00712116
-8.8042e-05
0.00716621
-9.00634e-05
0.00721224
-9.20135e-05
0.00725921
-9.38861e-05
0.00730707
-9.5675e-05
0.00735579
-9.73744e-05
0.00740531
-9.89789e-05
0.00745558
-0.000100483
0.00750655
-0.000101882
0.00755817
-0.000103172
0.00761038
-0.000104349
0.00766311
-0.00010541
0.00771632
-0.000106352
0.00776995
-0.000107173
0.00782392
-0.000107871
0.00787817
-0.000108447
0.00793266
-0.0001089
0.00798731
-0.000109231
0.00804206
-0.000109441
0.00809686
-0.000109532
0.00815165
-0.000109506
0.00820636
-0.000109368
0.00826095
-0.00010912
0.00831537
-0.000108767
0.00836955
-0.000108313
0.00842346
-0.000107763
0.00847705
-0.000107123
0.00853027
-0.000106398
0.00858309
-0.000105594
0.00863547
-0.000104717
0.00868737
-0.000103772
0.00873878
-0.000102767
0.00878964
-0.000101706
0.00883996
-0.000100595
0.00888969
-9.94417e-05
0.00893883
-9.825e-05
0.00898735
-9.70257e-05
0.00903525
-9.57739e-05
0.00908251
-9.44994e-05
0.00912912
-9.32066e-05
0.00917507
-9.18996e-05
0.00922037
-9.05821e-05
0.009265
-8.92574e-05
0.00930897
-8.79284e-05
0.00935227
-8.65976e-05
0.00939491
-8.52669e-05
0.00943688
-8.3938e-05
0.00947819
-8.26121e-05
0.00951884
-8.12898e-05
0.00955883
-7.99716e-05
0.00959816
-7.86573e-05
0.00963683
-7.73466e-05
0.00967485
-7.60386e-05
0.00971222
-7.47322e-05
0.00974894
-7.34261e-05
0.009785
-7.21184e-05
0.00982041
-7.08072e-05
0.00985516
-6.94903e-05
0.00988925
-6.81654e-05
0.00992267
-6.683e-05
0.00995541
-6.54813e-05
0.00998748
-6.41166e-05
0.0100189
-6.27331e-05
0.0100495
-6.1328e-05
0.0100795
-5.98985e-05
0.0101087
-5.84418e-05
0.0101372
-5.6955e-05
0.0101649
-5.54356e-05
0.0101919
-5.38811e-05
0.010218
-5.2289e-05
0.0102434
-5.0657e-05
0.0102679
-4.89831e-05
0.0102915
-4.72655e-05
0.0103143
-4.55023e-05
0.0103362
-4.36922e-05
0.0103571
-4.18339e-05
0.0103771
-3.99265e-05
0.0103961
-3.7969e-05
0.0104141
-3.5961e-05
0.010431
-3.39022e-05
0.0104469
-3.17926e-05
0.0104618
-2.96322e-05
0.0104755
-2.74216e-05
0.0104881
-2.51614e-05
0.0104995
-2.28525e-05
0.0105098
-2.04958e-05
0.0105188
-1.80927e-05
0.0105267
-1.56447e-05
0.0105333
-1.31534e-05
0.0105386
-1.06205e-05
0.0105426
-8.04817e-06
0.0105453
-5.43837e-06
0.0105467
-2.79342e-06
0.0105468
-1.15683e-07
0.0105455
2.59247e-06
0.0105429
5.32834e-06
0.0105388
8.08931e-06
0.0105334
1.08727e-05
0.0105265
1.36756e-05
0.0105183
1.64953e-05
0.0105086
1.93287e-05
0.0104976
2.2173e-05
0.010485
2.50253e-05
0.0104711
2.78823e-05
0.0104557
3.07412e-05
0.0104389
3.35988e-05
0.0104207
3.64521e-05
0.010401
3.9298e-05
0.01038
4.21333e-05
0.0103575
4.49549e-05
0.0103336
4.77598e-05
0.0103083
5.05446e-05
0.0102816
5.33063e-05
0.0102536
5.60417e-05
0.0102242
5.87475e-05
0.0101935
6.14207e-05
0.0101615
6.40579e-05
0.0101281
6.6656e-05
0.0100935
6.92116e-05
0.0100576
7.17217e-05
0.0100205
7.41829e-05
0.0099822
7.65919e-05
0.00994271
7.89457e-05
0.00990207
8.12408e-05
0.00986031
8.34742e-05
0.00981747
8.56427e-05
0.00977358
8.77431e-05
0.00972867
8.97723e-05
0.00968278
9.17273e-05
0.00963595
9.36052e-05
0.00958822
9.5403e-05
0.00953964
9.71181e-05
0.00949024
9.87477e-05
0.00944007
0.000100289
0.00938917
0.00010174
0.00933759
0.000103099
0.00928538
0.000104363
0.00923258
0.00010553
0.00917925
0.000106599
0.00912544
0.000107568
0.00907119
0.000108436
0.00901656
0.000109201
0.00896159
0.000109864
0.00890635
0.000110424
0.00885088
0.00011088
0.00879523
0.000111233
0.00873946
0.000111482
0.00868361
0.000111628
0.00862774
0.000111673
0.00857191
0.000111617
0.00851615
0.000111461
0.00846051
0.000111207
0.00840505
0.000110858
0.00834982
0.000110415
0.00829485
0.00010988
0.00824019
0.000109256
0.0081859
0.000108547
0.00813199
0.000107754
0.00807853
0.000106882
0.00802554
0.000105933
0.00797306
0.000104911
0.00792113
0.00010382
0.00786977
0.000102663
0.00781903
0.000101445
0.00776893
0.000100168
0.00771949
9.8838e-05
0.00767075
9.74579e-05
0.00762272
9.60318e-05
0.00757542
9.4564e-05
0.00752888
9.30583e-05
0.0074831
9.15188e-05
0.00743812
8.99494e-05
0.00739393
8.83541e-05
0.00735055
8.67367e-05
0.00730799
8.51008e-05
0.00726626
8.34502e-05
0.00722536
8.17885e-05
0.0071853
8.0119e-05
0.00714607
7.84451e-05
0.00710768
7.677e-05
0.00707013
7.50969e-05
0.00703341
7.34285e-05
0.00699753
7.17678e-05
0.00696247
7.01175e-05
0.00692823
6.84799e-05
0.0068948
6.68577e-05
0.00686218
6.52529e-05
0.00683034
6.36677e-05
0.00679929
6.21041e-05
0.00676902
6.05638e-05
0.00673949
5.90486e-05
0.00671072
5.75601e-05
0.00668267
5.60996e-05
0.00665534
5.46685e-05
0.00662871
5.32678e-05
0.00660277
5.18987e-05
0.00657749
5.05622e-05
0.00655287
4.92589e-05
0.00652888
4.79896e-05
0.00650551
4.6755e-05
0.00648274
4.55555e-05
0.00646055
4.43915e-05
0.00643892
4.32634e-05
0.00641784
4.21714e-05
0.00639729
4.11157e-05
0.00637725
4.00962e-05
0.0063577
3.91131e-05
0.00633863
3.81663e-05
0.00632001
3.72556e-05
0.00630182
3.63809e-05
0.00628406
3.55417e-05
0.00626669
3.47387e-05
0.00624972
3.39677e-05
0.0062331
3.32415e-05
0.00621685
3.25155e-05
0.00620086
3.1935e-05
3.10446e-05
0.0062505
-1.51646e-06
0.00625202
-4.55022e-06
0.00625455
-7.58794e-06
0.00625808
-1.06328e-05
0.00626264
-1.36876e-05
0.00626822
-1.67555e-05
0.00627482
-1.98391e-05
0.00628246
-2.2941e-05
0.00629114
-2.60635e-05
0.00630086
-2.92091e-05
0.00631165
-3.23799e-05
0.00632349
-3.55776e-05
0.00633641
-3.88039e-05
0.00635042
-4.20603e-05
0.00636552
-4.53479e-05
0.00638173
-4.86672e-05
0.00639906
-5.2019e-05
0.00641751
-5.5403e-05
0.00643711
-5.88191e-05
0.00645785
-6.22665e-05
0.00647976
-6.57439e-05
0.00650283
-6.92496e-05
0.00652709
-7.27816e-05
0.00655253
-7.6337e-05
0.00657917
-7.99127e-05
0.006607
-8.3505e-05
0.00663604
-8.71095e-05
0.00666629
-9.07214e-05
0.00669775
-9.43352e-05
0.00673041
-9.79451e-05
0.00676428
-0.000101544
0.00679934
-0.000105126
0.0068356
-0.000108683
0.00687303
-0.000112207
0.00691163
-0.000115689
0.00695139
-0.000119121
0.00699227
-0.000122494
0.00703425
-0.000125798
0.00707732
-0.000129024
0.00712144
-0.000132162
0.00716658
-0.000135202
0.0072127
-0.000138135
0.00725977
-0.000140952
0.00730774
-0.000143643
0.00735656
-0.0001462
0.00740619
-0.000148613
0.00745659
-0.000150875
0.00750768
-0.00015298
0.00755943
-0.00015492
0.00761177
-0.000156689
0.00766465
-0.000158284
0.00771799
-0.000159699
0.00777175
-0.000160932
0.00782586
-0.000161981
0.00788026
-0.000162845
0.00793488
-0.000163524
0.00798967
-0.000164018
0.00804456
-0.000164331
0.00809949
-0.000164464
0.00815441
-0.000164422
0.00820925
-0.00016421
0.00826397
-0.000163833
0.0083185
-0.000163297
0.00837279
-0.00016261
0.00842681
-0.000161779
0.0084805
-0.000160812
0.00853382
-0.000159717
0.00858673
-0.000158503
0.00863919
-0.00015718
0.00869117
-0.000155755
0.00874264
-0.000154239
0.00879358
-0.00015264
0.00884395
-0.000150967
0.00889374
-0.00014923
0.00894292
-0.000147435
0.00899149
-0.000145592
0.00903942
-0.000143708
0.00908671
-0.000141791
0.00913335
-0.000139846
0.00917933
-0.000137881
0.00922465
-0.0001359
0.0092693
-0.000133909
0.00931329
-0.000131912
0.0093566
-0.000129913
0.00939925
-0.000127915
0.00944123
-0.00012592
0.00948255
-0.00012393
0.00952321
-0.000121946
0.0095632
-0.000119968
0.00960254
-0.000117997
0.00964123
-0.000116031
0.00967926
-0.000114071
0.00971664
-0.000112112
0.00975337
-0.000110155
0.00978945
-0.000108196
0.00982487
-0.000106231
0.00985964
-0.000104259
0.00989375
-0.000102274
0.00992719
-0.000100274
0.00995996
-9.8254e-05
0.00999206
-9.62101e-05
0.0100235
-9.41381e-05
0.0100542
-9.20337e-05
0.0100842
-8.98926e-05
0.0101134
-8.77105e-05
0.010142
-8.54834e-05
0.0101697
-8.32071e-05
0.0101967
-8.08779e-05
0.0102229
-7.84922e-05
0.0102483
-7.60465e-05
0.0102729
-7.35376e-05
0.0102966
-7.09628e-05
0.0103194
-6.83195e-05
0.0103413
-6.56055e-05
0.0103623
-6.28189e-05
0.0103823
-5.99582e-05
0.0104014
-5.70222e-05
0.0104194
-5.40101e-05
0.0104364
-5.09215e-05
0.0104524
-4.77564e-05
0.0104673
-4.45148e-05
0.0104811
-4.11977e-05
0.0104937
-3.78057e-05
0.0105052
-3.43404e-05
0.0105155
-3.08033e-05
0.0105246
-2.71963e-05
0.0105325
-2.35217e-05
0.0105391
-1.97818e-05
0.0105445
-1.59796e-05
0.0105485
-1.21178e-05
0.0105513
-8.19972e-06
0.0105527
-4.22872e-06
0.0105528
-2.08151e-07
0.0105516
3.85762e-06
0.0105489
7.96538e-06
0.0105449
1.21109e-05
0.0105395
1.62901e-05
0.0105327
2.04987e-05
0.0105244
2.47325e-05
0.0105148
2.8987e-05
0.0105037
3.32579e-05
0.0104912
3.75406e-05
0.0104772
4.18307e-05
0.0104618
4.61235e-05
0.010445
5.04144e-05
0.0104268
5.46989e-05
0.0104071
5.89722e-05
0.010386
6.32298e-05
0.0103635
6.74668e-05
0.0103396
7.16786e-05
0.0103143
7.58605e-05
0.0102876
8.00077e-05
0.0102595
8.41154e-05
0.0102301
8.81788e-05
0.0101993
9.21932e-05
0.0101672
9.61536e-05
0.0101338
0.000100055
0.0100991
0.000103894
0.0100632
0.000107663
0.010026
0.00011136
0.0099876
0.000114978
0.00994803
0.000118513
0.00990731
0.00012196
0.00986547
0.000125315
0.00982254
0.000128572
0.00977856
0.000131727
0.00973356
0.000134775
0.00968757
0.000137712
0.00964065
0.000140532
0.00959282
0.000143233
0.00954412
0.000145809
0.00949461
0.000148257
0.00944433
0.000150573
0.00939332
0.000152753
0.00934162
0.000154793
0.00928929
0.000156692
0.00923638
0.000158445
0.00918293
0.00016005
0.00912899
0.000161505
0.00907462
0.000162809
0.00901986
0.000163959
0.00896477
0.000164954
0.0089094
0.000165794
0.0088538
0.000166478
0.00879803
0.000167007
0.00874213
0.00016738
0.00868616
0.000167599
0.00863017
0.000167664
0.00857421
0.000167578
0.00851832
0.000167342
0.00846257
0.00016696
0.008407
0.000166433
0.00835165
0.000165765
0.00829657
0.000164959
0.0082418
0.00016402
0.0081874
0.000162952
0.00813339
0.000161759
0.00807983
0.000160446
0.00802675
0.000159018
0.00797418
0.000157481
0.00792216
0.000155839
0.00787072
0.000154099
0.0078199
0.000152266
0.00776972
0.000150346
0.00772022
0.000148345
0.0076714
0.00014627
0.00762331
0.000144125
0.00757596
0.000141918
0.00752936
0.000139654
0.00748354
0.00013734
0.00743851
0.00013498
0.00739428
0.000132582
0.00735087
0.000130151
0.00730827
0.000127692
0.00726651
0.000125212
0.00722559
0.000122714
0.0071855
0.000120205
0.00714626
0.00011769
0.00710785
0.000115173
0.00707029
0.000112659
0.00703357
0.000110153
0.00699767
0.000107658
0.00696261
0.000105179
0.00692837
0.00010272
0.00689495
0.000100283
0.00686233
9.78727e-05
0.0068305
9.54921e-05
0.00679946
9.3144e-05
0.0067692
9.08311e-05
0.00673969
8.8556e-05
0.00671093
8.6321e-05
0.0066829
8.41283e-05
0.00665559
8.19798e-05
0.00662898
7.98771e-05
0.00660306
7.7822e-05
0.0065778
7.58157e-05
0.0065532
7.38596e-05
0.00652924
7.19546e-05
0.00650589
7.01017e-05
0.00648314
6.83016e-05
0.00646098
6.6555e-05
0.00643938
6.48622e-05
0.00641833
6.32237e-05
0.00639781
6.16397e-05
0.00637779
6.01102e-05
0.00635827
5.86354e-05
0.00633922
5.72151e-05
0.00632063
5.5849e-05
0.00630247
5.45372e-05
0.00628473
5.32784e-05
0.0062674
5.2075e-05
0.00625045
5.09179e-05
0.00623386
4.98328e-05
0.00621763
4.87398e-05
0.00620169
4.78782e-05
4.65299e-05
0.0062505
-2.01998e-06
0.00625201
-6.06114e-06
0.00625453
-1.01076e-05
0.00625807
-1.41637e-05
0.00626261
-1.82334e-05
0.00626818
-2.23205e-05
0.00627477
-2.64287e-05
0.00628239
-3.05615e-05
0.00629104
-3.47222e-05
0.00630075
-3.89139e-05
0.00631151
-4.31394e-05
0.00632333
-4.74013e-05
0.00633623
-5.17018e-05
0.00635021
-5.60428e-05
0.00636529
-6.04258e-05
0.00638148
-6.48519e-05
0.00639878
-6.93216e-05
0.00641721
-7.38351e-05
0.00643678
-7.8392e-05
0.00645751
-8.29912e-05
0.00647939
-8.76312e-05
0.00650246
-9.23098e-05
0.0065267
-9.70242e-05
0.00655213
-0.000101771
0.00657876
-0.000106545
0.0066066
-0.000111342
0.00663565
-0.000116157
0.00666591
-0.000120982
0.00669738
-0.000125811
0.00673007
-0.000130635
0.00676397
-0.000135446
0.00679908
-0.000140234
0.00683539
-0.000144989
0.00687288
-0.000149702
0.00691155
-0.000154359
0.00695138
-0.00015895
0.00699235
-0.000163462
0.00703444
-0.000167883
0.00707761
-0.0001722
0.00712185
-0.0001764
0.00716712
-0.000180469
0.00721338
-0.000184396
0.00726059
-0.000188166
0.00730872
-0.000191768
0.00735771
-0.00019519
0.00740752
-0.000198421
0.00745809
-0.000201449
0.00750938
-0.000204266
0.00756132
-0.000206862
0.00761386
-0.000209229
0.00766694
-0.000211361
0.00772049
-0.000213253
0.00777446
-0.000214901
0.00782878
-0.000216301
0.00788339
-0.000217453
0.00793822
-0.000218357
0.00799322
-0.000219013
0.00804831
-0.000219425
0.00810344
-0.000219597
0.00815856
-0.000219534
0.00821359
-0.000219242
0.00826848
-0.00021873
0.00832319
-0.000218005
0.00837766
-0.000217076
0.00843183
-0.000215956
0.00848568
-0.000214653
0.00853914
-0.000213179
0.00859218
-0.000211547
0.00864477
-0.000209768
0.00869687
-0.000207854
0.00874845
-0.000205818
0.00879948
-0.000203672
0.00884994
-0.000201428
0.00889981
-0.000199097
0.00894906
-0.000196692
0.00899769
-0.000194222
0.00904568
-0.000191698
0.00909302
-0.000189131
0.00913971
-0.000186528
0.00918572
-0.000183898
0.00923107
-0.000181249
0.00927575
-0.000178588
0.00931976
-0.000175919
0.00936309
-0.000173248
0.00940576
-0.00017058
0.00944775
-0.000167916
0.00948909
-0.00016526
0.00952975
-0.000162614
0.00956976
-0.000159976
0.00960911
-0.000157349
0.00964781
-0.000154729
0.00968586
-0.000152117
0.00972325
-0.000149509
0.00976
-0.000146903
0.0097961
-0.000144294
0.00983155
-0.00014168
0.00986634
-0.000139054
0.00990048
-0.000136414
0.00993396
-0.000133752
0.00996677
-0.000131065
0.00999891
-0.000128346
0.0100304
-0.000125589
0.0100611
-0.000122789
0.0100912
-0.00011994
0.0101205
-0.000117037
0.0101491
-0.000114073
0.0101769
-0.000111043
0.010204
-0.000107942
0.0102303
-0.000104766
0.0102557
-0.000101509
0.0102803
-9.81678e-05
0.0103041
-9.47379e-05
0.010327
-9.12162e-05
0.010349
-8.75996e-05
0.0103701
-8.38857e-05
0.0103902
-8.00724e-05
0.0104093
-7.61581e-05
0.0104275
-7.21419e-05
0.0104446
-6.8023e-05
0.0104606
-6.38014e-05
0.0104756
-5.94775e-05
0.0104894
-5.50521e-05
0.0105021
-5.05266e-05
0.0105137
-4.59027e-05
0.0105241
-4.11825e-05
0.0105333
-3.63688e-05
0.0105412
-3.14643e-05
0.0105479
-2.64726e-05
0.0105533
-2.13972e-05
0.0105574
-1.62422e-05
0.0105602
-1.10117e-05
0.0105617
-5.71034e-06
0.0105619
-3.42605e-07
0.0105606
5.08549e-06
0.010558
1.05699e-05
0.010554
1.61048e-05
0.0105486
2.16848e-05
0.0105418
2.73041e-05
0.0105336
3.29572e-05
0.010524
3.8638e-05
0.0105129
4.43407e-05
0.0105004
5.00592e-05
0.0104864
5.57876e-05
0.010471
6.15197e-05
0.0104542
6.72494e-05
0.0104359
7.29705e-05
0.0104162
7.86768e-05
0.0103951
8.43621e-05
0.0103725
9.002e-05
0.0103485
9.56443e-05
0.0103232
0.000101229
0.0102964
0.000106767
0.0102683
0.000112252
0.0102388
0.000117679
0.0102079
0.00012304
0.0101758
0.000128329
0.0101423
0.00013354
0.0101075
0.000138667
0.0100715
0.000143701
0.0100342
0.000148639
0.00999569
0.000153471
0.00995601
0.000158193
0.00991517
0.000162798
0.0098732
0.000167279
0.00983015
0.000171631
0.00978603
0.000175845
0.00974088
0.000179917
0.00969476
0.000183841
0.00964768
0.000187609
0.00959969
0.000191217
0.00955084
0.000194659
0.00950117
0.00019793
0.00945072
0.000201024
0.00939954
0.000203936
0.00934767
0.000206662
0.00929516
0.000209198
0.00924207
0.00021154
0.00918843
0.000213685
0.00913431
0.000215628
0.00907975
0.000217369
0.0090248
0.000218904
0.00896952
0.000220233
0.00891397
0.000221354
0.00885818
0.000222266
0.00880221
0.000222971
0.00874613
0.000223467
0.00868997
0.000223757
0.00863379
0.000223841
0.00857765
0.000223723
0.00852158
0.000223405
0.00846565
0.00022289
0.0084099
0.000222182
0.00835438
0.000221286
0.00829914
0.000220206
0.00824421
0.000218947
0.00818965
0.000217515
0.00813549
0.000215917
0.00808178
0.000214158
0.00802855
0.000212246
0.00797584
0.000210187
0.00792369
0.000207989
0.00787213
0.000205659
0.00782119
0.000203205
0.0077709
0.000200636
0.00772129
0.000197958
0.00767238
0.000195181
0.00762419
0.000192311
0.00757675
0.000189358
0.00753008
0.00018633
0.00748418
0.000183234
0.00743908
0.000180079
0.00739479
0.000176871
0.00735132
0.00017362
0.00730868
0.000170333
0.00726688
0.000167016
0.00722592
0.000163677
0.0071858
0.000160324
0.00714653
0.000156962
0.0071081
0.000153598
0.00707052
0.000150239
0.00703379
0.00014689
0.00699789
0.000143556
0.00696282
0.000140244
0.00692858
0.000136958
0.00689516
0.000133704
0.00686255
0.000130484
0.00683074
0.000127305
0.00679971
0.000124169
0.00676946
0.000121081
0.00673998
0.000118043
0.00671124
0.000115059
0.00668324
0.000112131
0.00665595
0.000109263
0.00662937
0.000106457
0.00660348
0.000103714
0.00657826
0.000101036
0.0065537
9.84256e-05
0.00652977
9.58836e-05
0.00650646
9.34113e-05
0.00648375
9.10096e-05
0.00646162
8.86794e-05
0.00644007
8.64213e-05
0.00641905
8.42357e-05
0.00639857
8.21229e-05
0.0063786
8.00832e-05
0.00635912
7.81164e-05
0.00634011
7.62225e-05
0.00632156
7.44011e-05
0.00630344
7.26523e-05
0.00628575
7.09742e-05
0.00626845
6.93705e-05
0.00625154
6.78279e-05
0.00623499
6.63834e-05
0.0062188
6.49248e-05
0.0062029
6.37802e-05
6.19801e-05
0.0062505
-2.52186e-06
0.00625201
-7.5671e-06
0.00625452
-1.2619e-05
0.00625804
-1.76831e-05
0.00626257
-2.27644e-05
0.00626812
-2.78678e-05
0.00627469
-3.29978e-05
0.00628228
-3.81589e-05
0.00629092
-4.33553e-05
0.00630059
-4.85909e-05
0.00631132
-5.38694e-05
0.00632312
-5.91939e-05
0.00633598
-6.45674e-05
0.00634993
-6.99923e-05
0.00636498
-7.54704e-05
0.00638113
-8.10033e-05
0.0063984
-8.65916e-05
0.0064168
-9.22357e-05
0.00643634
-9.79351e-05
0.00645704
-0.000103689
0.0064789
-0.000109494
0.00650194
-0.000115349
0.00652617
-0.00012125
0.00655159
-0.000127193
0.00657822
-0.000133172
0.00660605
-0.00013918
0.00663511
-0.000145212
0.00666539
-0.000151258
0.00669689
-0.000157311
0.00672961
-0.000163358
0.00676356
-0.000169391
0.00679872
-0.000175397
0.00683509
-0.000181362
0.00687266
-0.000187275
0.00691143
-0.00019312
0.00695136
-0.000198883
0.00699245
-0.000204548
0.00703466
-0.0002101
0.00707798
-0.000215521
0.00712238
-0.000220796
0.00716782
-0.000225908
0.00721426
-0.000230841
0.00726167
-0.000235578
0.00731001
-0.000240104
0.00735922
-0.000244403
0.00740926
-0.000248462
0.00746008
-0.000252267
0.00751162
-0.000255804
0.00756382
-0.000259064
0.00761663
-0.000262036
0.00766998
-0.000264712
0.00772381
-0.000267085
0.00777806
-0.00026915
0.00783266
-0.000270903
0.00788755
-0.000272343
0.00794266
-0.00027347
0.00799794
-0.000274286
0.00805331
-0.000274794
0.00810871
-0.000274999
0.00816408
-0.000274908
0.00821937
-0.000274529
0.00827451
-0.000273872
0.00832945
-0.000272948
0.00838415
-0.000271769
0.00843854
-0.000270347
0.00849258
-0.000268697
0.00854624
-0.000266833
0.00859946
-0.00026477
0.00865222
-0.000262523
0.00870447
-0.000260107
0.00875619
-0.000257539
0.00880735
-0.000254833
0.00885793
-0.000252006
0.0089079
-0.000249071
0.00895725
-0.000246043
0.00900597
-0.000242936
0.00905403
-0.000239763
0.00910144
-0.000236535
0.00914817
-0.000233266
0.00919424
-0.000229964
0.00923963
-0.000226639
0.00928434
-0.0002233
0.00932838
-0.000219954
0.00937174
-0.000216608
0.00941442
-0.000213265
0.00945644
-0.000209931
0.00949778
-0.000206607
0.00953847
-0.000203297
0.00957849
-0.0002
0.00961786
-0.000196716
0.00965657
-0.000193444
0.00969464
-0.000190182
0.00973206
-0.000186927
0.00976883
-0.000183674
0.00980495
-0.00018042
0.00984043
-0.000177159
0.00987526
-0.000173886
0.00990944
-0.000170594
0.00994297
-0.000167276
0.00997583
-0.000163927
0.010008
-0.000160537
0.0100395
-0.000157101
0.0100704
-0.000153611
0.0101005
-0.00015006
0.0101299
-0.00014644
0.0101585
-0.000142744
0.0101865
-0.000138965
0.0102136
-0.000135097
0.01024
-0.000131134
0.0102656
-0.00012707
0.0102903
-0.000122899
0.0103142
-0.000118617
0.0103372
-0.000114219
0.0103593
-0.000109702
0.0103804
-0.000105062
0.0104007
-0.000100297
0.0104199
-9.54048e-05
0.0104382
-9.03842e-05
0.0104554
-8.52343e-05
0.0104715
-7.99552e-05
0.0104866
-7.45472e-05
0.0105006
-6.90116e-05
0.0105134
-6.33499e-05
0.010525
-5.75643e-05
0.0105355
-5.16577e-05
0.0105448
-4.56333e-05
0.0105528
-3.94949e-05
0.0105596
-3.32467e-05
0.0105651
-2.68933e-05
0.0105693
-2.04398e-05
0.0105722
-1.38915e-05
0.0105737
-7.25416e-06
0.0105739
-5.32987e-07
0.0105727
6.26336e-06
0.0105702
1.31308e-05
0.0105662
2.00616e-05
0.0105608
2.7049e-05
0.0105541
3.40859e-05
0.0105458
4.1165e-05
0.0105362
4.82791e-05
0.0105251
5.54206e-05
0.0105126
6.25821e-05
0.0104986
6.9756e-05
0.0104832
7.69346e-05
0.0104664
8.41102e-05
0.0104481
9.12752e-05
0.0104283
9.84217e-05
0.0104071
0.000105542
0.0103845
0.000112628
0.0103605
0.000119672
0.0103351
0.000126667
0.0103082
0.000133603
0.01028
0.000140474
0.0102504
0.000147271
0.0102195
0.000153986
0.0101872
0.000160612
0.0101536
0.000167139
0.0101187
0.000173561
0.0100825
0.000179869
0.0100451
0.000186054
0.0100065
0.000192109
0.00996663
0.000198025
0.00992563
0.000203795
0.0098835
0.00020941
0.00984027
0.000214862
0.00979597
0.000220143
0.00975065
0.000225246
0.00970432
0.000230163
0.00965705
0.000234886
0.00960886
0.000239407
0.0095598
0.000243721
0.00950991
0.00024782
0.00945923
0.000251697
0.00940782
0.000255347
0.00935572
0.000258764
0.00930298
0.000261942
0.00924964
0.000264876
0.00919576
0.000267563
0.00914139
0.000269998
0.00908658
0.000272179
0.00903138
0.000274101
0.00897585
0.000275765
0.00892004
0.000277167
0.008864
0.000278308
0.00880778
0.000279187
0.00875144
0.000279806
0.00869503
0.000280165
0.00863861
0.000280267
0.00858222
0.000280114
0.00852591
0.00027971
0.00846974
0.000279059
0.00841376
0.000278166
0.00835801
0.000277036
0.00830254
0.000275676
0.0082474
0.000274091
0.00819262
0.00027229
0.00813826
0.000270279
0.00808435
0.000268068
0.00803093
0.000265663
0.00797804
0.000263075
0.00792572
0.000260313
0.00787399
0.000257385
0.0078229
0.000254303
0.00777246
0.000251075
0.0077227
0.000247712
0.00767366
0.000244224
0.00762535
0.000240621
0.00757779
0.000236914
0.00753101
0.000233112
0.00748502
0.000229226
0.00743983
0.000225266
0.00739546
0.000221242
0.00735192
0.000217162
0.00730921
0.000213038
0.00726735
0.000208878
0.00722634
0.00020469
0.00718618
0.000200485
0.00714687
0.000196269
0.00710842
0.000192052
0.00707082
0.00018784
0.00703407
0.000183642
0.00699816
0.000179464
0.00696309
0.000175313
0.00692885
0.000171196
0.00689544
0.000167117
0.00686284
0.000163084
0.00683104
0.000159101
0.00680004
0.000155174
0.00676981
0.000151306
0.00674035
0.000147502
0.00671165
0.000143765
0.00668368
0.0001401
0.00665643
0.000136509
0.00662989
0.000132996
0.00660404
0.000129563
0.00657887
0.000126212
0.00655435
0.000122945
0.00653047
0.000119764
0.00650721