/*--------------------------------*- C++ -*----------------------------------*\
| =========                 |                                                 |
| \\      /  F ield         | OpenFOAM: The Open Source CFD Toolbox           |
|  \\    /   O peration     | Version:  2306                                  |
|   \\  /    A nd           | Website:  www.openfoam.com                      |
|    \\/     M anipulation  |                                                 |
\*---------------------------------------------------------------------------*/
FoamFile
{
    version     2.0;
    format      ascii;
    arch        "LSB;label=32;scalar=64";
    class       volScalarField;
    location    "8.5";
    object      T;
}
// * * * * * * * * * * * * * * * * * * * * * * * * * * * * * * * * * * * * * //

dimensions      [0 0 0 1 0 0 0];

internalField   nonuniform List<scalar> 
32768
(
300
300
300
300
300
300
300
300
300
300
300
300
300
300
300
300
300
300
300
300
300
300
300
300
300
300
300
300
300
300
300
300
300
300
300
300
300
300
300
300
300
300
300
300
300
300
300
300
300
300
300
300
300
300
300
300
300
300
300
300
300
300
300
300
300
300
300
300
300
300
300
300
300
300
300
300
300
300
300
300
299.999
299.999
299.999
299.999
299.999
299.999
299.999
299.998
299.998
299.998
299.998
299.997
299.997
299.997
299.996
299.996
299.995
299.994
299.994
299.993
299.992
299.991
299.99
299.989
299.988
299.987
299.985
299.984
299.982
299.98
299.979
299.976
299.974
299.972
299.969
299.966
299.963
299.96
299.956
299.953
299.949
299.944
299.94
299.935
299.93
299.924
299.918
299.912
299.905
299.898
299.891
299.883
299.874
299.866
299.856
299.847
299.836
299.826
299.815
299.803
299.79
299.778
299.764
299.75
299.735
299.72
299.704
299.688
299.671
299.653
299.635
299.616
299.596
299.576
299.555
299.533
299.511
299.488
299.464
299.44
299.415
299.389
299.363
299.336
299.308
299.28
299.251
299.222
299.192
299.161
299.13
299.098
299.066
299.033
298.999
298.965
298.931
298.896
298.86
298.824
298.788
298.751
298.713
298.675
298.637
298.598
298.559
298.52
298.48
298.44
298.4
298.359
298.318
298.276
298.234
298.192
298.15
298.107
298.065
298.021
297.978
297.934
297.89
297.846
297.801
297.757
297.711
297.666
297.62
297.574
297.527
297.48
297.433
297.385
297.337
297.287
297.237
297.187
297.135
297.082
297.028
296.973
296.915
296.856
296.794
296.73
296.663
296.591
296.515
296.434
296.345
296.246
296.134
296
295.833
295.607
295.279
294.763
293.9
292.388
289.658
284.63
275.271
257.749
224.853
163.048
46.9566
-170.912
-579.281
-1343.63
-2772.08
-5437.44
-10402.9
-19638.2
-36789.1
-68584.5
300
300
300
300
300
300
300
300
300
300
300
300
300
300
300
300
300
300
300
300
300
300
300
300
300
300
300
300
300
300
300
300
300
300
300
300
300
300
300
300
300
300
300
300
300
300
300
300
300
300
300
300
300
300
300
300
300
300
300
300
300
300
300
300
300
300
300
300
300
300
300
300
300
300
300
300
300
300
300
299.999
299.999
299.999
299.999
299.999
299.999
299.999
299.998
299.998
299.998
299.998
299.997
299.997
299.997
299.996
299.996
299.995
299.995
299.994
299.993
299.992
299.991
299.99
299.989
299.988
299.987
299.986
299.984
299.982
299.981
299.979
299.977
299.974
299.972
299.969
299.966
299.963
299.96
299.957
299.953
299.949
299.944
299.94
299.935
299.93
299.924
299.918
299.912
299.905
299.898
299.891
299.883
299.874
299.866
299.856
299.847
299.836
299.826
299.815
299.803
299.79
299.778
299.764
299.75
299.735
299.72
299.704
299.688
299.671
299.653
299.635
299.616
299.596
299.576
299.555
299.534
299.511
299.489
299.465
299.441
299.416
299.391
299.365
299.338
299.31
299.282
299.254
299.225
299.195
299.164
299.133
299.102
299.07
299.037
299.004
298.97
298.936
298.901
298.866
298.83
298.794
298.757
298.72
298.683
298.645
298.606
298.568
298.529
298.489
298.449
298.409
298.369
298.328
298.287
298.246
298.204
298.162
298.12
298.077
298.035
297.992
297.948
297.905
297.861
297.817
297.772
297.728
297.683
297.637
297.592
297.546
297.499
297.453
297.405
297.357
297.309
297.26
297.21
297.16
297.108
297.055
297.002
296.946
296.889
296.83
296.768
296.704
296.637
296.565
296.49
296.408
296.319
296.221
296.108
295.975
295.807
295.582
295.253
294.737
293.875
292.364
289.634
284.608
275.252
257.734
224.847
163.056
46.9865
-170.848
-579.17
-1343.46
-2771.86
-5437.25
-10403
-19639.3
-36792.9
-68595
300
300
300
300
300
300
300
300
300
300
300
300
300
300
300
300
300
300
300
300
300
300
300
300
300
300
300
300
300
300
300
300
300
300
300
300
300
300
300
300
300
300
300
300
300
300
300
300
300
300
300
300
300
300
300
300
300
300
300
300
300
300
300
300
300
300
300
300
300
300
300
300
300
300
300
300
300
299.999
299.999
299.999
299.999
299.999
299.999
299.999
299.999
299.998
299.998
299.998
299.998
299.997
299.997
299.996
299.996
299.995
299.995
299.994
299.993
299.993
299.992
299.991
299.99
299.989
299.987
299.986
299.985
299.983
299.981
299.979
299.977
299.975
299.973
299.97
299.967
299.964
299.961
299.957
299.954
299.95
299.945
299.941
299.936
299.931
299.925
299.919
299.913
299.906
299.899
299.892
299.884
299.875
299.867
299.857
299.848
299.837
299.827
299.816
299.804
299.791
299.779
299.765
299.751
299.737
299.721
299.706
299.689
299.672
299.655
299.636
299.618
299.598
299.578
299.557
299.536
299.514
299.491
299.468
299.444
299.419
299.394
299.368
299.342
299.314
299.287
299.258
299.23
299.2
299.17
299.14
299.108
299.077
299.044
299.012
298.978
298.945
298.911
298.876
298.841
298.805
298.769
298.733
298.696
298.658
298.621
298.583
298.544
298.506
298.467
298.427
298.387
298.347
298.307
298.266
298.225
298.184
298.143
298.101
298.059
298.017
297.974
297.932
297.889
297.845
297.802
297.758
297.714
297.67
297.625
297.58
297.535
297.489
297.443
297.397
297.35
297.302
297.254
297.205
297.156
297.106
297.054
297.002
296.948
296.893
296.836
296.777
296.716
296.652
296.585
296.514
296.438
296.357
296.268
296.17
296.057
295.924
295.756
295.531
295.203
294.687
293.825
292.315
289.587
284.565
275.215
257.707
224.838
163.075
47.0518
-170.713
-578.934
-1343.1
-2771.4
-5436.83
-10403.1
-19641.5
-36800.5
-68616.1
300
300
300
300
300
300
300
300
300
300
300
300
300
300
300
300
300
300
300
300
300
300
300
300
300
300
300
300
300
300
300
300
300
300
300
300
300
300
300
300
300
300
300
300
300
300
300
300
300
300
300
300
300
300
300
300
300
300
300
300
300
300
300
300
300
300
300
300
300
300
300
300
300
300
300
300
299.999
299.999
299.999
299.999
299.999
299.999
299.999
299.998
299.998
299.998
299.998
299.997
299.997
299.996
299.996
299.995
299.995
299.994
299.993
299.993
299.992
299.991
299.99
299.988
299.987
299.986
299.984
299.983
299.981
299.979
299.977
299.974
299.972
299.969
299.966
299.963
299.959
299.956
299.952
299.948
299.943
299.938
299.933
299.928
299.922
299.916
299.909
299.902
299.895
299.887
299.879
299.87
299.861
299.851
299.841
299.831
299.819
299.808
299.795
299.783
299.769
299.755
299.741
299.726
299.71
299.694
299.677
299.659
299.641
299.622
299.603
299.583
299.562
299.541
299.519
299.496
299.473
299.449
299.425
299.4
299.374
299.348
299.321
299.294
299.266
299.237
299.208
299.179
299.149
299.118
299.087
299.055
299.023
298.99
298.957
298.923
298.889
298.855
298.82
298.784
298.749
298.713
298.676
298.639
298.602
298.565
298.527
298.489
298.45
298.411
298.372
298.333
298.293
298.253
298.213
298.173
298.132
298.091
298.05
298.009
297.967
297.926
297.883
297.841
297.799
297.756
297.713
297.67
297.626
297.582
297.538
297.494
297.449
297.404
297.358
297.312
297.266
297.219
297.171
297.123
297.074
297.024
296.973
296.921
296.868
296.813
296.757
296.698
296.637
296.574
296.507
296.436
296.361
296.279
296.191
296.093
295.981
295.847
295.68
295.455
295.127
294.612
293.751
292.242
289.518
284.5
275.159
257.667
224.824
163.105
47.1521
-170.506
-578.576
-1342.55
-2770.7
-5436.2
-10403.3
-19644.6
-36811.9
-68647.8
300
300
300
300
300
300
300
300
300
300
300
300
300
300
300
300
300
300
300
300
300
300
300
300
300
300
300
300
300
300
300
300
300
300
300
300
300
300
300
300
300
300
300
300
300
300
300
300
300
300
300
300
300
300
300
300
300
300
300
300
300
300
300
300
300
300
300
300
300
300
300
300
300
300
299.999
299.999
299.999
299.999
299.999
299.999
299.999
299.998
299.998
299.998
299.998
299.997
299.997
299.996
299.996
299.995
299.995
299.994
299.993
299.992
299.991
299.99
299.989
299.988
299.986
299.985
299.983
299.981
299.98
299.977
299.975
299.973
299.97
299.967
299.964
299.96
299.957
299.953
299.948
299.944
299.939
299.934
299.928
299.922
299.916
299.909
299.902
299.895
299.887
299.878
299.869
299.86
299.85
299.84
299.829
299.817
299.805
299.793
299.779
299.766
299.751
299.736
299.721
299.704
299.688
299.67
299.652
299.633
299.614
299.594
299.574
299.552
299.53
299.508
299.485
299.461
299.437
299.412
299.386
299.36
299.333
299.306
299.278
299.25
299.221
299.192
299.162
299.131
299.1
299.069
299.037
299.005
298.972
298.939
298.905
298.871
298.837
298.802
298.767
298.732
298.696
298.66
298.623
298.587
298.55
298.513
298.475
298.437
298.399
298.361
298.322
298.284
298.245
298.206
298.166
298.127
298.087
298.047
298.006
297.966
297.925
297.885
297.844
297.802
297.761
297.719
297.677
297.635
297.593
297.55
297.508
297.465
297.421
297.377
297.333
297.289
297.244
297.199
297.153
297.107
297.06
297.013
296.964
296.915
296.865
296.814
296.761
296.707
296.651
296.593
296.532
296.469
296.402
296.332
296.257
296.176
296.088
295.99
295.878
295.745
295.578
295.353
295.026
294.511
293.651
292.145
289.424
284.413
275.084
257.614
224.806
163.146
47.2863
-170.229
-578.097
-1341.83
-2769.75
-5435.36
-10403.6
-19648.9
-36827.1
-68690.2
300
300
300
300
300
300
300
300
300
300
300
300
300
300
300
300
300
300
300
300
300
300
300
300
300
300
300
300
300
300
300
300
300
300
300
300
300
300
300
300
300
300
300
300
300
300
300
300
300
300
300
300
300
300
300
300
300
300
300
300
300
300
300
300
300
300
300
300
300
300
300
300
299.999
299.999
299.999
299.999
299.999
299.999
299.999
299.998
299.998
299.998
299.997
299.997
299.997
299.996
299.996
299.995
299.994
299.994
299.993
299.992
299.991
299.99
299.988
299.987
299.985
299.984
299.982
299.98
299.978
299.976
299.973
299.97
299.967
299.964
299.961
299.957
299.953
299.948
299.944
299.939
299.933
299.927
299.921
299.915
299.908
299.9
299.892
299.884
299.875
299.866
299.856
299.846
299.835
299.823
299.811
299.798
299.785
299.771
299.756
299.741
299.725
299.709
299.692
299.674
299.655
299.636
299.616
299.596
299.575
299.553
299.531
299.507
299.484
299.459
299.434
299.409
299.383
299.356
299.328
299.3
299.272
299.243
299.213
299.183
299.153
299.122
299.09
299.058
299.026
298.993
298.96
298.926
298.892
298.858
298.823
298.789
298.753
298.718
298.682
298.646
298.61
298.573
298.537
298.5
298.463
298.425
298.388
298.35
298.312
298.274
298.236
298.198
298.159
298.121
298.082
298.043
298.004
297.965
297.926
297.886
297.847
297.807
297.767
297.727
297.687
297.646
297.606
297.565
297.524
297.483
297.442
297.4
297.358
297.316
297.274
297.231
297.188
297.144
297.101
297.056
297.011
296.966
296.92
296.874
296.826
296.778
296.728
296.678
296.626
296.572
296.517
296.46
296.4
296.337
296.271
296.201
296.127
296.046
295.959
295.861
295.749
295.617
295.45
295.226
294.899
294.385
293.527
292.023
289.307
284.305
274.991
257.546
224.783
163.196
47.4533
-169.883
-577.499
-1340.92
-2768.58
-5434.31
-10404
-19654.3
-36846.1
-68743.2
300
300
300
300
300
300
300
300
300
300
300
300
300
300
300
300
300
300
300
300
300
300
300
300
300
300
300
300
300
300
300
300
300
300
300
300
300
300
300
300
300
300
300
300
300
300
300
300
300
300
300
300
300
300
300
300
300
300
300
300
300
300
300
300
300
300
300
300
300
300
299.999
299.999
299.999
299.999
299.999
299.999
299.999
299.998
299.998
299.998
299.997
299.997
299.996
299.996
299.995
299.995
299.994
299.993
299.992
299.991
299.99
299.989
299.987
299.986
299.984
299.983
299.981
299.978
299.976
299.973
299.971
299.967
299.964
299.961
299.957
299.952
299.948
299.943
299.938
299.932
299.926
299.92
299.913
299.905
299.897
299.889
299.88
299.871
299.861
299.85
299.839
299.828
299.815
299.802
299.788
299.774
299.759
299.743
299.727
299.71
299.692
299.674
299.654
299.634
299.614
299.592
299.57
299.547
299.524
299.499
299.474
299.449
299.422
299.395
299.368
299.34
299.311
299.281
299.251
299.221
299.19
299.158
299.126
299.093
299.06
299.027
298.993
298.959
298.924
298.889
298.854
298.819
298.783
298.747
298.71
298.674
298.637
298.6
298.563
298.526
298.489
298.452
298.414
298.376
298.339
298.301
298.263
298.225
298.187
298.149
298.111
298.073
298.035
297.997
297.959
297.92
297.882
297.844
297.805
297.767
297.728
297.69
297.651
297.612
297.573
297.534
297.495
297.456
297.416
297.377
297.337
297.297
297.257
297.217
297.176
297.135
297.094
297.053
297.011
296.969
296.926
296.883
296.84
296.795
296.751
296.705
296.659
296.611
296.563
296.513
296.462
296.41
296.355
296.299
296.24
296.178
296.113
296.043
295.969
295.89
295.802
295.705
295.594
295.462
295.296
295.072
294.745
294.233
293.376
291.876
289.166
284.174
274.878
257.465
224.754
163.255
47.652
-169.472
-576.786
-1339.83
-2767.18
-5433.06
-10404.5
-19660.7
-36869
-68806.9
300
300
300
300
300
300
300
300
300
300
300
300
300
300
300
300
300
300
300
300
300
300
300
300
300
300
300
300
300
300
300
300
300
300
300
300
300
300
300
300
300
300
300
300
300
300
300
300
300
300
300
300
300
300
300
300
300
300
300
300
300
300
300
300
300
300
300
300
299.999
299.999
299.999
299.999
299.999
299.999
299.999
299.998
299.998
299.998
299.997
299.997
299.996
299.996
299.995
299.994
299.994
299.993
299.992
299.991
299.989
299.988
299.987
299.985
299.983
299.981
299.979
299.976
299.974
299.971
299.968
299.964
299.961
299.957
299.952
299.947
299.942
299.937
299.931
299.925
299.918
299.91
299.903
299.894
299.885
299.876
299.866
299.855
299.844
299.832
299.819
299.806
299.792
299.777
299.762
299.745
299.728
299.71
299.692
299.672
299.652
299.631
299.609
299.586
299.563
299.538
299.513
299.487
299.461
299.433
299.405
299.376
299.346
299.316
299.285
299.253
299.221
299.188
299.155
299.121
299.086
299.051
299.016
298.98
298.943
298.907
298.87
298.832
298.795
298.757
298.719
298.68
298.642
298.603
298.565
298.526
298.487
298.448
298.409
298.37
298.331
298.292
298.253
298.215
298.176
298.137
298.098
298.06
298.021
297.983
297.945
297.907
297.869
297.831
297.793
297.755
297.717
297.68
297.642
297.605
297.567
297.53
297.492
297.455
297.417
297.38
297.342
297.305
297.267
297.229
297.191
297.153
297.115
297.077
297.038
297
296.961
296.922
296.882
296.842
296.802
296.761
296.72
296.679
296.637
296.594
296.551
296.506
296.461
296.415
296.368
296.32
296.27
296.219
296.165
296.11
296.052
295.991
295.926
295.858
295.785
295.705
295.619
295.522
295.412
295.28
295.114
294.891
294.565
294.054
293.2
291.703
289
284.02
274.745
257.368
224.719
163.322
47.8808
-168.995
-575.96
-1338.58
-2765.56
-5431.63
-10405.1
-19668.3
-36895.8
-68881.4
300
300
300
300
300
300
300
300
300
300
300
300
300
300
300
300
300
300
300
300
300
300
300
300
300
300
300
300
300
300
300
300
300
300
300
300
300
300
300
300
300
300
300
300
300
300
300
300
300
300
300
300
300
300
300
300
300
300
300
300
300
300
300
300
300
300
300
299.999
299.999
299.999
299.999
299.999
299.999
299.998
299.998
299.998
299.997
299.997
299.996
299.996
299.995
299.994
299.993
299.992
299.991
299.99
299.989
299.987
299.986
299.984
299.982
299.979
299.977
299.974
299.971
299.968
299.965
299.961
299.957
299.952
299.947
299.942
299.936
299.93
299.923
299.916
299.908
299.9
299.891
299.882
299.872
299.861
299.85
299.837
299.825
299.811
299.796
299.781
299.765
299.748
299.73
299.712
299.692
299.672
299.65
299.628
299.605
299.581
299.555
299.529
299.502
299.475
299.446
299.416
299.386
299.354
299.322
299.289
299.255
299.221
299.185
299.149
299.113
299.075
299.037
298.999
298.96
298.921
298.881
298.841
298.8
298.759
298.718
298.677
298.635
298.593
298.551
298.509
298.467
298.425
298.383
298.342
298.3
298.258
298.216
298.175
298.134
298.092
298.052
298.011
297.97
297.93
297.89
297.851
297.811
297.772
297.734
297.695
297.657
297.619
297.581
297.544
297.506
297.469
297.432
297.396
297.359
297.323
297.287
297.251
297.215
297.179
297.143
297.108
297.072
297.036
297
296.965
296.929
296.893
296.857
296.82
296.784
296.747
296.71
296.673
296.636
296.598
296.559
296.521
296.482
296.442
296.402
296.361
296.319
296.277
296.233
296.189
296.143
296.096
296.048
295.998
295.946
295.892
295.835
295.775
295.711
295.644
295.571
295.493
295.407
295.311
295.201
295.07
294.905
294.682
294.358
293.848
292.996
291.504
288.808
283.842
274.591
257.255
224.677
163.394
48.1382
-168.457
-575.024
-1337.15
-2763.73
-5430.01
-10405.8
-19677
-36926.6
-68966.8
300
300
300
300
300
300
300
300
300
300
300
300
300
300
300
300
300
300
300
300
300
300
300
300
300
300
300
300
300
300
300
300
300
300
300
300
300
300
300
300
300
300
300
300
300
300
300
300
300
300
300
300
300
300
300
300
300
300
300
300
300
300
300
300
300
299.999
299.999
299.999
299.999
299.999
299.999
299.998
299.998
299.998
299.997
299.997
299.996
299.995
299.995
299.994
299.993
299.992
299.991
299.989
299.988
299.986
299.985
299.983
299.98
299.978
299.975
299.972
299.969
299.965
299.961
299.957
299.953
299.947
299.942
299.936
299.93
299.923
299.915
299.907
299.898
299.889
299.879
299.868
299.857
299.844
299.831
299.818
299.803
299.787
299.771
299.753
299.735
299.715
299.695
299.673
299.651
299.627
299.603
299.577
299.55
299.522
299.493
299.463
299.432
299.4
299.367
299.333
299.298
299.262
299.224
299.186
299.148
299.108
299.067
299.026
298.984
298.941
298.898
298.854
298.81
298.765
298.72
298.674
298.628
298.582
298.536
298.489
298.443
298.396
298.349
298.303
298.256
298.21
298.164
298.118
298.072
298.026
297.981
297.936
297.892
297.848
297.804
297.761
297.719
297.676
297.635
297.593
297.553
297.512
297.473
297.433
297.395
297.356
297.318
297.281
297.244
297.207
297.171
297.136
297.1
297.065
297.03
296.996
296.962
296.928
296.894
296.86
296.827
296.793
296.76
296.726
296.693
296.66
296.626
296.593
296.559
296.526
296.492
296.458
296.423
296.388
296.353
296.318
296.282
296.246
296.209
296.171
296.133
296.095
296.055
296.015
295.973
295.931
295.887
295.842
295.795
295.747
295.696
295.643
295.588
295.529
295.467
295.401
295.329
295.252
295.167
295.072
294.963
294.832
294.668
294.446
294.123
293.615
292.766
291.278
288.591
283.64
274.416
257.126
224.625
163.472
48.4223
-167.858
-573.981
-1335.57
-2761.69
-5428.23
-10406.6
-19686.9
-36961.3
-69063.2
300
300
300
300
300
300
300
300
300
300
300
300
300
300
300
300
300
300
300
300
300
300
300
300
300
300
300
300
300
300
300
300
300
300
300
300
300
300
300
300
300
300
300
300
300
300
300
300
300
300
300
300
300
300
300
300
300
300
300
300
300
300
300
299.999
299.999
299.999
299.999
299.999
299.999
299.998
299.998
299.998
299.997
299.997
299.996
299.995
299.995
299.994
299.993
299.992
299.99
299.989
299.987
299.986
299.984
299.981
299.979
299.976
299.973
299.97
299.966
299.962
299.958
299.953
299.948
299.943
299.936
299.93
299.922
299.915
299.906
299.897
299.887
299.877
299.865
299.853
299.84
299.826
299.811
299.796
299.779
299.761
299.742
299.722
299.701
299.679
299.655
299.63
299.604
299.577
299.549
299.519
299.488
299.456
299.423
299.388
299.352
299.315
299.277
299.237
299.196
299.154
299.111
299.067
299.022
298.977
298.93
298.882
298.834
298.784
298.735
298.684
298.633
298.582
298.53
298.478
298.425
298.373
298.32
298.267
298.214
298.162
298.109
298.057
298.004
297.952
297.901
297.85
297.799
297.749
297.699
297.65
297.602
297.554
297.507
297.461
297.415
297.37
297.326
297.282
297.239
297.197
297.156
297.116
297.076
297.037
296.999
296.961
296.925
296.888
296.853
296.818
296.783
296.75
296.716
296.683
296.651
296.619
296.587
296.556
296.525
296.494
296.464
296.433
296.403
296.373
296.343
296.312
296.282
296.252
296.221
296.191
296.16
296.129
296.097
296.066
296.034
296.001
295.968
295.935
295.901
295.866
295.831
295.794
295.757
295.719
295.68
295.64
295.599
295.556
295.511
295.464
295.416
295.364
295.311
295.254
295.193
295.128
295.058
294.982
294.898
294.803
294.695
294.566
294.402
294.181
293.859
293.353
292.507
291.025
288.347
283.413
274.218
256.979
224.564
163.554
48.7311
-167.203
-572.836
-1333.82
-2759.45
-5426.29
-10407.6
-19698
-37000.1
-69170.7
300
300
300
300
300
300
300
300
300
300
300
300
300
300
300
300
300
300
300
300
300
300
300
300
300
300
300
300
300
300
300
300
300
300
300
300
300
300
300
300
300
300
300
300
300
300
300
300
300
300
300
300
300
300
300
300
300
300
300
300
300
299.999
299.999
299.999
299.999
299.999
299.999
299.998
299.998
299.998
299.997
299.997
299.996
299.995
299.995
299.994
299.993
299.991
299.99
299.989
299.987
299.985
299.983
299.98
299.978
299.975
299.972
299.968
299.964
299.96
299.955
299.949
299.944
299.937
299.931
299.923
299.915
299.906
299.897
299.886
299.875
299.863
299.851
299.837
299.822
299.806
299.789
299.771
299.752
299.732
299.71
299.687
299.663
299.638
299.611
299.582
299.553
299.521
299.489
299.454
299.419
299.381
299.343
299.302
299.261
299.218
299.173
299.127
299.08
299.031
298.982
298.93
298.878
298.825
298.771
298.715
298.659
298.602
298.544
298.486
298.427
298.368
298.308
298.248
298.187
298.127
298.066
298.006
297.946
297.885
297.825
297.766
297.707
297.648
297.59
297.533
297.476
297.42
297.365
297.31
297.257
297.204
297.153
297.102
297.053
297.004
296.957
296.91
296.865
296.821
296.778
296.735
296.694
296.655
296.616
296.578
296.541
296.505
296.47
296.435
296.402
296.37
296.338
296.307
296.276
296.247
296.217
296.189
296.161
296.133
296.105
296.078
296.051
296.025
295.998
295.972
295.946
295.919
295.893
295.867
295.84
295.813
295.786
295.759
295.731
295.703
295.675
295.646
295.616
295.586
295.555
295.524
295.492
295.459
295.425
295.389
295.353
295.316
295.277
295.236
295.194
295.149
295.103
295.054
295.002
294.947
294.888
294.824
294.756
294.681
294.598
294.505
294.398
294.269
294.106
293.886
293.566
293.062
292.219
290.743
288.075
283.159
273.997
256.813
224.492
163.637
49.0624
-166.494
-571.594
-1331.93
-2757.02
-5424.2
-10408.8
-19710.3
-37043
-69289.3
300
300
300
300
300
300
300
300
300
300
300
300
300
300
300
300
300
300
300
300
300
300
300
300
300
300
300
300
300
300
300
300
300
300
300
300
300
300
300
300
300
300
300
300
300
300
300
300
300
300
300
300
300
300
300
300
300
300
300
300
299.999
299.999
299.999
299.999
299.999
299.998
299.998
299.998
299.997
299.997
299.996
299.995
299.994
299.994
299.992
299.991
299.99
299.988
299.986
299.984
299.982
299.979
299.977
299.973
299.97
299.966
299.961
299.957
299.951
299.946
299.939
299.932
299.925
299.916
299.907
299.897
299.887
299.875
299.863
299.849
299.835
299.819
299.803
299.785
299.766
299.745
299.724
299.7
299.676
299.65
299.622
299.593
299.562
299.529
299.495
299.459
299.421
299.382
299.34
299.297
299.253
299.206
299.158
299.108
299.056
299.003
298.948
298.891
298.833
298.774
298.713
298.651
298.588
298.523
298.458
298.392
298.325
298.257
298.188
298.119
298.05
297.98
297.91
297.84
297.77
297.701
297.631
297.562
297.493
297.425
297.357
297.291
297.225
297.159
297.095
297.032
296.97
296.909
296.849
296.791
296.734
296.678
296.624
296.571
296.519
296.469
296.421
296.374
296.328
296.284
296.241
296.2
296.16
296.121
296.084
296.048
296.013
295.98
295.947
295.916
295.886
295.857
295.829
295.802
295.775
295.75
295.725
295.7
295.677
295.653
295.631
295.608
295.586
295.564
295.543
295.521
295.5
295.478
295.456
295.435
295.413
295.391
295.368
295.346
295.322
295.299
295.275
295.25
295.224
295.198
295.172
295.144
295.115
295.086
295.055
295.023
294.99
294.956
294.92
294.882
294.843
294.801
294.757
294.71
294.661
294.607
294.55
294.489
294.422
294.348
294.267
294.175
294.069
293.942
293.78
293.562
293.242
292.741
291.902
290.432
287.775
282.879
273.751
256.627
224.408
163.72
49.4135
-165.734
-570.258
-1329.89
-2754.41
-5421.99
-10410.1
-19723.9
-37090.1
-69419.3
300
300
300
300
300
300
300
300
300
300
300
300
300
300
300
300
300
300
300
300
300
300
300
300
300
300
300
300
300
300
300
300
300
300
300
300
300
300
300
300
300
300
300
300
300
300
300
300
300
300
300
300
300
300
300
300
300
300
299.999
299.999
299.999
299.999
299.999
299.999
299.998
299.998
299.997
299.997
299.996
299.995
299.995
299.994
299.992
299.991
299.99
299.988
299.986
299.984
299.981
299.979
299.975
299.972
299.968
299.964
299.959
299.954
299.948
299.942
299.935
299.927
299.918
299.909
299.899
299.888
299.876
299.864
299.85
299.835
299.818
299.801
299.782
299.762
299.74
299.717
299.692
299.666
299.638
299.608
299.577
299.543
299.508
299.471
299.431
299.39
299.347
299.301
299.253
299.204
299.152
299.098
299.042
298.984
298.924
298.862
298.798
298.732
298.665
298.596
298.525
298.453
298.379
298.304
298.227
298.15
298.072
297.993
297.913
297.832
297.752
297.67
297.589
297.508
297.427
297.346
297.265
297.185
297.106
297.027
296.95
296.873
296.797
296.723
296.649
296.577
296.507
296.438
296.371
296.306
296.242
296.18
296.119
296.061
296.004
295.95
295.897
295.846
295.797
295.751
295.705
295.662
295.621
295.581
295.543
295.507
295.473
295.44
295.409
295.379
295.351
295.324
295.299
295.274
295.251
295.229
295.208
295.187
295.168
295.149
295.131
295.114
295.097
295.08
295.064
295.048
295.032
295.017
295.001
294.985
294.97
294.954
294.937
294.921
294.904
294.886
294.869
294.85
294.831
294.811
294.791
294.769
294.747
294.724
294.7
294.674
294.648
294.62
294.591
294.56
294.527
294.493
294.457
294.418
294.377
294.333
294.286
294.235
294.18
294.121
294.056
293.984
293.904
293.814
293.71
293.583
293.423
293.206
292.888
292.389
291.554
290.091
287.446
282.571
273.48
256.42
224.309
163.801
49.782
-164.928
-568.834
-1327.72
-2751.64
-5419.66
-10411.7
-19738.8
-37141.4
-69560.8
300
300
300
300
300
300
300
300
300
300
300
300
300
300
300
300
300
300
300
300
300
300
300
300
300
300
300
300
300
300
300
300
300
300
300
300
300
300
300
300
300
300
300
300
300
300
300
300
300
300
300
300
300
300
300
300
300
299.999
299.999
299.999
299.999
299.999
299.998
299.998
299.997
299.997
299.996
299.996
299.995
299.994
299.992
299.991
299.99
299.988
299.986
299.983
299.981
299.978
299.975
299.971
299.967
299.962
299.957
299.951
299.945
299.938
299.93
299.922
299.912
299.902
299.891
299.879
299.866
299.851
299.836
299.819
299.801
299.781
299.76
299.738
299.713
299.687
299.659
299.629
299.598
299.564
299.528
299.49
299.449
299.407
299.362
299.314
299.264
299.212
299.157
299.1
299.04
298.978
298.913
298.846
298.776
298.704
298.63
298.554
298.475
298.394
298.312
298.227
298.141
298.053
297.964
297.874
297.782
297.69
297.597
297.503
297.408
297.314
297.219
297.124
297.029
296.935
296.841
296.748
296.656
296.565
296.475
296.386
296.299
296.213
296.129
296.047
295.967
295.888
295.812
295.737
295.665
295.596
295.528
295.463
295.4
295.34
295.282
295.227
295.174
295.124
295.076
295.03
294.987
294.946
294.907
294.871
294.837
294.805
294.775
294.746
294.72
294.696
294.673
294.652
294.633
294.614
294.598
294.582
294.568
294.554
294.542
294.53
294.519
294.509
294.499
294.49
294.481
294.472
294.464
294.455
294.447
294.438
294.429
294.42
294.41
294.4
294.39
294.379
294.367
294.355
294.342
294.328
294.313
294.297
294.281
294.263
294.243
294.223
294.201
294.178
294.153
294.126
294.098
294.067
294.034
293.999
293.961
293.921
293.876
293.828
293.776
293.719
293.656
293.587
293.509
293.42
293.317
293.192
293.034
292.818
292.502
292.005
291.174
289.719
287.087
282.234
273.182
256.19
224.195
163.878
50.1648
-164.079
-567.329
-1325.42
-2748.7
-5417.24
-10413.6
-19755.1
-37197
-69713.9
300
300
300
300
300
300
300
300
300
300
300
300
300
300
300
300
300
300
300
300
300
300
300
300
300
300
300
300
300
300
300
300
300
300
300
300
300
300
300
300
300
300
300
300
300
300
300
300
300
300
300
300
300
300
300
300
299.999
299.999
299.999
299.999
299.998
299.998
299.998
299.997
299.996
299.996
299.995
299.994
299.993
299.991
299.99
299.988
299.986
299.983
299.98
299.977
299.974
299.97
299.965
299.96
299.955
299.949
299.942
299.934
299.926
299.917
299.906
299.895
299.883
299.87
299.855
299.839
299.822
299.803
299.783
299.761
299.737
299.712
299.685
299.655
299.624
299.59
299.554
299.516
299.475
299.432
299.386
299.337
299.286
299.232
299.175
299.115
299.052
298.986
298.917
298.845
298.77
298.692
298.612
298.528
298.442
298.353
298.261
298.167
298.071
297.973
297.872
297.77
297.665
297.56
297.453
297.344
297.235
297.125
297.015
296.904
296.793
296.682
296.571
296.461
296.352
296.243
296.136
296.03
295.925
295.822
295.721
295.622
295.525
295.43
295.337
295.247
295.16
295.075
294.993
294.914
294.838
294.765
294.694
294.627
294.563
294.502
294.444
294.39
294.338
294.289
294.244
294.201
294.161
294.124
294.09
294.059
294.03
294.003
293.98
293.958
293.939
293.921
293.906
293.893
293.881
293.871
293.862
293.855
293.849
293.844
293.841
293.838
293.836
293.834
293.833
293.833
293.833
293.833
293.833
293.833
293.833
293.832
293.832
293.831
293.829
293.827
293.824
293.821
293.817
293.811
293.805
293.798
293.79
293.78
293.77
293.758
293.744
293.73
293.713
293.695
293.675
293.653
293.629
293.603
293.575
293.543
293.509
293.472
293.431
293.386
293.337
293.283
293.222
293.155
293.079
292.993
292.891
292.768
292.611
292.397
292.083
291.589
290.762
289.314
286.696
281.867
272.856
255.936
224.063
163.948
50.5587
-163.192
-565.749
-1323
-2745.63
-5414.74
-10415.7
-19772.7
-37257
-69878.8
300
300
300
300
300
300
300
300
300
300
300
300
300
300
300
300
300
300
300
300
300
300
300
300
300
300
300
300
300
300
300
300
300
300
300
300
300
300
300
300
300
300
300
300
300
300
300
300
300
300
300
300
300
300
299.999
299.999
299.999
299.999
299.999
299.998
299.998
299.997
299.997
299.996
299.995
299.994
299.993
299.991
299.99
299.988
299.986
299.983
299.98
299.977
299.973
299.969
299.964
299.959
299.953
299.947
299.939
299.931
299.922
299.912
299.901
299.888
299.875
299.86
299.844
299.827
299.808
299.787
299.764
299.74
299.714
299.685
299.655
299.622
299.586
299.549
299.508
299.465
299.419
299.37
299.318
299.262
299.204
299.142
299.077
299.008
298.936
298.861
298.781
298.699
298.612
298.522
298.429
298.332
298.232
298.129
298.023
297.913
297.801
297.686
297.569
297.449
297.327
297.204
297.078
296.952
296.824
296.695
296.565
296.436
296.305