/*--------------------------------*- C++ -*----------------------------------*\
| =========                 |                                                 |
| \\      /  F ield         | OpenFOAM: The Open Source CFD Toolbox           |
|  \\    /   O peration     | Version:  2306                                  |
|   \\  /    A nd           | Website:  www.openfoam.com                      |
|    \\/     M anipulation  |                                                 |
\*---------------------------------------------------------------------------*/
FoamFile
{
    version     2.0;
    format      ascii;
    arch        "LSB;label=32;scalar=64";
    class       volVectorField;
    location    "8.5";
    object      U;
}
// * * * * * * * * * * * * * * * * * * * * * * * * * * * * * * * * * * * * * //

dimensions      [0 1 -1 0 0 0 0];

internalField   nonuniform List<vector> 
32768
(
(1.00001 -4.03685e-05 0)
(1.00017 -0.000121316 0)
(1.00049 -0.000202419 0)
(1.00097 -0.000283683 0)
(1.00162 -0.000365211 0)
(1.00243 -0.000447101 0)
(1.00341 -0.000529417 0)
(1.00455 -0.000612215 0)
(1.00586 -0.000695557 0)
(1.00734 -0.000779504 0)
(1.00898 -0.000864112 0)
(1.01079 -0.000949431 0)
(1.01278 -0.0010355 0)
(1.01493 -0.00112236 0)
(1.01727 -0.00121004 0)
(1.01978 -0.00129855 0)
(1.02246 -0.00138791 0)
(1.02533 -0.00147811 0)
(1.02837 -0.00156916 0)
(1.0316 -0.00166101 0)
(1.03502 -0.00175365 0)
(1.03862 -0.00184702 0)
(1.04241 -0.00194108 0)
(1.04638 -0.00203573 0)
(1.05055 -0.00213091 0)
(1.05491 -0.0022265 0)
(1.05946 -0.0023224 0)
(1.0642 -0.00241848 0)
(1.06913 -0.00251458 0)
(1.07426 -0.00261055 0)
(1.07958 -0.00270623 0)
(1.08509 -0.00280141 0)
(1.09078 -0.00289591 0)
(1.09667 -0.00298952 0)
(1.10274 -0.003082 0)
(1.109 -0.00317313 0)
(1.11544 -0.00326267 0)
(1.12205 -0.00335038 0)
(1.12884 -0.00343599 0)
(1.1358 -0.00351926 0)
(1.14292 -0.00359993 0)
(1.1502 -0.00367776 0)
(1.15764 -0.00375248 0)
(1.16522 -0.00382387 0)
(1.17294 -0.00389169 0)
(1.18079 -0.00395572 0)
(1.18876 -0.00401575 0)
(1.19686 -0.0040716 0)
(1.20505 -0.00412309 0)
(1.21335 -0.00417008 0)
(1.22174 -0.00421244 0)
(1.23021 -0.00425005 0)
(1.23874 -0.00428285 0)
(1.24734 -0.00431079 0)
(1.25599 -0.00433382 0)
(1.26468 -0.00435197 0)
(1.27341 -0.00436524 0)
(1.28215 -0.00437371 0)
(1.2909 -0.00437743 0)
(1.29966 -0.00437652 0)
(1.30842 -0.0043711 0)
(1.31715 -0.00436131 0)
(1.32587 -0.00434732 0)
(1.33455 -0.00432932 0)
(1.34319 -0.00430749 0)
(1.35178 -0.00428206 0)
(1.36032 -0.00425324 0)
(1.3688 -0.00422126 0)
(1.37721 -0.00418635 0)
(1.38554 -0.00414876 0)
(1.3938 -0.00410872 0)
(1.40198 -0.00406646 0)
(1.41007 -0.00402224 0)
(1.41807 -0.00397626 0)
(1.42598 -0.00392876 0)
(1.43379 -0.00387995 0)
(1.4415 -0.00383003 0)
(1.44911 -0.00377919 0)
(1.45662 -0.00372761 0)
(1.46402 -0.00367545 0)
(1.47132 -0.00362286 0)
(1.47851 -0.00356997 0)
(1.4856 -0.00351689 0)
(1.49258 -0.00346373 0)
(1.49945 -0.00341056 0)
(1.50622 -0.00335745 0)
(1.51288 -0.00330444 0)
(1.51944 -0.00325157 0)
(1.52589 -0.00319885 0)
(1.53223 -0.00314628 0)
(1.53847 -0.00309383 0)
(1.54461 -0.00304149 0)
(1.55064 -0.00298921 0)
(1.55656 -0.00293692 0)
(1.56239 -0.00288456 0)
(1.5681 -0.00283206 0)
(1.57371 -0.00277933 0)
(1.57922 -0.00272626 0)
(1.58462 -0.00267278 0)
(1.58991 -0.00261876 0)
(1.59509 -0.0025641 0)
(1.60017 -0.00250869 0)
(1.60513 -0.00245241 0)
(1.60998 -0.00239516 0)
(1.61471 -0.00233682 0)
(1.61932 -0.00227728 0)
(1.62382 -0.00221644 0)
(1.62819 -0.0021542 0)
(1.63243 -0.00209046 0)
(1.63655 -0.00202513 0)
(1.64054 -0.00195813 0)
(1.64438 -0.00188938 0)
(1.64809 -0.00181883 0)
(1.65166 -0.0017464 0)
(1.65508 -0.00167205 0)
(1.65835 -0.00159574 0)
(1.66146 -0.00151743 0)
(1.66442 -0.00143712 0)
(1.66721 -0.00135478 0)
(1.66984 -0.00127041 0)
(1.6723 -0.00118402 0)
(1.67458 -0.00109563 0)
(1.67668 -0.00100526 0)
(1.6786 -0.000912948 0)
(1.68033 -0.000818733 0)
(1.68188 -0.000722667 0)
(1.68322 -0.000624808 0)
(1.68437 -0.000525222 0)
(1.68533 -0.00042398 0)
(1.68607 -0.000321161 0)
(1.68661 -0.000216847 0)
(1.68694 -0.000111123 0)
(1.68705 -4.05897e-06 0)
(1.68696 0.000104142 0)
(1.68664 0.000213468 0)
(1.6861 0.000323808 0)
(1.68534 0.000435044 0)
(1.68436 0.000547062 0)
(1.68315 0.000659747 0)
(1.68172 0.000772984 0)
(1.68006 0.000886655 0)
(1.67817 0.00100064 0)
(1.67606 0.00111482 0)
(1.67371 0.00122907 0)
(1.67114 0.00134327 0)
(1.66834 0.0014573 0)
(1.66531 0.00157103 0)
(1.66205 0.00168433 0)
(1.65857 0.00179709 0)
(1.65486 0.00190918 0)
(1.65093 0.00202047 0)
(1.64678 0.00213083 0)
(1.64241 0.00224015 0)
(1.63782 0.00234828 0)
(1.63301 0.0024551 0)
(1.62799 0.00256048 0)
(1.62276 0.0026643 0)
(1.61733 0.00276642 0)
(1.6117 0.00286672 0)
(1.60586 0.00296507 0)
(1.59983 0.00306133 0)
(1.59361 0.00315538 0)
(1.58721 0.00324708 0)
(1.58062 0.00333632 0)
(1.57386 0.00342296 0)
(1.56692 0.00350689 0)
(1.55983 0.00358796 0)
(1.55257 0.00366608 0)
(1.54516 0.0037411 0)
(1.5376 0.00381294 0)
(1.5299 0.00388146 0)
(1.52207 0.00394657 0)
(1.51411 0.00400816 0)
(1.50603 0.00406614 0)
(1.49784 0.00412042 0)
(1.48955 0.00417092 0)
(1.48115 0.00421755 0)
(1.47267 0.00426027 0)
(1.46411 0.00429899 0)
(1.45547 0.00433369 0)
(1.44677 0.0043643 0)
(1.43801 0.00439082 0)
(1.4292 0.0044132 0)
(1.42035 0.00443145 0)
(1.41147 0.00444557 0)
(1.40256 0.00445556 0)
(1.39364 0.00446145 0)
(1.38471 0.00446327 0)
(1.37578 0.00446106 0)
(1.36686 0.00445489 0)
(1.35796 0.00444481 0)
(1.34908 0.0044309 0)
(1.34023 0.00441324 0)
(1.33142 0.00439194 0)
(1.32266 0.00436709 0)
(1.31395 0.0043388 0)
(1.3053 0.00430721 0)
(1.29672 0.00427242 0)
(1.28821 0.00423457 0)
(1.27977 0.00419382 0)
(1.27143 0.00415029 0)
(1.26317 0.00410414 0)
(1.25501 0.00405552 0)
(1.24694 0.00400459 0)
(1.23899 0.00395151 0)
(1.23114 0.00389643 0)
(1.2234 0.00383952 0)
(1.21578 0.00378093 0)
(1.20827 0.00372083 0)
(1.20089 0.00365938 0)
(1.19363 0.00359673 0)
(1.1865 0.00353303 0)
(1.1795 0.00346846 0)
(1.17263 0.00340314 0)
(1.16589 0.00333723 0)
(1.15928 0.00327087 0)
(1.1528 0.0032042 0)
(1.14646 0.00313734 0)
(1.14025 0.00307044 0)
(1.13418 0.00300361 0)
(1.12824 0.00293697 0)
(1.12243 0.00287062 0)
(1.11675 0.00280469 0)
(1.11121 0.00273927 0)
(1.1058 0.00267445 0)
(1.10051 0.00261033 0)
(1.09536 0.00254699 0)
(1.09033 0.0024845 0)
(1.08542 0.00242295 0)
(1.08063 0.0023624 0)
(1.07597 0.0023029 0)
(1.07142 0.00224453 0)
(1.06699 0.00218732 0)
(1.06268 0.00213133 0)
(1.05847 0.0020766 0)
(1.05437 0.00202317 0)
(1.05038 0.00197107 0)
(1.04649 0.00192032 0)
(1.0427 0.00187095 0)
(1.039 0.00182299 0)
(1.03541 0.00177645 0)
(1.0319 0.00173133 0)
(1.02848 0.00168766 0)
(1.02515 0.00164544 0)
(1.0219 0.00160467 0)
(1.01873 0.00156534 0)
(1.01564 0.00152747 0)
(1.01262 0.00149105 0)
(1.00968 0.00145603 0)
(1.0068 0.0014225 0)
(1.004 0.00139027 0)
(1.00121 0.00135962 0)
(0.998619 0.00133002 0)
(0.995751 0.00130185 0)
(0.993732 0.00127606 0)
(0.989676 0.00124375 0)
(1.00001 -0.000121281 0)
(1.00017 -0.000364169 0)
(1.00049 -0.000607439 0)
(1.00097 -0.000851227 0)
(1.00162 -0.00109581 0)
(1.00243 -0.00134144 0)
(1.00341 -0.00158834 0)
(1.00455 -0.00183669 0)
(1.00586 -0.00208668 0)
(1.00733 -0.00233849 0)
(1.00897 -0.00259228 0)
(1.01078 -0.00284821 0)
(1.01277 -0.00310641 0)
(1.01492 -0.00336698 0)
(1.01726 -0.00363001 0)
(1.01976 -0.00389555 0)
(1.02245 -0.00416365 0)
(1.02531 -0.00443429 0)
(1.02836 -0.00470745 0)
(1.03159 -0.00498307 0)
(1.035 -0.00526104 0)
(1.0386 -0.00554123 0)
(1.04239 -0.00582347 0)
(1.04636 -0.00610754 0)
(1.05053 -0.00639317 0)
(1.05489 -0.00668008 0)
(1.05944 -0.0069679 0)
(1.06418 -0.00725627 0)
(1.06911 -0.00754473 0)
(1.07424 -0.00783282 0)
(1.07956 -0.00812002 0)
(1.08507 -0.00840577 0)
(1.09077 -0.00868947 0)
(1.09666 -0.00897049 0)
(1.10274 -0.00924816 0)
(1.109 -0.00952177 0)
(1.11544 -0.00979062 0)
(1.12206 -0.0100539 0)
(1.12886 -0.010311 0)
(1.13582 -0.0105611 0)
(1.14295 -0.0108033 0)
(1.15024 -0.011037 0)
(1.15768 -0.0112614 0)
(1.16527 -0.0114757 0)
(1.17299 -0.0116794 0)
(1.18085 -0.0118716 0)
(1.18884 -0.0120519 0)
(1.19694 -0.0122195 0)
(1.20515 -0.0123741 0)
(1.21346 -0.0125152 0)
(1.22186 -0.0126423 0)
(1.23033 -0.0127552 0)
(1.23888 -0.0128536 0)
(1.24749 -0.0129374 0)
(1.25615 -0.0130065 0)
(1.26486 -0.0130609 0)
(1.27359 -0.0131006 0)
(1.28234 -0.0131259 0)
(1.29111 -0.0131369 0)
(1.29988 -0.0131341 0)
(1.30864 -0.0131176 0)
(1.31739 -0.0130881 0)
(1.32611 -0.0130459 0)
(1.3348 -0.0129917 0)
(1.34345 -0.012926 0)
(1.35205 -0.0128495 0)
(1.3606 -0.0127628 0)
(1.36908 -0.0126666 0)
(1.3775 -0.0125616 0)
(1.38584 -0.0124486 0)
(1.39411 -0.0123283 0)
(1.40229 -0.0122013 0)
(1.41039 -0.0120684 0)
(1.41839 -0.0119302 0)
(1.4263 -0.0117875 0)
(1.43412 -0.0116409 0)
(1.44183 -0.0114909 0)
(1.44945 -0.0113382 0)
(1.45695 -0.0111833 0)
(1.46436 -0.0110267 0)
(1.47166 -0.0108688 0)
(1.47886 -0.01071 0)
(1.48594 -0.0105507 0)
(1.49293 -0.0103911 0)
(1.4998 -0.0102316 0)
(1.50657 -0.0100722 0)
(1.51323 -0.00991314 0)
(1.51979 -0.00975451 0)
(1.52624 -0.00959635 0)
(1.53258 -0.00943864 0)
(1.53882 -0.00928134 0)
(1.54496 -0.00912435 0)
(1.55099 -0.00896753 0)
(1.55692 -0.00881073 0)
(1.56274 -0.00865373 0)
(1.56846 -0.00849629 0)
(1.57407 -0.00833817 0)
(1.57958 -0.00817907 0)
(1.58498 -0.0080187 0)
(1.59027 -0.00785673 0)
(1.59546 -0.00769284 0)
(1.60053 -0.0075267 0)
(1.6055 -0.00735796 0)
(1.61035 -0.00718629 0)
(1.61508 -0.00701135 0)
(1.6197 -0.00683282 0)
(1.6242 -0.00665038 0)
(1.62858 -0.00646372 0)
(1.63282 -0.00627256 0)
(1.63695 -0.00607663 0)
(1.64093 -0.00587568 0)
(1.64479 -0.00566948 0)
(1.6485 -0.00545784 0)
(1.65207 -0.00524058 0)
(1.6555 -0.00501754 0)
(1.65877 -0.00478861 0)
(1.66189 -0.0045537 0)
(1.66485 -0.00431274 0)
(1.66765 -0.0040657 0)
(1.67028 -0.00381256 0)
(1.67274 -0.00355335 0)
(1.67502 -0.00328813 0)
(1.67713 -0.00301696 0)
(1.67905 -0.00273996 0)
(1.68079 -0.00245724 0)
(1.68234 -0.00216896 0)
(1.68369 -0.0018753 0)
(1.68484 -0.00157645 0)
(1.6858 -0.00127262 0)
(1.68655 -0.000964065 0)
(1.68709 -0.000651021 0)
(1.68742 -0.000333757 0)
(1.68754 -1.25412e-05 0)
(1.68744 0.000312254 0)
(1.68712 0.000640386 0)
(1.68659 0.000971537 0)
(1.68583 0.00130537 0)
(1.68485 0.00164155 0)
(1.68364 0.00197974 0)
(1.68221 0.00231958 0)
(1.68055 0.00266072 0)
(1.67866 0.00300281 0)
(1.67655 0.00334548 0)
(1.6742 0.00368836 0)
(1.67163 0.00403109 0)
(1.66883 0.00437331 0)
(1.6658 0.00471463 0)
(1.66254 0.00505468 0)
(1.65905 0.0053931 0)
(1.65534 0.00572949 0)
(1.65141 0.00606349 0)
(1.64725 0.00639471 0)
(1.64288 0.00672277 0)
(1.63828 0.00704729 0)
(1.63347 0.00736788 0)
(1.62845 0.00768417 0)
(1.62322 0.00799575 0)
(1.61778 0.00830225 0)
(1.61214 0.00860327 0)
(1.6063 0.00889843 0)
(1.60027 0.00918734 0)
(1.59404 0.0094696 0)
(1.58763 0.00974484 0)
(1.58104 0.0100127 0)
(1.57427 0.0102727 0)
(1.56733 0.0105246 0)
(1.56022 0.0107679 0)
(1.55296 0.0110024 0)
(1.54554 0.0112276 0)
(1.53797 0.0114432 0)
(1.53027 0.0116488 0)
(1.52242 0.0118442 0)
(1.51446 0.0120291 0)
(1.50637 0.0122031 0)
(1.49817 0.012366 0)
(1.48986 0.0125175 0)
(1.48146 0.0126575 0)
(1.47297 0.0127857 0)
(1.4644 0.0129019 0)
(1.45575 0.013006 0)
(1.44704 0.0130978 0)
(1.43827 0.0131774 0)
(1.42945 0.0132445 0)
(1.42059 0.0132993 0)
(1.4117 0.0133416 0)
(1.40278 0.0133715 0)
(1.39385 0.0133891 0)
(1.38491 0.0133945 0)
(1.37597 0.0133878 0)
(1.36704 0.0133692 0)
(1.35813 0.0133389 0)
(1.34924 0.013297 0)
(1.34038 0.013244 0)
(1.33156 0.0131799 0)
(1.32279 0.0131053 0)
(1.31407 0.0130203 0)
(1.30542 0.0129253 0)
(1.29682 0.0128208 0)
(1.28831 0.0127072 0)
(1.27987 0.0125847 0)
(1.27151 0.012454 0)
(1.26325 0.0123154 0)
(1.25508 0.0121694 0)
(1.24701 0.0120164 0)
(1.23905 0.011857 0)
(1.23119 0.0116916 0)
(1.22345 0.0115207 0)
(1.21582 0.0113447 0)
(1.20831 0.0111643 0)
(1.20093 0.0109798 0)
(1.19367 0.0107916 0)
(1.18653 0.0106004 0)
(1.17953 0.0104065 0)
(1.17265 0.0102104 0)
(1.16591 0.0100126 0)
(1.1593 0.00981334 0)
(1.15282 0.00961319 0)
(1.14648 0.0094125 0)
(1.14027 0.00921167 0)
(1.13419 0.00901105 0)
(1.12825 0.00881101 0)
(1.12244 0.00861188 0)
(1.11677 0.00841398 0)
(1.11122 0.00821762 0)
(1.10581 0.00802308 0)
(1.10053 0.00783063 0)
(1.09537 0.00764052 0)
(1.09034 0.00745299 0)
(1.08543 0.00726826 0)
(1.08065 0.00708654 0)
(1.07599 0.006908 0)
(1.07144 0.00673282 0)
(1.06701 0.00656116 0)
(1.0627 0.00639315 0)
(1.05849 0.00622892 0)
(1.05439 0.00606858 0)
(1.0504 0.00591224 0)
(1.04651 0.00575997 0)
(1.04273 0.00561186 0)
(1.03904 0.00546795 0)
(1.03544 0.0053283 0)
(1.03193 0.00519295 0)
(1.02852 0.00506193 0)
(1.02519 0.00493526 0)
(1.02194 0.00481293 0)
(1.01878 0.00469497 0)
(1.01569 0.00458135 0)
(1.01267 0.00447207 0)
(1.00973 0.00436708 0)
(1.00685 0.00426642 0)
(1.00406 0.00416994 0)
(1.00127 0.00407762 0)
(0.998679 0.00398987 0)
(0.995811 0.00390366 0)
(0.993797 0.00383111 0)
(0.989743 0.00372811 0)
(1.00001 -0.000202223 0)
(1.00017 -0.000606904 0)
(1.00048 -0.00101214 0)
(1.00097 -0.0014183 0)
(1.00162 -0.00182579 0)
(1.00243 -0.00223501 0)
(1.0034 -0.00264633 0)
(1.00454 -0.00306007 0)
(1.00585 -0.00347656 0)
(1.00732 -0.0038961 0)
(1.00896 -0.00431897 0)
(1.01077 -0.00474543 0)
(1.01275 -0.00517569 0)
(1.0149 -0.00560993 0)
(1.01723 -0.00604829 0)
(1.01974 -0.00649088 0)
(1.02242 -0.00693775 0)
(1.02528 -0.00738891 0)
(1.02832 -0.0078443 0)
(1.03155 -0.00830382 0)
(1.03496 -0.00876732 0)
(1.03856 -0.00923455 0)
(1.04235 -0.00970524 0)
(1.04632 -0.010179 0)
(1.05049 -0.0106555 0)
(1.05485 -0.0111341 0)
(1.0594 -0.0116143 0)
(1.06414 -0.0120954 0)
(1.06908 -0.0125768 0)
(1.0742 -0.0130575 0)
(1.07953 -0.0135369 0)
(1.08504 -0.0140138 0)
(1.09075 -0.0144874 0)
(1.09664 -0.0149566 0)
(1.10273 -0.0154202 0)
(1.109 -0.015877 0)
(1.11545 -0.016326 0)
(1.12208 -0.0167657 0)
(1.12888 -0.017195 0)
(1.13586 -0.0176127 0)
(1.143 -0.0180173 0)
(1.1503 -0.0184076 0)
(1.15776 -0.0187824 0)
(1.16536 -0.0191404 0)
(1.17311 -0.0194806 0)
(1.18099 -0.0198017 0)
(1.18899 -0.0201028 0)
(1.19711 -0.0203828 0)
(1.20534 -0.0206409 0)
(1.21367 -0.0208765 0)
(1.22209 -0.0210887 0)
(1.23059 -0.0212771 0)
(1.23916 -0.0214413 0)
(1.24779 -0.021581 0)
(1.25648 -0.0216961 0)
(1.2652 -0.0217866 0)
(1.27396 -0.0218527 0)
(1.28273 -0.0218945 0)
(1.29152 -0.0219126 0)
(1.30031 -0.0219073 0)
(1.30909 -0.0218794 0)
(1.31786 -0.0218296 0)
(1.3266 -0.0217587 0)
(1.33531 -0.0216676 0)
(1.34398 -0.0215574 0)
(1.3526 -0.0214291 0)
(1.36116 -0.0212838 0)
(1.36966 -0.0211227 0)
(1.37809 -0.0209469 0)
(1.38645 -0.0207577 0)
(1.39472 -0.0205563 0)
(1.40292 -0.0203438 0)
(1.41102 -0.0201215 0)
(1.41904 -0.0198905 0)
(1.42696 -0.0196519 0)
(1.43478 -0.0194068 0)
(1.4425 -0.0191562 0)
(1.45012 -0.0189011 0)
(1.45763 -0.0186423 0)
(1.46504 -0.0183808 0)
(1.47234 -0.0181171 0)
(1.47954 -0.0178521 0)
(1.48663 -0.0175862 0)
(1.49362 -0.0173199 0)
(1.50049 -0.0170537 0)
(1.50727 -0.0167879 0)
(1.51393 -0.0165227 0)
(1.52049 -0.0162583 0)
(1.52694 -0.0159946 0)
(1.53329 -0.0157318 0)
(1.53953 -0.0154697 0)
(1.54566 -0.0152082 0)
(1.5517 -0.014947 0)
(1.55763 -0.0146858 0)
(1.56345 -0.0144244 0)
(1.56917 -0.0141623 0)
(1.57479 -0.013899 0)
(1.5803 -0.0136342 0)
(1.5857 -0.0133672 0)
(1.591 -0.0130976 0)
(1.59619 -0.0128248 0)
(1.60127 -0.0125482 0)
(1.60624 -0.0122673 0)
(1.61109 -0.0119815 0)
(1.61584 -0.0116903 0)
(1.62046 -0.011393 0)
(1.62496 -0.0110893 0)
(1.62935 -0.0107784 0)
(1.6336 -0.0104601 0)
(1.63773 -0.0101338 0)
(1.64173 -0.00979907 0)
(1.64559 -0.00945559 0)
(1.64931 -0.00910299 0)
(1.65289 -0.008741 0)
(1.65632 -0.00836936 0)
(1.65961 -0.00798786 0)
(1.66273 -0.00759635 0)
(1.6657 -0.00719473 0)
(1.66851 -0.00678294 0)
(1.67115 -0.00636096 0)
(1.67362 -0.00592883 0)
(1.67591 -0.00548664 0)
(1.67803 -0.00503452 0)
(1.67996 -0.00457263 0)
(1.6817 -0.0041012 0)
(1.68326 -0.00362047 0)
(1.68462 -0.00313075 0)
(1.68578 -0.00263236 0)
(1.68674 -0.00212565 0)
(1.68749 -0.00161104 0)
(1.68804 -0.00108894 0)
(1.68838 -0.000559792 0)
(1.6885 -2.40949e-05 0)
(1.68841 0.000517699 0)
(1.68809 0.00106504 0)
(1.68756 0.0016174 0)
(1.68681 0.00217425 0)
(1.68583 0.00273501 0)
(1.68462 0.00329911 0)
(1.68319 0.00386598 0)
(1.68153 0.00443502 0)
(1.67965 0.00500564 0)
(1.67753 0.00557724 0)
(1.67518 0.00614919 0)
(1.67261 0.0067209 0)
(1.6698 0.00729174 0)
(1.66677 0.0078611 0)
(1.66351 0.00842834 0)
(1.66002 0.00899285 0)
(1.6563 0.009554 0)
(1.65236 0.0101112 0)
(1.6482 0.0106637 0)
(1.64382 0.0112109 0)
(1.63922 0.0117523 0)
(1.6344 0.0122871 0)
(1.62937 0.0128147 0)
(1.62413 0.0133345 0)
(1.61868 0.0138459 0)
(1.61303 0.0143481 0)
(1.60718 0.0148405 0)
(1.60114 0.0153225 0)
(1.5949 0.0157934 0)
(1.58848 0.0162526 0)
(1.58187 0.0166995 0)
(1.57509 0.0171333 0)
(1.56813 0.0175536 0)
(1.56101 0.0179596 0)
(1.55373 0.0183507 0)
(1.5463 0.0187265 0)
(1.53871 0.0190862 0)
(1.53099 0.0194293 0)
(1.52313 0.0197554 0)
(1.51515 0.0200638 0)
(1.50704 0.0203542 0)
(1.49882 0.020626 0)
(1.4905 0.0208788 0)
(1.48208 0.0211123 0)
(1.47357 0.0213261 0)
(1.46497 0.02152 0)
(1.45631 0.0216936 0)
(1.44758 0.0218468 0)
(1.43879 0.0219795 0)
(1.42995 0.0220914 0)
(1.42107 0.0221826 0)
(1.41215 0.0222531 0)
(1.40322 0.0223029 0)
(1.39427 0.0223321 0)
(1.38531 0.0223409 0)
(1.37635 0.0223296 0)
(1.3674 0.0222983 0)
(1.35847 0.0222475 0)
(1.34956 0.0221775 0)
(1.34068 0.0220887 0)
(1.33185 0.0219816 0)
(1.32306 0.0218567 0)
(1.31432 0.0217146 0)
(1.30565 0.0215559 0)
(1.29704 0.0213813 0)
(1.28851 0.0211913 0)
(1.28005 0.0209867 0)
(1.27168 0.0207683 0)
(1.26341 0.0205367 0)
(1.25522 0.0202928 0)
(1.24714 0.0200373 0)
(1.23917 0.019771 0)
(1.2313 0.0194948 0)
(1.22355 0.0192093 0)
(1.21591 0.0189156 0)
(1.20839 0.0186142 0)
(1.201 0.0183061 0)
(1.19373 0.017992 0)
(1.18659 0.0176727 0)
(1.17958 0.017349 0)
(1.1727 0.0170217 0)
(1.16595 0.0166914 0)
(1.15933 0.0163588 0)
(1.15285 0.0160247 0)
(1.14651 0.0156898 0)
(1.14029 0.0153546 0)
(1.13422 0.0150198 0)
(1.12827 0.014686 0)
(1.12247 0.0143537 0)
(1.11679 0.0140235 0)
(1.11125 0.0136959 0)
(1.10583 0.0133713 0)
(1.10055 0.0130502 0)
(1.09539 0.0127331 0)
(1.09037 0.0124202 0)
(1.08546 0.0121121 0)
(1.08068 0.011809 0)
(1.07602 0.0115112 0)
(1.07148 0.011219 0)
(1.06705 0.0109327 0)
(1.06274 0.0106525 0)
(1.05853 0.0103786 0)
(1.05444 0.0101113 0)
(1.05045 0.00985056 0)
(1.04657 0.00959667 0)
(1.04278 0.00934971 0)
(1.0391 0.00910978 0)
(1.03551 0.00887696 0)
(1.03201 0.00865132 0)
(1.02859 0.0084329 0)
(1.02527 0.00822174 0)
(1.02203 0.00801784 0)
(1.01886 0.00782122 0)
(1.01578 0.00763185 0)
(1.01277 0.00744972 0)
(1.00983 0.0072748 0)
(1.00695 0.00710696 0)
(1.00417 0.00694643 0)
(1.00138 0.00679217 0)
(0.998798 0.00664724 0)
(0.995934 0.00650167 0)
(0.993925 0.00638616 0)
(0.989876 0.00620753 0)
(1.00001 -0.000282894 0)
(1.00017 -0.000848964 0)
(1.00048 -0.00141581 0)
(1.00097 -0.001984 0)
(1.00161 -0.00255408 0)
(1.00242 -0.00312659 0)
(1.00339 -0.00370204 0)
(1.00453 -0.00428091 0)
(1.00583 -0.00486367 0)
(1.0073 -0.00545073 0)
(1.00894 -0.00604251 0)
(1.01075 -0.00663934 0)
(1.01272 -0.00724155 0)
(1.01487 -0.00784939 0)
(1.0172 -0.00846306 0)
(1.0197 -0.00908271 0)
(1.02238 -0.00970842 0)
(1.02523 -0.0103402 0)
(1.02827 -0.010978 0)
(1.0315 -0.0116217 0)
(1.03491 -0.012271 0)
(1.0385 -0.0129256 0)
(1.04229 -0.0135852 0)
(1.04626 -0.0142492 0)
(1.05042 -0.014917 0)
(1.05478 -0.015588 0)
(1.05933 -0.0162613 0)
(1.06408 -0.016936 0)
(1.06902 -0.0176111 0)
(1.07415 -0.0182855 0)
(1.07948 -0.018958 0)
(1.085 -0.0196273 0)
(1.09071 -0.0202919 0)
(1.09661 -0.0209503 0)
(1.10271 -0.0216011 0)
(1.10899 -0.0222425 0)
(1.11545 -0.0228728 0)
(1.1221 -0.0234903 0)
(1.12892 -0.0240933 0)
(1.13591 -0.0246798 0)
(1.14308 -0.0252481 0)
(1.1504 -0.0257964 0)
(1.15788 -0.0263229 0)
(1.16551 -0.0268259 0)
(1.17328 -0.0273037 0)
(1.18118 -0.0277548 0)
(1.18922 -0.0281777 0)
(1.19737 -0.028571 0)
(1.20563 -0.0289335 0)
(1.21399 -0.0292641 0)
(1.22244 -0.029562 0)
(1.23097 -0.0298264 0)
(1.23958 -0.0300567 0)
(1.24824 -0.0302525 0)
(1.25696 -0.0304137 0)
(1.26572 -0.0305402 0)
(1.27451 -0.0306323 0)
(1.28332 -0.0306904 0)
(1.29214 -0.0307149 0)
(1.30096 -0.0307067 0)
(1.30977 -0.0306666 0)
(1.31857 -0.0305957 0)
(1.32734 -0.0304951 0)
(1.33608 -0.0303662 0)
(1.34477 -0.0302104 0)
(1.35341 -0.0300292 0)
(1.362 -0.0298241 0)
(1.37052 -0.0295969 0)
(1.37897 -0.0293491 0)
(1.38735 -0.0290825 0)
(1.39564 -0.0287987 0)
(1.40385 -0.0284996 0)
(1.41198 -0.0281867 0)
(1.42 -0.0278617 0)
(1.42793 -0.0275261 0)
(1.43576 -0.0271815 0)
(1.44349 -0.0268293 0)
(1.45112 -0.0264708 0)
(1.45864 -0.0261074 0)
(1.46606 -0.0257401 0)
(1.47337 -0.02537 0)
(1.48057 -0.0249981 0)
(1.48767 -0.0246251 0)
(1.49465 -0.0242517 0)
(1.50153 -0.0238785 0)
(1.50831 -0.023506 0)
(1.51497 -0.0231344 0)
(1.52153 -0.022764 0)
(1.52799 -0.0223949 0)
(1.53434 -0.022027 0)
(1.54058 -0.0216602 0)
(1.54672 -0.0212943 0)
(1.55275 -0.020929 0)
(1.55869 -0.0205638 0)
(1.56451 -0.0201983 0)
(1.57024 -0.0198318 0)
(1.57586 -0.0194639 0)
(1.58137 -0.0190937 0)
(1.58678 -0.0187206 0)
(1.59209 -0.0183438 0)
(1.59728 -0.0179626 0)
(1.60237 -0.0175761 0)
(1.60735 -0.0171836 0)
(1.61221 -0.0167842 0)
(1.61696 -0.0163772 0)
(1.62159 -0.0159617 0)
(1.62611 -0.015537 0)
(1.6305 -0.0151025 0)
(1.63477 -0.0146574 0)
(1.63891 -0.014201 0)
(1.64292 -0.0137328 0)
(1.64679 -0.0132523 0)
(1.65053 -0.012759 0)
(1.65412 -0.0122525 0)
(1.65756 -0.0117324 0)
(1.66086 -0.0111984 0)
(1.664 -0.0106503 0)
(1.66698 -0.0100881 0)
(1.6698 -0.00951145 0)
(1.67245 -0.00892052 0)
(1.67494 -0.00831532 0)
(1.67724 -0.00769596 0)
(1.67937 -0.00706263 0)
(1.68131 -0.00641557 0)
(1.68307 -0.00575509 0)
(1.68464 -0.00508154 0)
(1.68601 -0.00439535 0)
(1.68718 -0.00369696 0)
(1.68815 -0.0029869 0)
(1.68891 -0.00226572 0)
(1.68947 -0.00153402 0)
(1.68981 -0.00079242 0)
(1.68994 -4.15938e-05 0)
(1.68985 0.000717758 0)
(1.68955 0.00148492 0)
(1.68902 0.00225913 0)
(1.68827 0.00303964 0)
(1.68729 0.00382565 0)
(1.68609 0.00461635 0)
(1.68466 0.00541094 0)
(1.683 0.00620858 0)
(1.68112 0.00700844 0)
(1.679 0.00780967 0)
(1.67665 0.00861142 0)
(1.67407 0.00941282 0)
(1.67126 0.010213 0)
(1.66823 0.0110111 0)
(1.66496 0.0118063 0)
(1.66146 0.0125976 0)
(1.65774 0.0133843 0)
(1.65379 0.0141653 0)
(1.64962 0.0149399 0)
(1.64523 0.0157071 0)
(1.64062 0.016466 0)
(1.63579 0.0172158 0)
(1.63075 0.0179555 0)
(1.6255 0.0186843 0)
(1.62003 0.0194012 0)
(1.61437 0.0201053 0)
(1.6085 0.0207957 0)
(1.60244 0.0214715 0)
(1.59618 0.0221318 0)
(1.58974 0.0227758 0)
(1.58312 0.0234024 0)
(1.57631 0.0240108 0)
(1.56934 0.0246001 0)
(1.5622 0.0251694 0)
(1.55489 0.025718 0)
(1.54743 0.0262449 0)
(1.53983 0.0267494 0)
(1.53208 0.0272307 0)
(1.5242 0.0276879 0)
(1.51618 0.0281205 0)
(1.50805 0.0285277 0)
(1.49981 0.0289088 0)
(1.49145 0.0292634 0)
(1.483 0.0295908 0)
(1.47446 0.0298907 0)
(1.46584 0.0301625 0)
(1.45714 0.0304059 0)
(1.44838 0.0306206 0)
(1.43956 0.0308065 0)
(1.43069 0.0309633 0)
(1.42178 0.031091 0)
(1.41284 0.0311896 0)
(1.40387 0.0312592 0)
(1.39489 0.0312999 0)
(1.3859 0.031312 0)
(1.37691 0.0312957 0)
(1.36794 0.0312515 0)
(1.35897 0.0311798 0)
(1.35004 0.0310811 0)
(1.34113 0.0309561 0)
(1.33227 0.0308054 0)
(1.32346 0.0306298 0)
(1.31469 0.03043 0)
(1.30599 0.0302069 0)
(1.29736 0.0299614 0)
(1.28881 0.0296944 0)
(1.28033 0.0294069 0)
(1.27194 0.0291 0)
(1.26364 0.0287747 0)
(1.25544 0.0284321 0)
(1.24734 0.0280732 0)
(1.23935 0.0276992 0)
(1.23146 0.0273112 0)
(1.2237 0.0269104 0)
(1.21605 0.0264979 0)
(1.20852 0.0260748 0)
(1.20111 0.0256423 0)
(1.19383 0.0252014 0)
(1.18668 0.0247533 0)
(1.17966 0.024299 0)
(1.17277 0.0238395 0)
(1.16601 0.023376 0)
(1.15939 0.0229094 0)
(1.1529 0.0224407 0)
(1.14655 0.0219708 0)
(1.14034 0.0215005 0)
(1.13426 0.0210309 0)
(1.12831 0.0205627 0)
(1.1225 0.0200967 0)
(1.11682 0.0196336 0)
(1.11128 0.0191741 0)
(1.10587 0.018719 0)
(1.10058 0.0182688 0)
(1.09543 0.0178242 0)
(1.0904 0.0173856 0)
(1.0855 0.0169536 0)
(1.08072 0.0165287 0)
(1.07607 0.0161114 0)
(1.07153 0.0157019 0)
(1.06711 0.0153006 0)
(1.0628 0.014908 0)
(1.0586 0.0145242 0)
(1.05451 0.0141496 0)
(1.05053 0.0137844 0)
(1.04665 0.0134287 0)
(1.04287 0.0130827 0)
(1.03919 0.0127466 0)
(1.03561 0.0124205 0)
(1.03211 0.0121045 0)
(1.02871 0.0117986 0)
(1.02539 0.0115029 0)
(1.02215 0.0112173 0)
(1.019 0.010942 0)
(1.01592 0.0106769 0)
(1.01291 0.0104219 0)
(1.00998 0.0101771 0)
(1.00711 0.0099421 0)
(1.00433 0.00971752 0)
(1.00156 0.00950151 0)
(0.998976 0.00929915 0)
(0.996118 0.00909496 0)
(0.994115 0.00893456 0)
(0.990076 0.00868263 0)
(1.00001 -0.000363318 0)
(1.00017 -0.00109032 0)
(1.00048 -0.00181834 0)
(1.00096 -0.0025481 0)
(1.00161 -0.00328033 0)
(1.00241 -0.00401571 0)
(1.00338 -0.00475491 0)
(1.00452 -0.00549855 0)
(1.00581 -0.00624724 0)
(1.00728 -0.00700154 0)
(1.00891 -0.00776195 0)
(1.01071 -0.00852896 0)
(1.01269 -0.00930295 0)
(1.01483 -0.0100843 0)
(1.01715 -0.0108732 0)
(1.01964 -0.0116699 0)
(1.02232 -0.0124746 0)
(1.02517 -0.0132872 0)
(1.02821 -0.0141076 0)
(1.03143 -0.0149358 0)
(1.03483 -0.0157713 0)
(1.03842 -0.0166139 0)
(1.0422 -0.017463 0)
(1.04617 -0.0183179 0)
(1.05034 -0.0191779 0)
(1.05469 -0.0200421 0)
(1.05925 -0.0209095 0)
(1.06399 -0.0217789 0)
(1.06893 -0.022649 0)
(1.07407 -0.0235184 0)
(1.07941 -0.0243854 0)
(1.08493 -0.0252485 0)
(1.09066 -0.0261057 0)
(1.09657 -0.0269552 0)
(1.10268 -0.0277948 0)
(1.10898 -0.0286226 0)
(1.11546 -0.0294361 0)
(1.12212 -0.0302333 0)
(1.12897 -0.0310117 0)
(1.13599 -0.0317691 0)
(1.14317 -0.032503 0)
(1.15053 -0.0332111 0)
(1.15804 -0.033891 0)
(1.1657 -0.0345407 0)
(1.1735 -0.0351578 0)
(1.18144 -0.0357404 0)
(1.18952 -0.0362865 0)
(1.19771 -0.0367944 0)
(1.20601 -0.0372624 0)
(1.21441 -0.0376891 0)
(1.22291 -0.0380734 0)
(1.23148 -0.0384144 0)
(1.24013 -0.0387111 0)
(1.24884 -0.0389633 0)
(1.2576 -0.0391706 0)
(1.26641 -0.039333 0)
(1.27524 -0.0394508 0)
(1.28409 -0.0395245 0)
(1.29296 -0.0395548 0)
(1.30182 -0.0395427 0)
(1.31068 -0.0394893 0)
(1.31951 -0.0393961 0)
(1.32832 -0.0392646 0)
(1.3371 -0.0390964 0)
(1.34582 -0.0388935 0)
(1.3545 -0.0386577 0)
(1.36312 -0.0383913 0)
(1.37167 -0.0380962 0)
(1.38015 -0.0377746 0)
(1.38855 -0.0374289 0)
(1.39687 -0.0370611 0)
(1.4051 -0.0366736 0)
(1.41324 -0.0362684 0)
(1.42129 -0.0358477 0)
(1.42924 -0.0354136 0)
(1.43708 -0.034968 0)
(1.44482 -0.0345127 0)
(1.45246 -0.0340496 0)
(1.45999 -0.0335803 0)
(1.46742 -0.0331062 0)
(1.47474 -0.0326287 0)
(1.48194 -0.032149 0)
(1.48904 -0.0316681 0)
(1.49604 -0.031187 0)
(1.50292 -0.0307063 0)
(1.5097 -0.0302266 0)
(1.51636 -0.0297484 0)
(1.52293 -0.029272 0)
(1.52938 -0.0287973 0)
(1.53573 -0.0283244 0)
(1.54198 -0.0278531 0)
(1.54812 -0.0273831 0)
(1.55416 -0.026914 0)
(1.5601 -0.0264451 0)
(1.56593 -0.025976 0)
(1.57166 -0.0255058 0)
(1.57728 -0.0250337 0)
(1.5828 -0.0245589 0)
(1.58822 -0.0240804 0)
(1.59353 -0.0235972 0)
(1.59873 -0.0231083 0)
(1.60383 -0.0226126 0)
(1.60882 -0.0221092 0)
(1.61369 -0.0215969 0)
(1.61846 -0.0210748 0)
(1.6231 -0.0205417 0)
(1.62763 -0.0199968 0)
(1.63204 -0.0194391 0)
(1.63632 -0.0188678 0)
(1.64048 -0.0182819 0)
(1.6445 -0.0176807 0)
(1.64839 -0.0170636 0)
(1.65214 -0.0164299 0)
(1.65575 -0.0157791 0)
(1.65921 -0.0151107 0)
(1.66253 -0.0144243 0)
(1.66569 -0.0137198 0)
(1.66869 -0.0129968 0)
(1.67152 -0.0122553 0)
(1.67419 -0.0114952 0)
(1.67669 -0.0107167 0)
(1.67902 -0.00991991 0)
(1.68116 -0.00910502 0)
(1.68312 -0.00827237 0)
(1.68489 -0.00742236 0)
(1.68647 -0.00655545 0)
(1.68786 -0.00567219 0)
(1.68904 -0.00477317 0)
(1.69002 -0.00385907 0)
(1.6908 -0.0029306 0)
(1.69137 -0.00198853 0)
(1.69172 -0.00103368 0)
(1.69186 -6.69235e-05 0)
(1.69178 0.000910871 0)
(1.69148 0.00189874 0)
(1.69096 0.00289572 0)
(1.69022 0.00390082 0)
(1.68925 0.00491302 0)
(1.68805 0.00593129 0)
(1.68662 0.00695457 0)
(1.68496 0.0079818 0)
(1.68308 0.00901189 0)
(1.68096 0.0100437 0)
(1.67861 0.0110763 0)
(1.67602 0.0121084 0)
(1.67321 0.013139 0)
(1.67017 0.0141668 0)
(1.66689 0.015191 0)
(1.66339 0.0162102 0)
(1.65966 0.0172233 0)
(1.6557 0.0182293 0)
(1.65152 0.0192269 0)
(1.64711 0.0202151 0)
(1.64249 0.0211927 0)
(1.63764 0.0221584 0)
(1.63259 0.0231113 0)
(1.62731 0.02405 0)
(1.62183 0.0249735 0)
(1.61615 0.0258806 0)
(1.61026 0.02677 0)
(1.60418 0.0276407 0)
(1.5979 0.0284915 0)
(1.59143 0.0293211 0)
(1.58478 0.0301284 0)
(1.57795 0.0309124 0)
(1.57094 0.0316717 0)
(1.56377 0.0324054 0)
(1.55644 0.0331123 0)
(1.54895 0.0337913 0)
(1.54131 0.0344414 0)
(1.53353 0.0350616 0)
(1.52561 0.0356509 0)
(1.51756 0.0362083 0)
(1.5094 0.0367331 0)
(1.50111 0.0372243 0)
(1.49272 0.0376812 0)
(1.48423 0.0381031 0)
(1.47566 0.0384894 0)
(1.46699 0.0388395 0)
(1.45826 0.0391531 0)
(1.44945 0.0394296 0)
(1.44059 0.0396689 0)
(1.43168 0.0398707 0)
(1.42273 0.0400349 0)
(1.41375 0.0401616 0)
(1.40474 0.0402508 0)
(1.39572 0.0403027 0)
(1.38669 0.0403177 0)
(1.37767 0.0402961 0)
(1.36865 0.0402385 0)
(1.35965 0.0401454 0)
(1.35067 0.0400175 0)
(1.34173 0.0398556 0)
(1.33283 0.0396605 0)
(1.32398 0.0394333 0)
(1.31519 0.0391749 0)
(1.30645 0.0388865 0)
(1.29779 0.0385691 0)
(1.2892 0.0382241 0)
(1.2807 0.0378527 0)
(1.27228 0.0374562 0)
(1.26395 0.0370359 0)
(1.25573 0.0365934 0)
(1.2476 0.03613 0)
(1.23958 0.0356471 0)
(1.23168 0.0351462 0)
(1.22389 0.0346288 0)
(1.21622 0.0340964 0)
(1.20867 0.0335504 0)
(1.20125 0.0329922 0)
(1.19396 0.0324233 0)
(1.18679 0.0318452 0)
(1.17976 0.0312591 0)
(1.17286 0.0306665 0)
(1.16609 0.0300687 0)
(1.15946 0.029467 0)
(1.15297 0.0288626 0)
(1.14661 0.0282567 0)
(1.14039 0.0276505 0)
(1.1343 0.0270451 0)
(1.12836 0.0264416 0)
(1.12254 0.025841 0)
(1.11687 0.0252442 0)
(1.11132 0.0246522 0)
(1.10591 0.0240658 0)
(1.10063 0.0234858 0)
(1.09548 0.0229131 0)
(1.09045 0.0223482 0)
(1.08556 0.0217918 0)
(1.08078 0.0212447 0)
(1.07613 0.0207072 0)
(1.0716 0.0201799 0)
(1.06718 0.0196634 0)
(1.06288 0.0191579 0)
(1.05869 0.0186639 0)
(1.05461 0.0181817 0)
(1.05063 0.0177116 0)
(1.04676 0.0172539 0)
(1.04299 0.0168087 0)
(1.03932 0.0163763 0)
(1.03574 0.0159567 0)
(1.03225 0.0155502 0)
(1.02886 0.0151567 0)
(1.02555 0.0147764 0)
(1.02232 0.0144092 0)
(1.01917 0.0140551 0)
(1.0161 0.0137142 0)
(1.01311 0.0133864 0)
(1.01019 0.0130716 0)
(1.00732 0.0127696 0)
(1.00455 0.012481 0)
(1.00178 0.0122033 0)