/*--------------------------------*- C++ -*----------------------------------*\
| =========                 |                                                 |
| \\      /  F ield         | OpenFOAM: The Open Source CFD Toolbox           |
|  \\    /   O peration     | Version:  2306                                  |
|   \\  /    A nd           | Website:  www.openfoam.com                      |
|    \\/     M anipulation  |                                                 |
\*---------------------------------------------------------------------------*/
FoamFile
{
    version     2.0;
    format      ascii;
    arch        "LSB;label=32;scalar=64";
    class       volScalarField;
    location    "0.065";
    object      G;
}
// * * * * * * * * * * * * * * * * * * * * * * * * * * * * * * * * * * * * * //

dimensions      [1 0 -3 0 0 0 0];

internalField   nonuniform List<scalar> 
100
(
9790.66
10828.5
11572.4
11953.8
12144.9
12144.9
11953.8
11572.4
10828.5
9790.67
10828.5
12114.4
12995
13450.8
13672.2
13672.2
13450.8
12995
12114.4
10828.5
11572.4
12995
13976.8
14492.8
14741.8
14741.8
14492.8
13976.8
12995
11572.4
11953.8
13450.8
14492.8
15050.4
15319.4
15319.4
15050.4
14492.8
13450.8
11953.8
12144.9
13672.2
14741.8
15319.4
15598.2
15598.2
15319.4
14741.8
13672.2
12144.9
12144.9
13672.2
14741.8
15319.4
15598.2
15598.2
15319.4
14741.8
13672.2
12144.9
11953.8
13450.8
14492.8
15050.4
15319.4
15319.4
15050.4
14492.8
13450.8
11953.8
11572.4
12995
13976.8
14492.8
14741.8
14741.8
14492.8
13976.8
12995
11572.4
10828.5
12114.4
12995
13450.8
13672.2
13672.2
13450.8
12995
12114.4
10828.5
9790.67
10828.5
11572.4
11953.8
12144.9
12144.9
11953.8
11572.4
10828.5
9790.66
)
;

boundaryField
{
    fixedWall_Bottom
    {
        type            calculated;
        value           nonuniform List<scalar> 10(8522.86 9326.11 9968.1 10301.8 10472.4 10472.4 10301.8 9968.11 9326.12 8522.87);
    }
    fixedWall_Right
    {
        type            calculated;
        value           nonuniform List<scalar> 10(8522.87 9326.12 9968.11 10301.8 10472.4 10472.4 10301.8 9968.1 9326.11 8522.86);
    }
    fixedWall_Left
    {
        type            calculated;
        value           nonuniform List<scalar> 10(8522.86 9326.11 9968.1 10301.8 10472.4 10472.4 10301.8 9968.11 9326.12 8522.87);
    }
    fixedWall_Top
    {
        type            calculated;
        value           nonuniform List<scalar> 10(8522.87 9326.12 9968.11 10301.8 10472.4 10472.4 10301.8 9968.1 9326.11 8522.86);
    }
    frontAndBack
    {
        type            empty;
    }
}


// ************************************************************************* //
