/*--------------------------------*- C++ -*----------------------------------*\
| =========                 |                                                 |
| \\      /  F ield         | OpenFOAM: The Open Source CFD Toolbox           |
|  \\    /   O peration     | Version:  2306                                  |
|   \\  /    A nd           | Website:  www.openfoam.com                      |
|    \\/     M anipulation  |                                                 |
\*---------------------------------------------------------------------------*/
FoamFile
{
    version     2.0;
    format      ascii;
    arch        "LSB;label=32;scalar=64";
    class       volScalarField;
    location    "0.065";
    object      ILambda_26_0;
}
// * * * * * * * * * * * * * * * * * * * * * * * * * * * * * * * * * * * * * //

dimensions      [1 0 -3 0 0 0 0];

internalField   nonuniform List<scalar> 
100
(
241.435
240.883
241.357
243.284
247.439
253.373
257.381
249.002
206.978
98.8003
717.649
722.329
728.275
734.011
733.253
714.643
661.404
553.923
377.721
136.938
1189.56
1198.58
1195.12
1174.09
1120.76
1021.14
865.564
654.621
402.364
132.965
1642.3
1621.07
1570.11
1478.91
1338.87
1148.84
916.565
658.401
392.537
129.769
2031.45
1921.83
1795.81
1621.37
1408.64
1166.56
907.916
645.607
386.699
129.634
2305.18
2071.99
1880.96
1649.62
1405.05
1151.65
895.186
639.854
385.976
129.946
2445.06
2104.22
1884.09
1633.59
1388.37
1140.96
890.83
639.209
386.352
130.044
2481.43
2081.76
1864.06
1617.17
1380.56
1138.68
890.769
639.537
386.519
130.049
2468.71
2054.57
1850.61
1611.52
1380.21
1139.43
891.149
639.623
386.546
130.049
2442.6
2040.08
1848.39
1613.16
1382.06
1139.92
891.028
639.573
386.583
130.051
)
;

boundaryField
{
    fixedWall_Bottom
    {
        type            greyDiffusiveRadiation;
        refValue        uniform 0;
        refGradient     uniform 0;
        valueFraction   uniform 1;
        source          uniform 0;
        value           uniform 0;
    }
    fixedWall_Right
    {
        type            greyDiffusiveRadiation;
        refValue        uniform 0;
        refGradient     uniform 0;
        valueFraction   uniform 1;
        source          uniform 0;
        value           uniform 0;
    }
    fixedWall_Left
    {
        type            greyDiffusiveRadiation;
        refValue        uniform 0;
        refGradient     uniform 0;
        valueFraction   uniform 0;
        source          uniform 0;
        value           nonuniform List<scalar> 10(241.435 717.649 1189.56 1642.3 2031.45 2305.18 2445.06 2481.43 2468.71 2442.6);
    }
    fixedWall_Top
    {
        type            greyDiffusiveRadiation;
        refValue        uniform 0;
        refGradient     uniform 0;
        valueFraction   uniform 0;
        source          uniform 0;
        value           nonuniform List<scalar> 10(2442.6 2040.08 1848.39 1613.16 1382.06 1139.92 891.028 639.573 386.583 130.051);
    }
    frontAndBack
    {
        type            empty;
    }
}


// ************************************************************************* //
