/*--------------------------------*- C++ -*----------------------------------*\
| =========                 |                                                 |
| \\      /  F ield         | OpenFOAM: The Open Source CFD Toolbox           |
|  \\    /   O peration     | Version:  2306                                  |
|   \\  /    A nd           | Website:  www.openfoam.com                      |
|    \\/     M anipulation  |                                                 |
\*---------------------------------------------------------------------------*/
FoamFile
{
    version     2.0;
    format      ascii;
    arch        "LSB;label=32;scalar=64";
    class       volScalarField;
    location    "0.065";
    object      qr;
}
// * * * * * * * * * * * * * * * * * * * * * * * * * * * * * * * * * * * * * //

dimensions      [1 0 -3 0 0 0 0];

internalField   uniform 0;

boundaryField
{
    fixedWall_Bottom
    {
        type            calculated;
        value           nonuniform List<scalar> 10(4458.1 5127.1 5549.48 5776.92 5888.14 5888.14 5776.93 5549.49 5127.11 4458.11);
    }
    fixedWall_Right
    {
        type            calculated;
        value           nonuniform List<scalar> 10(4458.11 5127.11 5549.49 5776.93 5888.14 5888.14 5776.92 5549.48 5127.1 4458.1);
    }
    fixedWall_Left
    {
        type            calculated;
        value           nonuniform List<scalar> 10(4458.1 5127.1 5549.48 5776.92 5888.14 5888.14 5776.93 5549.49 5127.11 4458.11);
    }
    fixedWall_Top
    {
        type            calculated;
        value           nonuniform List<scalar> 10(4458.11 5127.11 5549.49 5776.93 5888.14 5888.14 5776.92 5549.48 5127.1 4458.1);
    }
    frontAndBack
    {
        type            empty;
    }
}


// ************************************************************************* //
