/*--------------------------------*- C++ -*----------------------------------*\
| =========                 |                                                 |
| \\      /  F ield         | OpenFOAM: The Open Source CFD Toolbox           |
|  \\    /   O peration     | Version:  2312                                  |
|   \\  /    A nd           | Website:  www.openfoam.com                      |
|    \\/     M anipulation  |                                                 |
\*---------------------------------------------------------------------------*/
FoamFile
{
    version     2.0;
    format      ascii;
    arch        "LSB;label=32;scalar=64";
    class       volScalarField;
    location    "0.075";
    object      G;
}
// * * * * * * * * * * * * * * * * * * * * * * * * * * * * * * * * * * * * * //

dimensions      [1 0 -3 0 0 0 0];

internalField   nonuniform List<scalar> 
900
(
98904.6
118287
124763
128011
130169
131817
133132
134201
135073
135782
136348
136787
137108
137319
137424
137424
137319
137108
136787
136348
135782
135073
134201
133132
131817
130169
128011
124763
118287
98904.5
77329.3
96327.7
106751
112850
116749
119506
121577
123190
124463
125472
126263
126866
127303
127587
127727
127727
127587
127303
126866
126263
125472
124463
123189
121577
119506
116749
112850
106751
96327.6
77329.2
68985
83722.3
94011.7
101203
106210
109839
112566
114673
116325
117625
118638
119408
119963
120324
120502
120502
120324
119963
119408
118638
117625
116325
114673
112566
109839
106210
101203
94011.7
83722.2
68984.9
63744.2
75436.4
84498.3
91621.5
97008.7
101107
104264
106729
108670
110197
111388
112291
112943
113366
113575
113575
113366
112943
112291
111388
110198
108670
106729
104264
101107
97008.7
91621.6
84498.4
75436.5
63744.2
59731.7
69410.5
77240
83832.1
89137.6
93367.2
96730.5
99410.4
101545
103237
104559
105565
106291
106762
106994
106994
106762
106291
105565
104559
103237
101545
99410.4
96730.5
93367.1
89137.5
83832
77240
69410.5
59731.6
56233.5
64548.9
71349
77315.7
82332.3
86485.3
89887.6
92659.8
94904.7
96704.5
98122.3
99205.9
99990.4
100501
100752
100752
100501
99990.4
99205.8
98122.2
96704.4
94904.6
92659.7
89887.5
86485.2
82332.2
77315.6
71348.8
64548.8
56233.4
53138.6
60442.4
66417.1
71791.5
76446.4
80411.6
83740.3
86506.2
88781
90627.5
92096.3
93227.1
94050
94586.8
94851.7
94851.7
94586.8
94050
93227
92096.2
90627.4
88780.9
86506.1
83740.2
80411.6
76446.5
71791.6
66417
60442.3
53138.6
50328
56852.9
62160.4
67004.2
71284
75007.2
78195
80888.1
83132.7
84974.3
86452.6
87599.2
88438.7
88988.7
89260.9
89260.9
88988.7
88438.7
87599.2
86452.5
84974.3
83132.6
80888
78194.9
75007.1
71284.1
67004.4
62160.4
56852.8
50328
47729.9
53619.3
58378.9
62758.5
66680.9
70144.5
73156.9
75738.3
77915.1
79717.6
81175.1
82312.4
83149.1
83699.4
83972.3
83972.3
83699.4
83149.1
82312.4
81175
79717.6
77915
75738.2
73156.8
70144.4
66680.9
62758.6
58379
53619.2
47729.9
45297.9
50654.2
54955.9
58932.2
62527.7
65735
68557
71003.8
73088.5
74829.1
76245
77354.9
78174.1
78714
78982.1
78982.1
78714
78174
77354.9
76245
74829
73088.5
71003.8
68556.9
65734.9
62527.6
58932.3
54956
50654.1
45297.9
43009.5
47912.5
51823.9
55446.7
58746.3
61710
64338.6
66638.3
68614.7
70277.3
71637.7
72708.3
73500.6
74023.6
74283.5
74283.5
74023.6
73500.6
72708.3
71637.7
70277.3
68614.7
66638.2
64338.5
61709.8
58746.2
55446.7
51823.9
47912.4
43009.5
40849.7
45359
48932.5
52241.6
55273.5
58009.9
60450.3
62599.3
64458.7
66033.1
67328.6
68352.6
69112.5
69615.1
69865.1
69865.1
69615.1
69112.5
68352.6
67328.6
66033.1
64458.6
62599.2
60450.2
58009.7
55273.4
52241.6
48932.5
45359
40849.7
38801.9
42964
46242.3
49271.3
52060.6
54587.1
56849.1
58850.1
60590.2
62071.2
63296.2
64268.6
64992.7
65472.6
65711.6
65711.6
65472.6
64992.6
64268.6
63296.1
62071.2
60590.2
58850.1
56849
54587
52060.5
49271.3
46242.3
42964
38801.8
36853.1
40706.4
43724.9
46502.6
49071.7
51405.2
53499.9
55359.4
56982.3
58368.7
59520.1
60437.7
61123.3
61578.7
61805.9
61805.9
61578.7
61123.3
60437.7
59520.1
58368.7
56982.2
55359.4
53499.9
51405.2
49071.6
46502.5
43724.9
40706.3
36853.1
34995.8
38571.2
41359.4
43910.4
46279
48435.2
50373.9
52099.6
53609.8
54903.3
55980.6
56841.8
57486.9
57916.5
58131.1
58131.1
57916.5
57486.9
56841.7
55980.6
54903.3
53609.8
52099.6
50373.9
48435.1
46279
43910.3
41359.4
38571.1
34995.7
33223.2
36546.2
39128.7
41474.1
43659.7
45653
47446.7
49046.7
50449.8
51653.8
52658.2
53462.7
54066.7
54469.7
54671.2
54671.2
54469.7
54066.7
53462.7
52658.2
51653.8
50449.8
49046.7
47446.6
45653
43659.7
41474.1
39128.7
36546.1
33223.2
31529.2
34620.9
37018.6
39176.9
41194.9
43038.6
44697.6
46179.7
47481.8
48600.3
49534.5
50283.5
50846.5
51222.6
51410.9
51410.9
51222.6
50846.5
50283.5
49534.4
48600.3
47481.8
46179.7
44697.5
43038.5
41194.9
39176.9
37018.5
34620.8
31529.1
29907.8
32786.6
35017.3
37004.7
38868.6
40574.7
42108.7
43480.3
44687.1
45724.8
46592
47287.6
47810.8
48160.5
48335.6
48335.6
48160.5
47810.8
47287.6
46592
45724.8
44687.1
43480.2
42108.6
40574.7
38868.6
37004.7
35017.2
32786.5
29907.8
28354.5
31035.9
33114.8
34945.4
36666.9
38246.1
39664.1
40932.2
42049.5
43011
43814.8
44459.7
44944.7
45268.7
45431
45431
45268.7
44944.7
44459.7
43814.8
43011
42049.5
40932.1
39664.1
38246.1
36666.9
34945.4
33114.8
31035.8
28354.4
26864.6
29362.1
31302.2
32988.3
34577.5
36039.4
37349.7
38520.9
39554.1
40444
41188
41785
42233.8
42533.4
42683.3
42683.3
42533.4
42233.8
41785
41188
40444
39554.1
38520.9
37349.7
36039.4
34577.5
32988.3
31302.2
29362.1
26864.6
25434
27759
29571.3
31123.7
32589.3
33942.5
35152.7
36233.3
37187.6
38010
38697.7
39249.5
39664.2
39940.9
40079.2
40079.2
39940.9
39664.2
39249.5
38697.7
38010
37187.6
36233.3
35152.7
33942.5
32589.3
31123.7
29571.3
27758.9
25433.9
24058.2
26220.5
27914.5
29342.7
30692.3
31944.1
33061.4
34057
34937.2
35696.2
36330.7
36839.9
37222.7
37478
37605.6
37605.6
37478
37222.7
36839.9
36330.7
35696.1
34937.2
34057
33061.3
31944.1
30692.3
29342.7
27914.4
26220.5
24058.1
22733.1
24741.1
26324.5
27637
28877.2
30034
31064.5
31980.5
32790.8
33490.1
34074.5
34543.6
34896.4
35131.8
35249.5
35249.5
35131.8
34896.4
34543.6
34074.5
33490
32790.8
31980.5
31064.5
30034
28877.1
27637
26324.5
24741
22733.1
21454.4
23315
24794.3
25998.3
27134.6
28201.9
29151.2
29992.1
30736.4
31379.3
31916.6
32347.7
32672.4
32889.3
32997.7
32997.7
32889.3
32672.4
32347.7
31916.5
31379.3
30736.3
29992
29151.2
28201.9
27134.6
25998.3
24794.3
23314.9
21454.3
20217.4
21936.3
23316.6
24418.3
25455.4
26437.7
27310.6
28080.5
28762.2
29352.1
29844.8
30240.2
30538.3
30737.6
30837.4
30837.4
30737.6
30538.3
30240.2
29844.8
29352.1
28762.2
28080.4
27310.6
26437.7
25455.4
24418.3
23316.6
21936.2
20217.4
19015.2
20596.1
21880.9
22885.1
23826.5
24727.2
25527.8
26230.3
26852.5
27392.1
27842.9
28204.4
28477.2
28659.8
28751.3
28751.3
28659.8
28477.2
28204.4
27842.9
27392.1
26852.5
26230.3
25527.8
24727.2
23826.5
22885.1
21880.8
20596.1
19015.1
17850.6
19295.5
20486.4
21396.8
22245.4
23067.3
23799.2
24437.7
25003.1
25495
25906.1
26235.5
26484
26650.8
26734.3
26734.3
26650.8
26484
26235.5
25906.1
25494.9
25003
24437.7
23799.2
23067.3
22245.4
21396.7
20486.3
19295.5
17850.5
16681.4
17985.9
19080.1
19897.2
20653
21396.1
22060.9
22637
23146.3
23591.3
23963.8
24261.7
24486.5
24637.4
24713.1
24713.1
24637.4
24486.5
24261.7
23963.8
23591.3
23146.3
22637
22060.9
21396.1
20653
19897.2
19080.1
17985.9
16681.4
15630
16796.6
17797
18527.9
19199.9
19872.4
20477.5
20998.4
21458.3
21862.1
22200.7
22471
22674.7
22811.7
22880.5
22880.5
22811.7
22674.7
22471
22200.7
21862.1
21458.3
20998.3
20477.5
19872.4
19199.9
18527.9
17797
16796.5
15629.9
13993.9
14948.7
15813.8
16426.9
16978.4
17547.4
18068.7
18512
18899.9
19243.2
19533.1
19763.6
19936.3
20052.8
20111.7
20111.7
20052.8
19936.3
19763.6
19533.1
19243.2
18899.9
18512
18068.7
17547.4
16978.4
16426.9
15813.7
14948.7
13993.9
)
;

boundaryField
{
    fixedWall_Bottom
    {
        type            calculated;
        value           nonuniform List<scalar> 
30
(
128982
131599
133274
134697
135883
136898
137765
138505
139133
139656
140083
140419
140668
140833
140915
140915
140833
140668
140419
140083
139656
139132
138505
137765
136898
135883
134697
133274
131599
128982
)
;
    }
    fixedWall_Right
    {
        type            calculated;
        value           nonuniform List<scalar> 
30
(
69516.4
64487.1
60979.3
57850.5
55017.3
52300.9
49745.7
47355
45090.1
42926.8
40862.8
38894.8
37013.8
35212.1
33485.8
31831
30243.5
28719.4
27255.1
25847.4
24492.8
23187.9
21929.2
20713
19535.4
18390.3
17281.3
16169.4
15177.4
13642.5
)
;
    }
    fixedWall_Left
    {
        type            calculated;
        value           nonuniform List<scalar> 
30
(
69516.4
64487.1
60979.3
57850.5
55017.3
52300.9
49745.7
47355
45090.1
42926.8
40862.8
38894.8
37013.8
35212.2
33485.8
31831
30243.6
28719.4
27255.1
25847.4
24492.9
23187.9
21929.2
20713
19535.4
18390.3
17281.3
16169.4
15177.4
13642.5
)
;
    }
    fixedWall_Top
    {
        type            calculated;
        value           nonuniform List<scalar> 
30
(
13706.9
14593.1
15420
16005.6
16534.7
17083.8
17587.7
18016.2
18391.1
18723.5
19004.2
19227.4
19394.8
19507.6
19564.7
19564.7
19507.6
19394.8
19227.4
19004.2
18723.5
18391.1
18016.2
17587.7
17083.8
16534.7
16005.6
15419.9
14593.1
13706.8
)
;
    }
    frontAndBack
    {
        type            empty;
    }
}


// ************************************************************************* //
