/*--------------------------------*- C++ -*----------------------------------*\
| =========                 |                                                 |
| \\      /  F ield         | OpenFOAM: The Open Source CFD Toolbox           |
|  \\    /   O peration     | Version:  2312                                  |
|   \\  /    A nd           | Website:  www.openfoam.com                      |
|    \\/     M anipulation  |                                                 |
\*---------------------------------------------------------------------------*/
FoamFile
{
    version     2.0;
    format      ascii;
    arch        "LSB;label=32;scalar=64";
    class       volScalarField;
    location    "0.075";
    object      qr;
}
// * * * * * * * * * * * * * * * * * * * * * * * * * * * * * * * * * * * * * //

dimensions      [1 0 -3 0 0 0 0];

internalField   uniform 0;

boundaryField
{
    fixedWall_Bottom
    {
        type            calculated;
        value           nonuniform List<scalar> 
30
(
-49799.7
-48212.6
-47233.9
-46429.8
-45772.5
-45219
-44751.9
-44357.5
-44026.3
-43751.7
-43529
-43354.5
-43225.8
-43140.9
-43098.8
-43098.8
-43140.9
-43225.8
-43354.6
-43529
-43751.7
-44026.3
-44357.5
-44752
-45219
-45772.5
-46429.8
-47233.9
-48212.7
-49799.7
)
;
    }
    fixedWall_Right
    {
        type            calculated;
        value           nonuniform List<scalar> 
30
(
35460.8
32399.6
30266.6
28449
26825.3
25273
23826.1
22490.5
21237.3
20048.7
18923.9
17861.3
16854.4
15897.9
14989
14125.2
13303.5
12520.8
11774.8
11063.1
10382.9
9731.82
9107.17
8506.21
7925.85
7361.93
6814.72
6265.19
5759.63
4995.97
)
;
    }
    fixedWall_Left
    {
        type            calculated;
        value           nonuniform List<scalar> 
30
(
35460.9
32399.7
30266.7
28449
26825.3
25273
23826.1
22490.5
21237.3
20048.7
18924
17861.3
16854.5
15898
14989
14125.2
13303.5
12520.9
11774.9
11063.1
10382.9
9731.83
9107.18
8506.22
7925.87
7361.95
6814.74
6265.2
5759.63
4995.97
)
;
    }
    fixedWall_Top
    {
        type            calculated;
        value           nonuniform List<scalar> 
30
(
8769.91
9467.57
10097.6
10545.9
10950.2
11372.1
11759.9
12089.8
12378.7
12635.1
12851.9
13024.4
13153.7
13240.9
13285.1
13285.1
13240.9
13153.7
13024.4
12851.9
12635.1
12378.7
12089.8
11759.9
11372.1
10950.2
10545.9
10097.6
9467.55
8769.9
)
;
    }
    frontAndBack
    {
        type            empty;
    }
}


// ************************************************************************* //
