/*--------------------------------*- C++ -*----------------------------------*\
| =========                 |                                                 |
| \\      /  F ield         | OpenFOAM: The Open Source CFD Toolbox           |
|  \\    /   O peration     | Version:  2306                                  |
|   \\  /    A nd           | Website:  www.openfoam.com                      |
|    \\/     M anipulation  |                                                 |
\*---------------------------------------------------------------------------*/
FoamFile
{
    version     2.0;
    format      ascii;
    arch        "LSB;label=32;scalar=64";
    class       volScalarField;
    location    "11.5";
    object      Keff;
}
// * * * * * * * * * * * * * * * * * * * * * * * * * * * * * * * * * * * * * //

dimensions      [1 1 -3 -1 0 0 0];

internalField   nonuniform List<scalar> 
32768
(
67.2037
67.2017
67.1977
67.1915
67.1832
67.1729
67.1605
67.146
67.1293
67.1106
67.0897
67.0666
67.0414
67.014
66.9843
66.9525
66.9183
66.8819
66.8432
66.8022
66.7588
66.713
66.6649
66.6144
66.5615
66.5062
66.4485
66.3883
66.3257
66.2607
66.1932
66.1234
66.0511
65.9765
65.8995
65.8203
65.7387
65.655
65.5691
65.481
65.391
65.2989
65.205
65.1092
65.0117
64.9127
64.8121
64.7101
64.6068
64.5023
64.3968
64.2903
64.183
64.0751
63.9666
63.8577
63.7485
63.6391
63.5297
63.4204
63.3113
63.2026
63.0942
62.9864
62.8793
62.7729
62.6674
62.5628
62.4591
62.3566
62.2552
62.155
62.0561
61.9584
61.8621
61.7672
61.6737
61.5815
61.4909
61.4016
61.3138
61.2274
61.1425
61.0589
60.9768
60.896
60.8167
60.7386
60.6619
60.5864
60.5122
60.4391
60.3673
60.2966
60.227
60.1584
60.0909
60.0244
59.9588
59.8942
59.8305
59.7676
59.7056
59.6444
59.5839
59.5242
59.4653
59.4071
59.3495
59.2927
59.2366
59.1811
59.1263
59.0722
59.0188
58.966
58.9139
58.8625
58.8118
58.7618
58.7126
58.6641
58.6164
58.5695
58.5235
58.4782
58.4339
58.3905
58.348
58.3066
58.2661
58.2267
58.1884
58.1512
58.1152
58.0804
58.0468
58.0146
57.9837
57.9541
57.926
57.8993
57.8741
57.8504
57.8284
57.8079
57.7891
57.7719
57.7565
57.7428
57.731
57.7209
57.7128
57.7065
57.7021
57.6997
57.6993
57.7008
57.7045
57.7101
57.7179
57.7277
57.7397
57.7539
57.7702
57.7887
57.8094
57.8323
57.8574
57.8848
57.9144
57.9463
57.9805
58.017
58.0557
58.0967
58.1401
58.1857
58.2336
58.2838
58.3362
58.391
58.448
58.5073
58.5688
58.6326
58.6986
58.7668
58.8372
58.9097
58.9844
59.0611
59.14
59.2209
59.3038
59.3886
59.4754
59.5641
59.6547
59.747
59.8411
59.9368
60.0342
60.1332
60.2337
60.3357
60.4391
60.5438
60.6497
60.7569
60.8651
60.9745
61.0848
61.1959
61.308
61.4207
61.5341
61.6482
61.7627
61.8777
61.993
62.1086
62.2244
62.3404
62.4563
62.5723
62.6882
62.804
62.9195
63.0347
63.1495
63.264
63.3779
63.4913
63.6042
63.7164
63.8279
63.9387
64.0487
64.1579
64.2662
64.3736
64.4801
64.5857
64.6903
64.7939
64.8964
64.998
65.0983
65.198
65.2955
65.3946
65.4863
65.5914
65.6625
65.8134
67.2037
67.2017
67.1977
67.1915
67.1832
67.1729
67.1605
67.146
67.1294
67.1106
67.0897
67.0667
67.0415
67.014
66.9844
66.9525
66.9184
66.882
66.8433
66.8022
66.7589
66.7131
66.665
66.6145
66.5616
66.5062
66.4485
66.3883
66.3256
66.2606
66.1931
66.1232
66.0509
65.9762
65.8992
65.8198
65.7382
65.6544
65.5683
65.4802
65.39
65.2978
65.2038
65.1079
65.0103
64.9111
64.8104
64.7082
64.6048
64.5001
64.3945
64.2879
64.1804
64.0723
63.9637
63.8547
63.7453
63.6358
63.5263
63.4168
63.3076
63.1987
63.0903
62.9824
62.8752
62.7687
62.663
62.5583
62.4547
62.352
62.2506
62.1503
62.0514
61.9537
61.8574
61.7624
61.6688
61.5767
61.486
61.3968
61.309
61.2226
61.1376
61.0541
60.972
60.8913
60.8119
60.7339
60.6572
60.5818
60.5076
60.4346
60.3628
60.2921
60.2225
60.154
60.0865
60.02
59.9545
59.8899
59.8262
59.7634
59.7013
59.6401
59.5797
59.52
59.4611
59.4029
59.3454
59.2886
59.2324
59.177
59.1222
59.0681
59.0146
58.9618
58.9097
58.8583
58.8076
58.7576
58.7084
58.6598
58.6121
58.5652
58.5191
58.4738
58.4295
58.386
58.3435
58.302
58.2615
58.2221
58.1837
58.1465
58.1104
58.0756
58.042
58.0097
57.9787
57.9492
57.921
57.8943
57.869
57.8453
57.8232
57.8027
57.7838
57.7667
57.7512
57.7375
57.7256
57.7156
57.7073
57.701
57.6966
57.6942
57.6937
57.6953
57.6989
57.7045
57.7123
57.7221
57.7341
57.7482
57.7645
57.783
57.8036
57.8265
57.8517
57.879
57.9087
57.9406
57.9747
58.0112
58.0499
58.0909
58.1343
58.1799
58.2278
58.278
58.3305
58.3852
58.4423
58.5016
58.5631
58.6269
58.6929
58.7611
58.8315
58.9041
58.9788
59.0556
59.1344
59.2154
59.2983
59.3832
59.4701
59.5588
59.6494
59.7417
59.8359
59.9317
60.0292
60.1282
60.2288
60.3308
60.4343
60.539
60.6451
60.7523
60.8606
60.97
61.0804
61.1917
61.3038
61.4166
61.5301
61.6443
61.7589
61.8739
61.9893
62.105
62.221
62.337
62.4531
62.5691
62.6851
62.8009
62.9165
63.0318
63.1468
63.2613
63.3753
63.4888
63.6017
63.714
63.8256
63.9365
64.0465
64.1558
64.2642
64.3717
64.4782
64.5838
64.6885
64.7921
64.8947
64.9963
65.0967
65.1965
65.294
65.3931
65.4849
65.5901
65.661
65.8121
67.2037
67.2017
67.1977
67.1915
67.1833
67.1729
67.1605
67.146
67.1294
67.1107
67.0898
67.0668
67.0416
67.0142
66.9846
66.9527
66.9186
66.8822
66.8434
66.8024
66.759
66.7133
66.6651
66.6146
66.5617
66.5063
66.4485
66.3882
66.3255
66.2604
66.1928
66.1228
66.0503
65.9755
65.8984
65.8189
65.7371
65.6531
65.5669
65.4785
65.3881
65.2957
65.2014
65.1053
65.0074
64.908
64.8069
64.7045
64.6008
64.4959
64.3899
64.283
64.1753
64.0669
63.9579
63.8486
63.739
63.6292
63.5194
63.4097
63.3002
63.1911
63.0824
62.9743
62.8668
62.7602
62.6544
62.5495
62.4457
62.3429
62.2414
62.141
62.0419
61.9442
61.8478
61.7528
61.6592
61.5671
61.4764
61.3871
61.2993
61.2129
61.128
61.0446
60.9625
60.8818
60.8025
60.7245
60.6479
60.5725
60.4984
60.4254
60.3537
60.2831
60.2136
60.1451
60.0777
60.0113
59.9458
59.8813
59.8176
59.7548
59.6929
59.6317
59.5713
59.5117
59.4528
59.3946
59.3371
59.2803
59.2242
59.1687
59.1139
59.0598
59.0063
58.9535
58.9014
58.8499
58.7992
58.7491
58.6998
58.6513
58.6035
58.5565
58.5103
58.465
58.4206
58.3771
58.3345
58.2929
58.2523
58.2128
58.1744
58.1371
58.1009
58.066
58.0324
58
57.9689
57.9393
57.911
57.8842
57.8589
57.8351
57.8129
57.7923
57.7734
57.7562
57.7406
57.7269
57.7149
57.7048
57.6965
57.6901
57.6857
57.6832
57.6827
57.6842
57.6877
57.6933
57.701
57.7108
57.7228
57.7369
57.7531
57.7716
57.7922
57.8151
57.8402
57.8675
57.8972
57.929
57.9632
57.9996
58.0384
58.0794
58.1227
58.1683
58.2162
58.2664
58.3189
58.3737
58.4308
58.4901
58.5517
58.6155
58.6815
58.7498
58.8202
58.8928
58.9676
59.0444
59.1234
59.2044
59.2874
59.3724
59.4593
59.5481
59.6388
59.7313
59.8255
59.9214
60.019
60.1182
60.2189
60.3211
60.4246
60.5296
60.6357
60.7431
60.8516
60.9612
61.0717
61.1832
61.2954
61.4085
61.5221
61.6364
61.7512
61.8665
61.9821
62.098
62.214
62.3303
62.4465
62.5628
62.6789
62.7949
62.9107
63.0262
63.1413
63.256
63.3702
63.4838
63.5969
63.7093
63.821
63.932
64.0422
64.1516
64.2601
64.3677
64.4744
64.5802
64.6849
64.7886
64.8913
64.993
65.0935
65.1933
65.2909
65.3901
65.482
65.5873
65.6582
65.8094
67.2037
67.2017
67.1977
67.1915
67.1833
67.173
67.1606
67.1461
67.1295
67.1108
67.09
67.067
67.0418
67.0144
66.9848
66.9529
66.9188
66.8824
66.8437
66.8027
66.7593
66.7135
66.6653
66.6148
66.5618
66.5063
66.4485
66.3881
66.3253
66.2601
66.1923
66.1222
66.0496
65.9746
65.8972
65.8175
65.7355
65.6512
65.5647
65.476
65.3853
65.2926
65.1979
65.1014
65.0032
64.9033
64.8018
64.699
64.5948
64.4894
64.383
64.2756
64.1675
64.0586
63.9493
63.8395
63.7294
63.6192
63.509
63.3989
63.289
63.1796
63.0705
62.9621
62.8544
62.7474
62.6413
62.5362
62.4322
62.3293
62.2275
62.127
62.0278
61.93
61.8335
61.7384
61.6448
61.5526
61.4619
61.3726
61.2848
61.1985
61.1136
61.0302
60.9482
60.8676
60.7883
60.7105
60.6339
60.5586
60.4846
60.4118
60.3401
60.2696
60.2002
60.1319
60.0646
59.9982
59.9329
59.8684
59.8048
59.7421
59.6802
59.6191
59.5588
59.4992
59.4403
59.3822
59.3247
59.2679
59.2118
59.1563
59.1015
59.0474
58.9939
58.941
58.8889
58.8374
58.7866
58.7365
58.6871
58.6385
58.5906
58.5435
58.4973
58.4519
58.4073
58.3637
58.321
58.2793
58.2386
58.199
58.1604
58.123
58.0867
58.0517
58.0179
57.9854
57.9542
57.9245
57.8961
57.8692
57.8437
57.8198
57.7975
57.7768
57.7578
57.7404
57.7248
57.711
57.6989
57.6887
57.6803
57.6738
57.6693
57.6667
57.6662
57.6676
57.6711
57.6766
57.6842
57.694
57.7058
57.7199
57.7361
57.7545
57.7751
57.7979
57.823
57.8503
57.8799
57.9118
57.9459
57.9823
58.021
58.0621
58.1054
58.151
58.1989
58.2491
58.3017
58.3565
58.4135
58.4729
58.5345
58.5984
58.6645
58.7328
58.8033
58.876
58.9508
59.0278
59.1068
59.1879
59.271
59.3561
59.4432
59.5321
59.6229
59.7156
59.81
59.9061
60.0038
60.1032
60.2041
60.3065
60.4102
60.5154
60.6218
60.7294
60.8381
60.9479
61.0587
61.1704
61.2829
61.3962
61.5102
61.6247
61.7398
61.8553
61.9712
62.0873
62.2037
62.3202
62.4367
62.5532
62.6697
62.7859
62.902
63.0177
63.133
63.248
63.3624
63.4763
63.5896
63.7023
63.8142
63.9254
64.0358
64.1454
64.2541
64.3619
64.4687
64.5746
64.6795
64.7834
64.8863
64.9881
65.0887
65.1887
65.2864
65.3857
65.4776
65.5831
65.6541
65.8054
67.2037
67.2017
67.1977
67.1916
67.1833
67.173
67.1607
67.1462
67.1297
67.111
67.0902
67.0672
67.042
67.0147
66.9851
66.9533
66.9192
66.8828
66.8441
66.803
66.7596
66.7138
66.6657
66.615
66.562
66.5065
66.4485
66.388
66.3251
66.2597
66.1918
66.1214
66.0486
65.9734
65.8957
65.8157
65.7334
65.6487
65.5618
65.4728
65.3816
65.2884
65.1933
65.0963
64.9975
64.897
64.795
64.6916
64.5868
64.4809
64.3739
64.2659
64.1571
64.0477
63.9377
63.8273
63.7167
63.6059
63.4952
63.3845
63.2742
63.1642
63.0547
62.9458
62.8377
62.7304
62.624
62.5185
62.4142
62.311
62.209
62.1083
62.009
61.911
61.8144
61.7192
61.6255
61.5333
61.4425
61.3533
61.2655
61.1792
61.0944
61.011
60.9291
60.8486
60.7695
60.6917
60.6153
60.5401
60.4662
60.3936
60.3221
60.2517
60.1824
60.1142
60.047
59.9808
59.9156
59.8513
59.7878
59.7252
59.6634
59.6024
59.5421
59.4826
59.4238
59.3657
59.3082
59.2515
59.1953
59.1399
59.0851
59.0309
58.9774
58.9245
58.8723
58.8207
58.7698
58.7196
58.6702
58.6214
58.5735
58.5263
58.4799
58.4343
58.3897
58.3459
58.3031
58.2612
58.2204
58.1806
58.1419
58.1043
58.0679
58.0327
57.9987
57.966
57.9347
57.9047
57.8762
57.8491
57.8235
57.7995
57.777
57.7562
57.737
57.7195
57.7038
57.6898
57.6776
57.6672
57.6587
57.6522
57.6475
57.6448
57.6441
57.6455
57.6489
57.6543
57.6618
57.6715
57.6833
57.6973
57.7134
57.7318
57.7523
57.7751
57.8001
57.8274
57.857
57.8888
57.9229
57.9593
57.998
58.039
58.0823
58.128
58.1759
58.2261
58.2787
58.3335
58.3906
58.45
58.5117
58.5756
58.6418
58.7102
58.7808
58.8535
58.9285
59.0055
59.0847
59.1659
59.2492
59.3345
59.4217
59.5108
59.6018
59.6947
59.7893
59.8856
59.9836
60.0832
60.1844
60.287
60.3911
60.4965
60.6032
60.7111
60.8201
60.9303
61.0414
61.1534
61.2663
61.3799
61.4942
61.6091
61.7246
61.8405
61.9567
62.0732
62.1899
62.3068
62.4237
62.5406
62.6574
62.774
62.8903
63.0064
63.1221
63.2374
63.3521
63.4663
63.58
63.6929
63.8051
63.9166
64.0273
64.1371
64.2461
64.3541
64.4612
64.5673
64.6724
64.7765
64.8795
64.9816
65.0823
65.1825
65.2803
65.3798
65.4719
65.5775
65.6486
65.8001
67.2037
67.2017
67.1977
67.1916
67.1834
67.1731
67.1608
67.1464
67.1298
67.1112
67.0904
67.0675
67.0423
67.015
66.9855
66.9537
66.9196
66.8832
66.8446
66.8035
66.7601
66.7143
66.6661
66.6154
66.5623
66.5067
66.4486
66.388
66.3249
66.2593
66.1912
66.1206
66.0475
65.9719
65.8939
65.8135
65.7308
65.6457
65.5583
65.4687
65.377
65.2833
65.1875
65.0898
64.9904
64.8893
64.7866
64.6824
64.5769
64.4702
64.3624
64.2537
64.1442
64.034
63.9232
63.8121
63.7008
63.5893
63.4778
63.3666
63.2556
63.145
63.0349
62.9255
62.8168
62.709
62.6022
62.4964
62.3917
62.2882
62.1859
62.085
61.9854
61.8872
61.7904
61.6952
61.6014
61.5091
61.4184
61.3291
61.2414
61.1551
61.0704
60.9871
60.9053
60.825
60.746
60.6684
60.5921
60.5171
60.4434
60.3708
60.2995
60.2293
60.1602
60.0922
60.0252
59.9592
59.8941
59.8299
59.7666
59.7041
59.6424
59.5815
59.5213
59.4619
59.4032
59.3451
59.2877
59.231
59.1749
59.1194
59.0646
59.0104
58.9568
58.9039
58.8516
58.7999
58.749
58.6987
58.6491
58.6002
58.5521
58.5048
58.4582
58.4125
58.3677
58.3237
58.2807
58.2387
58.1976
58.1577
58.1187
58.081
58.0443
58.0089
57.9748
57.9419
57.9104
57.8802
57.8515
57.8242
57.7984
57.7742
57.7515
57.7305
57.7111
57.6934
57.6775
57.6633
57.651
57.6405
57.6319
57.6251
57.6203
57.6175
57.6167
57.6179
57.6212
57.6265
57.634
57.6435
57.6552
57.6691
57.6852
57.7034
57.7239
57.7466
57.7716
57.7988
57.8283
57.8601
57.8942
57.9306
57.9693
58.0103
58.0536
58.0992
58.1472
58.1974
58.25
58.3048
58.362
58.4215
58.4832
58.5472
58.6135
58.682
58.7527
58.8256
58.9006
58.9778
59.0571
59.1385
59.222
59.3075
59.3949
59.4842
59.5755
59.6686
59.7635
59.8601
59.9584
60.0583
60.1597
60.2627
60.3671
60.4729
60.58
60.6883
60.7977
60.9082
61.0198
61.1322
61.2455
61.3596
61.4743
61.5897
61.7056
61.8219
61.9386
62.0556
62.1728
62.2901
62.4074
62.5248
62.642
62.759
62.8759
62.9924
63.1085
63.2241
63.3393
63.4539
63.5679
63.6812
63.7938
63.9056
64.0167
64.1268
64.2361
64.3444
64.4518
64.5582
64.6636
64.7679
64.8712
64.9734
65.0744
65.1748
65.2728
65.3725
65.4647
65.5705
65.6417
65.7935
67.2037
67.2017
67.1977
67.1916
67.1834
67.1732
67.1609
67.1465
67.13
67.1114
67.0907
67.0678
67.0427
67.0155
66.986
66.9542
66.9202
66.8838
66.8452
66.8041
66.7607
66.7149
66.6666
66.6159
66.5627
66.507
66.4487
66.388
66.3247
66.2589
66.1905
66.1196
66.0462
65.9702
65.8918
65.811
65.7277
65.6421
65.5542
65.464
65.3716
65.2771
65.1807
65.0822
64.982
64.88
64.7765
64.6715
64.5651
64.4574
64.3487
64.2391
64.1286
64.0175
63.9059
63.7939
63.6816
63.5693
63.457
63.3449
63.2332
63.1219
63.0111
62.901
62.7918
62.6834
62.576
62.4697
62.3646
62.2607
62.1581
62.0569
61.957
61.8586
61.7617
61.6663
61.5725
61.4801
61.3894
61.3001
61.2124
61.1263
61.0416
60.9585
60.8768
60.7966
60.7178
60.6403
60.5643
60.4895
60.416
60.3437
60.2726
60.2026
60.1337
60.0659
59.9991
59.9333
59.8684
59.8044
59.7412
59.6789
59.6173
59.5566
59.4965
59.4372
59.3785
59.3206
59.2632
59.2065
59.1504
59.095
59.0401
58.9859
58.9323
58.8793
58.8269
58.7752
58.7241
58.6737
58.6239
58.5749
58.5266
58.4791
58.4324
58.3865
58.3414
58.2973
58.2541
58.2118
58.1705
58.1303
58.0911
58.0531
58.0162
57.9806
57.9462
57.913
57.8813
57.8509
57.8219
57.7944
57.7683
57.7439
57.721
57.6997
57.6801
57.6623
57.6461
57.6318
57.6192
57.6085
57.5997
57.5928
57.5879
57.5849
57.5839
57.585
57.5881
57.5933
57.6006
57.6101
57.6216
57.6354
57.6514
57.6696
57.69
57.7126
57.7375
57.7647
57.7941
57.8259
57.8599
57.8962
57.9349
57.9759
58.0192
58.0648
58.1128
58.1631
58.2157
58.2706
58.3278
58.3873
58.4491
58.5132
58.5796
58.6482
58.719
58.792
58.8673
58.9446
59.0241
59.1057
59.1894
59.2751
59.3628
59.4524
59.544
59.6373
59.7325
59.8295
59.9281
60.0284
60.1302
60.2336
60.3384
60.4446
60.5522
60.6609
60.7708
60.8818
60.9939
61.1068
61.2206
61.3352
61.4505
61.5664
61.6828
61.7997
61.917
62.0345
62.1522
62.2701
62.388
62.5059
62.6236
62.7412
62.8585
62.9756
63.0922
63.2083
63.324
63.4391
63.5535
63.6673
63.7803
63.8926
64.004
64.1145
64.2242
64.3329
64.4406
64.5473
64.653
64.7577
64.8612
64.9637
65.0649
65.1656
65.2638
65.3637
65.4562
65.5622
65.6335
65.7856
67.2037
67.2017
67.1977
67.1917
67.1835
67.1733
67.1611
67.1467
67.1303
67.1118
67.0911
67.0682
67.0432
67.016
66.9866
66.9549
66.9209
66.8846
66.8459
66.8049
66.7615
66.7156
66.6673
66.6165
66.5632
66.5074
66.449
66.3881
66.3246
66.2585
66.1898
66.1186
66.0448
65.9684
65.8895
65.8082
65.7243
65.6381
65.5495
65.4585
65.3654
65.2701
65.1728
65.0735
64.9723
64.8694
64.7648
64.6587
64.5513
64.4426
64.3328
64.2221
64.1105
63.9983
63.8856
63.7726
63.6593
63.546
63.4327
63.3197
63.207
63.0948
62.9833
62.8725
62.7625
62.6534
62.5455
62.4386
62.333
62.2286
62.1256
62.0241
61.9239
61.8253
61.7282
61.6327
61.5387
61.4463
61.3555
61.2663
61.1787
61.0926
61.0081
60.9251
60.8436
60.7636
60.685
60.6078
60.5319
60.4574
60.3841
60.3121
60.2412
60.1715
60.1029
60.0353
59.9688
59.9032
59.8385
59.7747
59.7118
59.6496
59.5883
59.5277
59.4678
59.4085
59.35
59.2921
59.2348
59.1782
59.1221
59.0666
59.0118
58.9575
58.9038
58.8508
58.7983
58.7464
58.6952
58.6447
58.5948
58.5456
58.4971
58.4494
58.4024
58.3563
58.311
58.2666
58.2231
58.1806
58.139
58.0985
58.0591
58.0208
57.9836
57.9477
57.913
57.8795
57.8475
57.8168
57.7875
57.7597
57.7334
57.7087
57.6856
57.664
57.6442
57.6261
57.6097
57.5951
57.5823
57.5714
57.5624
57.5553
57.5501
57.547
57.5458
57.5467
57.5496
57.5547
57.5619
57.5712
57.5826
57.5963
57.6121
57.6302
57.6505
57.673
57.6979
57.725
57.7543
57.786
57.82
57.8563
57.895
57.9359
57.9792
58.0249
58.0728
58.1231
58.1758
58.2307
58.288
58.3476
58.4095
58.4737
58.5402
58.6089
58.6799
58.7531
58.8285
58.906
58.9857
59.0676
59.1515
59.2375
59.3254
59.4154
59.5072
59.601
59.6965
59.7939
59.8929
59.9936
60.0959
60.1997
60.305
60.4118
60.5198
60.6291
60.7395
60.8511
60.9637
61.0773
61.1917
61.3069
61.4228
61.5393
61.6564
61.7739
61.8918
62.0099
62.1283
62.2468
62.3654
62.4839
62.6023
62.7205
62.8384
62.956
63.0732
63.19
63.3062
63.4218
63.5368
63.6511
63.7647
63.8774
63.9893
64.1003
64.2103
64.3195
64.4276
64.5347
64.6407
64.7457
64.8496
64.9525
65.054
65.1549
65.2534
65.3536
65.4463
65.5525
65.624
65.7764
67.2037
67.2017
67.1978
67.1917
67.1836
67.1734
67.1612
67.147
67.1306
67.1121
67.0915
67.0688
67.0438
67.0167
66.9873
66.9557
66.9217
66.8855
66.8469
66.8059
66.7624
66.7166
66.6682
66.6173
66.5639
66.508
66.4494
66.3883
66.3246
66.2582
66.1892
66.1176
66.0433
65.9665
65.8871
65.8051
65.7206
65.6336
65.5442
65.4525
65.3585
65.2622
65.1639
65.0636
64.9613
64.8572
64.7515
64.6443
64.5356
64.4257
64.3147
64.2027
64.0899
63.9764
63.8625
63.7482
63.6337
63.5193
63.4049
63.2908
63.1771
63.0639
62.9514
62.8397
62.7289
62.6191
62.5104
62.403
62.2968
62.1919
62.0885
61.9865
61.8861
61.7872
61.6899
61.5942
61.5001
61.4077
61.3169
61.2277
61.1401
61.0542
60.9698
60.887
60.8057
60.7259
60.6475
60.5706
60.495
60.4208
60.3478
60.2761
60.2056
60.1361
60.0678
60.0006
59.9343
59.869
59.8046
59.7411
59.6783
59.6164
59.5553
59.4948
59.4351
59.376
59.3176
59.2598
59.2026
59.146
59.09
59.0345
58.9796
58.9253
58.8716
58.8184
58.7658
58.7139
58.6625
58.6118
58.5617
58.5123
58.4636
58.4156
58.3684
58.322
58.2765
58.2318
58.188
58.1451
58.1033
58.0624
58.0227
57.984
57.9466
57.9103
57.8752
57.8415
57.8091
57.7781
57.7485
57.7204
57.6938
57.6687
57.6453
57.6235
57.6033
57.5849
57.5683
57.5534
57.5404
57.5292
57.5199
57.5126
57.5072
57.5038
57.5025
57.5032
57.5059
57.5108
57.5178
57.527
57.5383
57.5518
57.5675
57.5854
57.6056
57.6281
57.6528
57.6798
57.7091
57.7407
57.7747
57.8109
57.8495
57.8905
57.9337
57.9794
58.0274
58.0777
58.1303
58.1854
58.2427
58.3024
58.3644
58.4287
58.4953
58.5641
58.6353
58.7087
58.7843
58.862
58.942
59.0241
59.1083
59.1946
59.2829
59.3731
59.4654
59.5595
59.6555
59.7532
59.8528
59.9539
60.0568
60.1611
60.267
60.3743
60.4829
60.5928
60.7039
60.8161
60.9294
61.0436
61.1587
61.2746
61.3912
61.5084
61.6262
61.7445
61.8631
61.982
62.1011
62.2203
62.3396
62.4588
62.578
62.6969
62.8155
62.9338
63.0517
63.1691
63.286
63.4023
63.5179
63.6327
63.7469
63.8601
63.9726
64.0841
64.1947
64.3043
64.4128
64.5204
64.6268
64.7322
64.8365
64.9397
65.0416
65.1428
65.2416
65.3421
65.435
65.5415
65.6132
65.766
67.2037
67.2018
67.1978
67.1918
67.1837
67.1736
67.1615
67.1473
67.131
67.1126
67.0921
67.0694
67.0445
67.0175
66.9882
66.9566
66.9228
66.8866
66.848
66.807
66.7636
66.7177
66.6693
66.6184
66.5649
66.5088
66.4501
66.3887
66.3247
66.258
66.1887
66.1166
66.0419
65.9645
65.8845
65.8018
65.7166
65.6288
65.5386
65.4459
65.3509
65.2536
65.1541
65.0526
64.9491
64.8438
64.7367
64.6281
64.5181
64.4068
64.2943
64.1809
64.0667
63.9518
63.8364
63.7208
63.605
63.4892
63.3735
63.2582
63.1433
63.029
62.9155
62.8028
62.691
62.5804
62.4709
62.3628
62.2559
62.1505
62.0466
61.9442
61.8434
61.7442
61.6467
61.5508
61.4567
61.3642
61.2734
61.1843
61.0968
61.011
60.9268
60.8442
60.7632
60.6836
60.6056
60.5289
60.4537
60.3798
60.3072
60.2358
60.1656
60.0966
60.0286
59.9617
59.8958
59.8308
59.7667
59.7034
59.641
59.5794
59.5184
59.4582
59.3987
59.3398
59.2815
59.2238
59.1667
59.1101
59.0541
58.9987
58.9438
58.8894
58.8356
58.7824
58.7297
58.6775
58.626
58.5751
58.5248
58.4752
58.4262
58.378
58.3305
58.2838
58.2379
58.1929
58.1488
58.1056
58.0634
58.0222
57.982
57.943
57.9052
57.8685
57.8331
57.799
57.7662
57.7349
57.7049
57.6764
57.6495
57.6241
57.6003
57.5781
57.5577
57.5389
57.522
57.5068
57.4935
57.482
57.4725
57.4649
57.4593
57.4556
57.454
57.4545
57.4571
57.4617
57.4685
57.4775
57.4886
57.502
57.5176
57.5354
57.5554
57.5777
57.6024
57.6293
57.6585
57.69
57.7239
57.7601
57.7987
57.8396
57.8828
57.9285
57.9765
58.0268
58.0795
58.1346
58.192
58.2517
58.3138
58.3783
58.445
58.514
58.5853
58.6589
58.7347
58.8128
58.893
58.9754
59.0599
59.1465
59.2351
59.3258
59.4184
59.513
59.6095
59.7077
59.8077
59.9095
60.0128
60.1178
60.2243
60.3322
60.4415
60.5521
60.6639
60.7768
60.8908
61.0058
61.1217
61.2384
61.3558
61.4738
61.5924
61.7115
61.8309
61.9507
62.0706
62.1907
62.3108
62.4308
62.5508
62.6705
62.7899
62.909
63.0276
63.1458
63.2634
63.3804
63.4967
63.6122
63.727
63.8409
63.9539
64.066
64.1772
64.2873
64.3964
64.5044
64.6113
64.7172
64.8218
64.9255
65.0277
65.1293
65.2285
65.3292
65.4225
65.5293
65.6012
65.7543
67.2037
67.2018
67.1978
67.1919
67.1838
67.1738
67.1617
67.1476
67.1314
67.1131
67.0927
67.0701
67.0454
67.0184
66.9892
66.9578
66.924
66.8879
66.8494
66.8084
66.765
66.7192
66.6707
66.6197
66.5661
66.5099
66.451
66.3894
66.3251
66.2581
66.1883
66.1158
66.0406
65.9626
65.8819
65.7985
65.7124
65.6238
65.5325
65.4388
65.3427
65.2442
65.1435
65.0406
64.9357
64.829
64.7205
64.6103
64.4987
64.3858
64.2718
64.1567
64.0409
63.9244
63.8075
63.6903
63.5729
63.4556
63.3386
63.2219
63.1057
62.9901
62.8754
62.7616
62.6489
62.5373
62.4269
62.318
62.2104
62.1044
61.9999
61.8971
61.7959
61.6964
61.5987
61.5027
61.4084
61.3159
61.2251
61.1361
61.0488
60.9631
60.8791
60.7968
60.716
60.6368
60.5591
60.4828
60.408
60.3345
60.2623
60.1913
60.1215
60.0529
59.9853
59.9188
59.8533
59.7886
59.7249
59.662
59.5999
59.5385
59.4779
59.4179
59.3586
59.2999
59.2417
59.1842
59.1272
59.0707
59.0147
58.9593
58.9044
58.85
58.7961
58.7427
58.6899
58.6376
58.5859
58.5347
58.4842
58.4343
58.3851
58.3366
58.2888
58.2417
58.1955
58.1501
58.1056
58.062
58.0194
57.9778
57.9373
57.8979
57.8596
57.8225
57.7867
57.7522
57.719
57.6872
57.6568
57.628
57.6006
57.5748
57.5506
57.5281
57.5073
57.4882
57.4709
57.4554
57.4417
57.43
57.4201
57.4123
57.4063
57.4025
57.4006
57.4008
57.4031
57.4076
57.4142
57.4229
57.4339
57.4471
57.4625
57.4801
57.5
57.5222
57.5467
57.5735
57.6026
57.6341
57.6679
57.704
57.7425
57.7834
57.8266
57.8723
57.9202
57.9706
58.0234
58.0785
58.1359
58.1958
58.258
58.3225
58.3894
58.4586
58.5301
58.6039
58.68
58.7583
58.8388
58.9215
59.0063
59.0933
59.1823
59.2734
59.3665
59.4616
59.5585
59.6573
59.7579
59.8602
59.9642
60.0698
60.177
60.2856
60.3956
60.507
60.6196
60.7333
60.8481
60.964
61.0807
61.1983
61.3166
61.4355
61.555
61.675
61.7954
61.916
62.0369
62.1579
62.2789
62.3999
62.5207
62.6413
62.7616
62.8816
63.0011
63.1201
63.2385
63.3562
63.4733
63.5896
63.7051
63.8197
63.9334
64.0461
64.1579
64.2686
64.3783
64.4868
64.5943
64.7006
64.8057
64.9098
65.0124
65.1144
65.214
65.3151
65.4086
65.5158
65.588
65.7415
67.2037
67.2018
67.1979
67.1919
67.184
67.174
67.162
67.148
67.1319
67.1137
67.0934
67.071
67.0463
67.0195
66.9904
66.9591
66.9254
66.8894
66.851
66.8101
66.7668
66.7209
66.6725
66.6214
66.5677
66.5114
66.4523
66.3905
66.3259
66.2585
66.1883
66.1153
66.0394
65.9608
65.8794
65.7952
65.7082
65.6186
65.5263
65.4314
65.334
65.2342
65.1321
65.0277
64.9213
64.8129
64.7028
64.5909
64.4776
64.3629
64.2471
64.1302
64.0126
63.8943
63.7756
63.6567
63.5377
63.4187
63.3
63.1818
63.0641
62.9472
62.8312
62.7162
62.6023
62.4897
62.3784
62.2686
62.1603
62.0536
61.9485
61.8452
61.7436
61.6438
61.5458
61.4496
61.3553
61.2628
61.172
61.0831
60.996
60.9105
60.8268
60.7448
60.6644
60.5855
60.5082
60.4324
60.3579
60.2849
60.2131
60.1426
60.0733
60.0052
59.9381
59.872
59.8069
59.7427
59.6794
59.6168
59.5551
59.4941
59.4337
59.374
59.3149
59.2564
59.1985
59.1411
59.0842
59.0278
58.9719
58.9165
58.8616
58.8071
58.7531
58.6996
58.6467
58.5942
58.5423
58.4909
58.4401
58.3899
58.3404
58.2915
58.2434
58.196
58.1493
58.1036
58.0586
58.0146
57.9716
57.9295
57.8886
57.8487
57.81
57.7724
57.7361
57.7012
57.6675
57.6353
57.6045
57.5751
57.5473
57.5211
57.4965
57.4736
57.4524
57.4329
57.4152
57.3993
57.3853
57.3732
57.3631
57.3548
57.3486
57.3444
57.3423
57.3423
57.3443
57.3485
57.3549
57.3634
57.3742
57.3871
57.4024
57.4198
57.4396
57.4616
57.486
57.5126
57.5417
57.573
57.6067
57.6428
57.6812
57.7221
57.7653
57.8109
57.8589
57.9092
57.962
58.0172
58.0747
58.1347
58.197
58.2616
58.3287
58.398
58.4697
58.5438
58.6201
58.6986
58.7794
58.8625
58.9477
59.035
59.1245
59.2161
59.3097
59.4052
59.5027
59.6021
59.7033
59.8063
59.911
60.0173
60.1252
60.2346
60.3454
60.4576
60.571
60.6857
60.8014
60.9182
61.0358
61.1544
61.2736
61.3936
61.5141
61.6351
61.7565
61.8782
62
62.122
62.2441
62.366
62.4878
62.6094
62.7307
62.8516
62.9721
63.092
63.2113
63.3299
63.4478
63.565
63.6812
63.7966
63.911
64.0245
64.1369
64.2483
64.3586
64.4677
64.5757
64.6826
64.7882
64.8927
64.9958
65.0982
65.1982
65.2997
65.3936
65.5012
65.5736
65.7276
67.2037
67.2018
67.1979
67.192
67.1841
67.1743
67.1624
67.1484
67.1325
67.1144
67.0942
67.0719
67.0475
67.0208
66.9919
66.9607
66.9271
66.8912
66.8529
66.8121
66.7688
66.723
66.6746
66.6235
66.5697
66.5132
66.4539
66.3919
66.327
66.2592
66.1886
66.115
66.0386
65.9592
65.877
65.7919
65.704
65.6133
65.5198
65.4236
65.3249
65.2236
65.12
65.014
64.9059
64.7957
64.6837
64.57
64.4547
64.3381
64.2202
64.1014
63.9818
63.8615
63.7409
63.62
63.4991
63.3783
63.2579
63.138
63.0187
62.9003
62.7828
62.6664
62.5513
62.4376
62.3253
62.2145
62.1054
61.998
61.8923
61.7885
61.6865
61.5863
61.4881
61.3918
61.2974
61.2048
61.1142
61.0254
60.9385
60.8533
60.7699
60.6882
60.6082
60.5298
60.4529
60.3776
60.3037
60.2311
60.1599
60.0899
60.0212
59.9535
59.8869
59.8214
59.7568
59.6931
59.6302
59.5681
59.5068
59.4461
59.3861
59.3267
59.2679
59.2097
59.152
59.0947
59.038
58.9817
58.9258
58.8704
58.8155
58.761
58.7069
58.6533
58.6001
58.5475
58.4953
58.4437
58.3926
58.3421
58.2923
58.243
58.1945
58.1467
58.0996
58.0534
58.008
57.9635
57.92
57.8775
57.836
57.7956
57.7564
57.7184
57.6816
57.6461
57.612
57.5792
57.5479
57.5181
57.4899
57.4632
57.4381
57.4147
57.3931
57.3732
57.3551
57.3388
57.3244
57.3119
57.3014
57.2928
57.2863
57.2818
57.2793
57.279
57.2808
57.2847
57.2908
57.2991
57.3096
57.3224
57.3374
57.3547
57.3743
57.3961
57.4203
57.4469
57.4758
57.507
57.5406
57.5766
57.615
57.6557
57.6989
57.7445
57.7925
57.8428
57.8956
57.9509
58.0085
58.0685
58.1309
58.1957
58.2629
58.3325
58.4044
58.4786
58.5552
58.634
58.7152
58.7985
58.8841
58.9719
59.0618
59.1539
59.248
59.3441
59.4422
59.5422
59.6441
59.7478
59.8532
59.9603
60.069
60.1792
60.2909
60.404
60.5184
60.634
60.7507
60.8684
60.9872
61.1067
61.2271
61.3481
61.4697
61.5918
61.7143
61.8371
61.9601
62.0832
62.2063
62.3294
62.4523
62.575
62.6973
62.8193
62.9407
63.0616
63.1819
63.3015
63.4203
63.5383
63.6555
63.7717
63.8869
64.0012
64.1143
64.2264
64.3373
64.4471
64.5557
64.6632
64.7693
64.8744
64.978
65.0808
65.1812
65.2832
65.3774
65.4854
65.558
65.7125
67.2037
67.2018
67.198
67.1922
67.1843
67.1745
67.1627
67.1489
67.1331
67.1152
67.0952
67.0731
67.0488
67.0223
66.9935
66.9625
66.9291
66.8933
66.8552
66.8145
66.7713
66.7255
66.6771
66.626
66.5721
66.5155
66.4561
66.3938
66.3286
66.2604
66.1893
66.1152
66.0381
65.958
65.8749
65.7889
65.6999
65.608
65.5133
65.4157
65.3155
65.2126
65.1073
64.9995
64.8895
64.7774
64.6634
64.5476
64.4302
64.3114
64.1913
64.0703
63.9485
63.826
63.7032
63.5802
63.4572
63.3345
63.2121
63.0903
62.9693
62.8492
62.7302
62.6124
62.4959
62.3809
62.2675
62.1558
62.0458
61.9376
61.8313
61.7269
61.6245
61.524
61.4255
61.3291
61.2346
61.1421
61.0516
60.963
60.8763
60.7915
60.7084
60.6272
60.5476
60.4697
60.3934
60.3186
60.2452
60.1733
60.1027
60.0333
59.9651
59.8981
59.8321
59.7671
59.7031
59.6399
59.5775
59.5159
59.4551
59.3948
59.3352
59.2762
59.2177
59.1598
59.1023
59.0452
58.9886
58.9325
58.8767
58.8213
58.7663
58.7118
58.6576
58.6039
58.5505
58.4977
58.4453
58.3934
58.342
58.2911
58.2409
58.1913
58.1423
58.0941
58.0465
57.9998
57.954
57.909
57.8649
57.8219
57.7799
57.7389
57.6992
57.6606
57.6233
57.5872
57.5525
57.5193
57.4874
57.4571
57.4283
57.4011
57.3756
57.3517
57.3296
57.3092
57.2907
57.274
57.2592
57.2463
57.2354
57.2265
57.2195
57.2147
57.2119
57.2113
57.2128
57.2164
57.2222
57.2303
57.2405
57.2531
57.2679
57.2849
57.3043
57.326
57.35
57.3764
57.4052
57.4363
57.4698
57.5057
57.544
57.5847
57.6278
57.6733
57.7213
57.7717
57.8245
57.8797
57.9374
57.9975
58.06
58.125
58.1923
58.262
58.3342
58.4086
58.4855
58.5646
58.6461
58.7298
58.8158
58.9041
58.9945
59.087
59.1817
59.2784
59.3771
59.4778
59.5804
59.6848
59.791
59.8989
60.0085
60.1196
60.2322
60.3463
60.4617
60.5783
60.6961
60.8149
60.9347
61.0554
61.1769
61.2991
61.4219
61.5452
61.6689
61.7929
61.9171
62.0414
62.1658
62.29
62.4141
62.5379
62.6614
62.7845
62.9071
63.0291
63.1504
63.271
63.3909
63.5099
63.6279
63.745
63.8611
63.9762
64.0902
64.203
64.3146
64.4251
64.5344
64.6424
64.7492
64.8548
64.9589
65.0622
65.1631
65.2654
65.3601
65.4684
65.5414
65.6964
67.2037
67.2018
67.1981
67.1923
67.1845
67.1749
67.1632
67.1495
67.1338
67.1161
67.0963
67.0743
67.0502
67.0239
66.9954
66.9646
66.9314
66.8958
66.8578
66.8173
66.7742
66.7285
66.6801
66.629
66.5751
66.5184
66.4588
66.3963
66.3307
66.2622
66.1906
66.1159
66.0381
65.9573
65.8733
65.7862
65.6961
65.6029
65.5068
65.4078
65.3059
65.2013
65.0941
64.9844
64.8724
64.7581
64.6419
64.5238
64.404
64.2828
64.1604
64.0369
63.9127
63.7878
63.6627
63.5373
63.4121
63.2871
63.1626
63.0388
62.9159
62.794
62.6732
62.5539
62.436
62.3197
62.2051
62.0923
61.9813
61.8724
61.7654
61.6604
61.5576
61.4568
61.3581
61.2615
61.1671
61.0747
60.9843
60.8959
60.8096
60.7251
60.6425
60.5617
60.4827
60.4054
60.3297
60.2555
60.1828
60.1115
60.0416
59.9729
59.9054
59.8391
59.7737
59.7094
59.646
59.5834
59.5216
59.4606
59.4002
59.3404
59.2813