/*--------------------------------*- C++ -*----------------------------------*\
| =========                 |                                                 |
| \\      /  F ield         | OpenFOAM: The Open Source CFD Toolbox           |
|  \\    /   O peration     | Version:  2306                                  |
|   \\  /    A nd           | Website:  www.openfoam.com                      |
|    \\/     M anipulation  |                                                 |
\*---------------------------------------------------------------------------*/
FoamFile
{
    version     2.0;
    format      ascii;
    arch        "LSB;label=32;scalar=64";
    class       volScalarField;
    location    "11.5";
    object      p;
}
// * * * * * * * * * * * * * * * * * * * * * * * * * * * * * * * * * * * * * //

dimensions      [0 2 -2 0 0 0 0];

internalField   nonuniform List<scalar> 
32768
(
0.30635
0.306217
0.305928
0.305472
0.304852
0.304068
0.30312
0.302008
0.300728
0.29928
0.29766
0.295868
0.2939
0.291754
0.289428
0.286919
0.284223
0.281338
0.27826
0.274986
0.271514
0.267838
0.263957
0.259867
0.255564
0.251045
0.246308
0.241349
0.236166
0.230755
0.225115
0.219244
0.21314
0.206802
0.200229
0.193421
0.186378
0.1791
0.171589
0.163847
0.155876
0.147679
0.139261
0.130626
0.121779
0.112726
0.103474
0.0940304
0.0844029
0.0746005
0.0646324
0.0545086
0.0442396
0.0338364
0.0233102
0.0126729
0.0019365
-0.00888663
-0.019784
-0.0307431
-0.0417513
-0.0527961
-0.0638649
-0.0749456
-0.0860261
-0.0970949
-0.10814
-0.119152
-0.130119
-0.141032
-0.151882
-0.162659
-0.173356
-0.183965
-0.19448
-0.204894
-0.215201
-0.225398
-0.235481
-0.245444
-0.255287
-0.265006
-0.274601
-0.284069
-0.293411
-0.302627
-0.311716
-0.320681
-0.329522
-0.33824
-0.346839
-0.355319
-0.363684
-0.371936
-0.380079
-0.388114
-0.396045
-0.403875
-0.411606
-0.419243
-0.426788
-0.434243
-0.441611
-0.448896
-0.456098
-0.463221
-0.470266
-0.477236
-0.484131
-0.490952
-0.497701
-0.504378
-0.510984
-0.517518
-0.52398
-0.530369
-0.536685
-0.542926
-0.549091
-0.555178
-0.561184
-0.567108
-0.572946
-0.578696
-0.584354
-0.589917
-0.595381
-0.600742
-0.605996
-0.61114
-0.616167
-0.621075
-0.625858
-0.630511
-0.635029
-0.639409
-0.643644
-0.647729
-0.65166
-0.655431
-0.659038
-0.662475
-0.665738
-0.668822
-0.671721
-0.674432
-0.67695
-0.679269
-0.681387
-0.683298
-0.684999
-0.686485
-0.687754
-0.688802
-0.689624
-0.690219
-0.690583
-0.690714
-0.690609
-0.690265
-0.689681
-0.688855
-0.687785
-0.686469
-0.684908
-0.683098
-0.681041
-0.678735
-0.676181
-0.673378
-0.670326
-0.667027
-0.66348
-0.659687
-0.65565
-0.651369
-0.646847
-0.642085
-0.637086
-0.631853
-0.626389
-0.620696
-0.614778
-0.608638
-0.602282
-0.595712
-0.588935
-0.581953
-0.574773
-0.567399
-0.559838
-0.552096
-0.544178
-0.53609
-0.527841
-0.519435
-0.510882
-0.502187
-0.493359
-0.484405
-0.475334
-0.466152
-0.45687
-0.447494
-0.438033
-0.428497
-0.418893
-0.40923
-0.399517
-0.389762
-0.379975
-0.370163
-0.360335
-0.3505
-0.340666
-0.330841
-0.321033
-0.311249
-0.301498
-0.291786
-0.28212
-0.272508
-0.262955
-0.253469
-0.244053
-0.234715
-0.22546
-0.216291
-0.207215
-0.198234
-0.189352
-0.180574
-0.171901
-0.163338
-0.154885
-0.146546
-0.138321
-0.130213
-0.122223
-0.11435
-0.106596
-0.0989616
-0.0914459
-0.0840491
-0.0767706
-0.0696101
-0.0625662
-0.0556395
-0.0488251
-0.0421305
-0.0355347
-0.0290811
-0.0226647
-0.016519
-0.0100729
-0.00449405
0.30651
0.306378
0.306089
0.305634
0.305013
0.30423
0.303284
0.302172
0.300893
0.299445
0.297827
0.296036
0.294069
0.291925
0.2896
0.287092
0.284397
0.281513
0.278436
0.275163
0.271692
0.268017
0.264136
0.260046
0.255744
0.251225
0.246487
0.241527
0.236342
0.23093
0.225289
0.219415
0.213308
0.206967
0.20039
0.193577
0.186528
0.179245
0.171727
0.163978
0.156
0.147795
0.139368
0.130723
0.121866
0.112803
0.10354
0.094085
0.0844457
0.0746312
0.0646506
0.0545142
0.0442323
0.0338161
0.0232769
0.0126267
0.00187743
-0.0089584
-0.0198683
-0.0308395
-0.0418595
-0.0529156
-0.0639954
-0.0750864
-0.0861768
-0.0972547
-0.108309
-0.119328
-0.130303
-0.141222
-0.152078
-0.16286
-0.173561
-0.184174
-0.194691
-0.205107
-0.215417
-0.225615
-0.235697
-0.245661
-0.255503
-0.265221
-0.274813
-0.284279
-0.293618
-0.302831
-0.311917
-0.320877
-0.329714
-0.338428
-0.347023
-0.355498
-0.363859
-0.372106
-0.380244
-0.388274
-0.396201
-0.404026
-0.411753
-0.419386
-0.426926
-0.434377
-0.441742
-0.449023
-0.456222
-0.463342
-0.470384
-0.477351
-0.484244
-0.491063
-0.497811
-0.504487
-0.511092
-0.517625
-0.524087
-0.530476
-0.536793
-0.543035
-0.5492
-0.555288
-0.561296
-0.567222
-0.573062
-0.578814
-0.584475
-0.59004
-0.595507
-0.600871
-0.606129
-0.611276
-0.616307
-0.621218
-0.626005
-0.630661
-0.635184
-0.639567
-0.643806
-0.647895
-0.65183
-0.655606
-0.659217
-0.662658
-0.665925
-0.669012
-0.671916
-0.67463
-0.677151
-0.679474
-0.681595
-0.68351
-0.685214
-0.686704
-0.687976
-0.689026
-0.689852
-0.69045
-0.690817
-0.69095
-0.690847
-0.690506
-0.689924
-0.6891
-0.688032
-0.686718
-0.685158
-0.683351
-0.681295
-0.678991
-0.676438
-0.673636
-0.670585
-0.667287
-0.663741
-0.659949
-0.655912
-0.651632
-0.64711
-0.642348
-0.63735
-0.632117
-0.626652
-0.620959
-0.61504
-0.6089
-0.602543
-0.595972
-0.589193
-0.58221
-0.575028
-0.567653
-0.56009
-0.552345
-0.544424
-0.536334
-0.528082
-0.519674
-0.511117
-0.502419
-0.493587
-0.484629
-0.475553
-0.466368
-0.45708
-0.4477
-0.438234
-0.428693
-0.419083
-0.409415
-0.399697
-0.389937
-0.380143
-0.370326
-0.360492
-0.350652
-0.340811
-0.33098
-0.321166
-0.311377
-0.301619
-0.291901
-0.28223
-0.272612
-0.263053
-0.253561
-0.24414
-0.234797
-0.225536
-0.216363
-0.207281
-0.198296
-0.18941
-0.180627
-0.17195
-0.163383
-0.154926
-0.146584
-0.138356
-0.130245
-0.122251
-0.114376
-0.106619
-0.0989822
-0.0914643
-0.0840654
-0.076785
-0.0696228
-0.0625772
-0.055649
-0.0488331
-0.0421374
-0.0355398
-0.029086
-0.0226655
-0.0165235
-0.0100617
-0.00451466
0.306832
0.3067
0.306412
0.305957
0.305337
0.304555
0.30361
0.3025
0.301223
0.299778
0.298161
0.296372
0.294408
0.292266
0.289944
0.287438
0.284745
0.281864
0.278789
0.275518
0.272048
0.268375
0.264495
0.260406
0.256104
0.251584
0.246846
0.241884
0.236697
0.231282
0.225636
0.219758
0.213645
0.207296
0.200711
0.193889
0.18683
0.179535
0.172005
0.164242
0.156248
0.148027
0.139582
0.130919
0.122042
0.112958
0.103673
0.0941947
0.0845317
0.0746927
0.0646872
0.0545253
0.0442176
0.0337754
0.0232101
0.0125338
0.00175873
-0.00910259
-0.0200375
-0.0310331
-0.0420768
-0.0531558
-0.0642574
-0.0753693
-0.0864793
-0.0975758
-0.108647
-0.119682
-0.130671
-0.141604
-0.152471
-0.163263
-0.173973
-0.184593
-0.195116
-0.205537
-0.215849
-0.226049
-0.236132
-0.246095
-0.255935
-0.26565
-0.275238
-0.2847
-0.294033
-0.303239
-0.312318
-0.321271
-0.3301
-0.338806
-0.347391
-0.355858
-0.364209
-0.372447
-0.380575
-0.388596
-0.396513
-0.404329
-0.412047
-0.419671
-0.427203
-0.434646
-0.442003
-0.449277
-0.456469
-0.463583
-0.47062
-0.477582
-0.484471
-0.491286
-0.498031
-0.504704
-0.511307
-0.51784
-0.524301
-0.530691
-0.537008
-0.543251
-0.549419
-0.555509
-0.561521
-0.56745
-0.573294
-0.579051
-0.584716
-0.590287
-0.59576
-0.60113
-0.606395
-0.611548
-0.616586
-0.621505
-0.626299
-0.630963
-0.635494
-0.639885
-0.644132
-0.648229
-0.652172
-0.655955
-0.659574
-0.663024
-0.666298
-0.669394
-0.672304
-0.675027
-0.677555
-0.679885
-0.682013
-0.683935
-0.685646
-0.687142
-0.68842
-0.689477
-0.690308
-0.690912
-0.691284
-0.691422
-0.691325
-0.690988
-0.690411
-0.689591
-0.688527
-0.687217
-0.685661
-0.683857
-0.681804
-0.679503
-0.676953
-0.674153
-0.671105
-0.667808
-0.664264
-0.660474
-0.656438
-0.652159
-0.647638
-0.642877
-0.637878
-0.632645
-0.62718
-0.621485
-0.615566
-0.609424
-0.603065
-0.596493
-0.589711
-0.582725
-0.57554
-0.568161
-0.560594
-0.552844
-0.544919
-0.536824
-0.528565
-0.520151
-0.511588
-0.502882
-0.494043
-0.485078
-0.475993
-0.466799
-0.457503
-0.448113
-0.438638
-0.429086
-0.419466
-0.409787
-0.400058
-0.390286
-0.380482
-0.370653
-0.360807
-0.350955
-0.341103
-0.331259
-0.321433
-0.311632
-0.301862
-0.292133
-0.282449
-0.27282
-0.26325
-0.253747
-0.244315
-0.234961
-0.22569
-0.216506
-0.207415
-0.19842
-0.189525
-0.180733
-0.172049
-0.163473
-0.155009
-0.146659
-0.138425
-0.130307
-0.122308
-0.114427
-0.106666
-0.0990236
-0.0915012
-0.0840982
-0.0768139
-0.0696481
-0.0625993
-0.055668
-0.0488493
-0.0421509
-0.0355508
-0.0290949
-0.0226714
-0.0165285
-0.0100632
-0.00452289
0.307314
0.307182
0.306895
0.306441
0.305823
0.305043
0.3041
0.302992
0.301718
0.300275
0.298662
0.296877
0.294916
0.292778
0.290459
0.287957
0.285268
0.28239
0.279319
0.276051
0.272583
0.268912
0.265035
0.260946
0.256644
0.252124
0.247384
0.24242
0.23723
0.23181
0.226158
0.220272
0.214151
0.207792
0.201194
0.194359
0.187284
0.179972
0.172422
0.164638
0.156622
0.148376
0.139905
0.131213
0.122306
0.11319
0.103872
0.0943594
0.0846607
0.074785
0.0647418
0.0545415
0.0441949
0.0337135
0.0231089
0.0123933
0.00157933
-0.00932039
-0.0202929
-0.0313254
-0.0424047
-0.053518
-0.0646526
-0.0757958
-0.0869355
-0.0980596
-0.109157
-0.120216
-0.131226
-0.142179
-0.153063
-0.16387
-0.174593
-0.185224
-0.195756
-0.206183
-0.2165
-0.226702
-0.236786
-0.246748
-0.256585
-0.266295
-0.275878
-0.285332
-0.294657
-0.303853
-0.312922
-0.321863
-0.33068
-0.339372
-0.347944
-0.356397
-0.364734
-0.372958
-0.381071
-0.389078
-0.396981
-0.404783
-0.412487
-0.420098
-0.427617
-0.435048
-0.442394
-0.449657
-0.45684
-0.463945
-0.470973
-0.477928
-0.48481
-0.49162
-0.49836
-0.50503
-0.51163
-0.518161
-0.524621
-0.531011
-0.53733
-0.543575
-0.549746
-0.55584
-0.561856
-0.567791
-0.573641
-0.579405
-0.585078
-0.590657
-0.596139
-0.601519
-0.606793
-0.611956
-0.617005
-0.621935
-0.62674
-0.631416
-0.635959
-0.640362
-0.64462
-0.64873
-0.652685
-0.65648
-0.660111
-0.663572
-0.666859
-0.669966
-0.672888
-0.675622
-0.678161
-0.680503
-0.682641
-0.684573
-0.686294
-0.6878
-0.689088
-0.690153
-0.690994
-0.691605
-0.691986
-0.692132
-0.692042
-0.691712
-0.691142
-0.690328
-0.689271
-0.687967
-0.686416
-0.684617
-0.682569
-0.680272
-0.677726
-0.67493
-0.671885
-0.668591
-0.66505
-0.661262
-0.657228
-0.65295
-0.64843
-0.64367
-0.638671
-0.633438
-0.627972
-0.622277
-0.616356
-0.610212
-0.60385
-0.597274
-0.590489
-0.583499
-0.576309
-0.568924
-0.561351
-0.553595
-0.545662
-0.537559
-0.529292
-0.520868
-0.512295
-0.503579
-0.494729
-0.485751
-0.476655
-0.467448
-0.458138
-0.448734
-0.439244
-0.429677
-0.420041
-0.410346
-0.4006
-0.390812
-0.38099
-0.371143
-0.361281
-0.35141
-0.34154
-0.331679
-0.321835
-0.312015
-0.302228
-0.29248
-0.282779
-0.273132
-0.263545
-0.254025
-0.244577
-0.235207
-0.22592
-0.216722
-0.207616
-0.198606
-0.189698
-0.180893
-0.172196
-0.163609
-0.155134
-0.146773
-0.138529
-0.130401
-0.122393
-0.114504
-0.106735
-0.0990855
-0.0915563
-0.0841471
-0.0768571
-0.069686
-0.0626322
-0.0556964
-0.0488735
-0.0421713
-0.0355674
-0.0291082
-0.0226814
-0.0165363
-0.0100676
-0.00452716
0.307957
0.307825
0.307538
0.307086
0.30647
0.305693
0.304753
0.303648
0.302378
0.300939
0.29933
0.297549
0.295594
0.29346
0.291146
0.288649
0.285966
0.283092
0.280025
0.276762
0.273298
0.26963
0.265754
0.261667
0.257366
0.252846
0.248104
0.243137
0.237942
0.232516
0.226856
0.220961
0.214827
0.208454
0.201841
0.194987
0.187892
0.180556
0.172981
0.165169
0.157122
0.148843
0.140336
0.131606
0.122659
0.113501
0.104138
0.0945795
0.0848329
0.0749078
0.0648141
0.0545623
0.0441635
0.0336294
0.022972
0.0122038
0.00133757
-0.00961367
-0.0206368
-0.0317185
-0.0428457
-0.054005
-0.0651837
-0.0763689
-0.0875482
-0.0987095
-0.109841
-0.120932
-0.131971
-0.14295
-0.153857
-0.164685
-0.175425
-0.18607
-0.196613
-0.207049
-0.217372
-0.227577
-0.237662
-0.247622
-0.257455
-0.267159
-0.276734
-0.286178
-0.295491
-0.304674
-0.313728
-0.322654
-0.331454
-0.340129
-0.348682
-0.357117
-0.365434
-0.373639
-0.381733
-0.389721
-0.397604
-0.405388
-0.413074
-0.420667
-0.42817
-0.435584
-0.442915
-0.450164
-0.457333
-0.464426
-0.471443
-0.478388
-0.485261
-0.492064
-0.498798
-0.505463
-0.51206
-0.518588
-0.525048
-0.531438
-0.537758
-0.544006
-0.550181
-0.556281
-0.562303
-0.568245
-0.574104
-0.579877
-0.58556
-0.59115
-0.596644
-0.602036
-0.607324
-0.612501
-0.617564
-0.622509
-0.627329
-0.632021
-0.636579
-0.640998
-0.645273
-0.649398
-0.65337
-0.657181
-0.660828
-0.664306
-0.667608
-0.67073
-0.673668
-0.676417
-0.678971
-0.681327
-0.68348
-0.685425
-0.68716
-0.688679
-0.689979
-0.691057
-0.691909
-0.692532
-0.692923
-0.69308
-0.693
-0.69268
-0.692118
-0.691314
-0.690264
-0.688968
-0.687424
-0.685632
-0.68359
-0.681299
-0.678758
-0.675968
-0.672927
-0.669638
-0.6661
-0.662314
-0.658283
-0.654007
-0.649489
-0.644729
-0.639732
-0.634498
-0.629031
-0.623334
-0.617411
-0.611265
-0.604899
-0.598319
-0.591529
-0.584533
-0.577337
-0.569945
-0.562364
-0.554599
-0.546656
-0.538542
-0.530264
-0.521828
-0.513241
-0.504511
-0.495646
-0.486653
-0.47754
-0.468315
-0.458987
-0.449564
-0.440054
-0.430467
-0.42081
-0.411094
-0.401326
-0.391515
-0.38167
-0.3718
-0.361914
-0.352019
-0.342125
-0.33224
-0.322371
-0.312527
-0.302716
-0.292945
-0.28322
-0.27355
-0.26394
-0.254397
-0.244927
-0.235536
-0.226228
-0.217009
-0.207883
-0.198855
-0.189928
-0.181106
-0.172393
-0.163789
-0.155299
-0.146924
-0.138666
-0.130527
-0.122506
-0.114606
-0.106826
-0.0991677
-0.0916296
-0.0842121
-0.0769144
-0.0697362
-0.0626759
-0.0557341
-0.0489056
-0.0421982
-0.0355895
-0.029126
-0.0226949
-0.0165465
-0.0100731
-0.00453137
0.308759
0.308628
0.308342
0.307892
0.307278
0.306504
0.305567
0.304467
0.303201
0.301768
0.300165
0.29839
0.29644
0.294313
0.292006
0.289515
0.286838
0.28397
0.280909
0.277651
0.274192
0.270528
0.266655
0.262571
0.25827
0.25375
0.249006
0.244035
0.238835
0.233401
0.227732
0.221824
0.215676
0.209286
0.202653
0.195776
0.188655
0.18129
0.173683
0.165836
0.15775
0.149429
0.140878
0.1321
0.123103
0.113891
0.104473
0.0948555
0.0850486
0.0750612
0.0649038
0.054587
0.0441223
0.0335218
0.0227978
0.0119633
0.00103121
-0.00998496
-0.0210717
-0.0322156
-0.0434029
-0.0546203
-0.0658544
-0.0770923
-0.0883214
-0.0995292
-0.110704
-0.121835
-0.132911
-0.143921
-0.154857
-0.16571
-0.176471
-0.187134
-0.197692
-0.208138
-0.218468
-0.228677
-0.238762
-0.24872
-0.258547
-0.268244
-0.277808
-0.287239
-0.296538
-0.305704
-0.314739
-0.323645
-0.332424
-0.341077
-0.349607
-0.358018
-0.366311
-0.374491
-0.382561
-0.390524
-0.398384
-0.406144
-0.413807
-0.421378
-0.428859
-0.436253
-0.443564
-0.450795
-0.457948
-0.465025
-0.472029
-0.478961
-0.485823
-0.492617
-0.499343
-0.506002
-0.512595
-0.51912
-0.525579
-0.53197
-0.538292
-0.544544
-0.550724
-0.55683
-0.56286
-0.568811
-0.574681
-0.580466
-0.586162
-0.591767
-0.597275
-0.602683
-0.607987
-0.613182
-0.618264
-0.623227
-0.628066
-0.632777
-0.637355
-0.641794
-0.646089
-0.650235
-0.654227
-0.658059
-0.661726
-0.665224
-0.668546
-0.671688
-0.674645
-0.677413
-0.679986
-0.68236
-0.684531
-0.686494
-0.688245
-0.68978
-0.691096
-0.692189
-0.693056
-0.693693
-0.694098
-0.694268
-0.6942
-0.693892
-0.693342
-0.692548
-0.691508
-0.690222
-0.688687
-0.686904
-0.68487
-0.682587
-0.680052
-0.677268
-0.674233
-0.670949
-0.667415
-0.663634
-0.659606
-0.655332
-0.650816
-0.646058
-0.64106
-0.635826
-0.630359
-0.62466
-0.618734
-0.612584
-0.606215
-0.59963
-0.592833
-0.58583
-0.578626
-0.571225
-0.563633
-0.555857
-0.547903
-0.539775
-0.531483
-0.523031
-0.514428
-0.505681
-0.496797
-0.487784
-0.47865
-0.469403
-0.460052
-0.450605
-0.441071
-0.431458
-0.421776
-0.412032
-0.402236
-0.392397
-0.382523
-0.372624
-0.362708
-0.352783
-0.342859
-0.332943
-0.323044
-0.31317
-0.303329
-0.293527
-0.283773
-0.274073
-0.264435
-0.254863
-0.245366
-0.235947
-0.226613
-0.217369
-0.208218
-0.199166
-0.190217
-0.181373
-0.172638
-0.164015
-0.155506
-0.147113
-0.138838
-0.130683
-0.122648
-0.114733
-0.106941
-0.0992699
-0.0917207
-0.0842928
-0.0769855
-0.0697985
-0.0627301
-0.0557808
-0.0489453
-0.0422316
-0.035617
-0.0291481
-0.0227116
-0.0165589
-0.01008
-0.00453618
0.309719
0.309589
0.309305
0.308857
0.308247
0.307476
0.306544
0.305449
0.304189
0.302762
0.301166
0.299398
0.297456
0.295336
0.293037
0.290554
0.287885
0.285025
0.281971
0.278719
0.275266
0.271607
0.267739
0.263657
0.259358
0.254837
0.250092
0.245117
0.23991
0.234468
0.228787
0.222865
0.2167
0.210289
0.203632
0.196728
0.189576
0.182177
0.174531
0.166641
0.158509
0.150138
0.141532
0.132697
0.123638
0.114362
0.104876
0.0951879
0.0853078
0.075245
0.0650102
0.0546146
0.0440701
0.0333891
0.0225844
0.0116693
0.000657421
-0.0104375
-0.0216014
-0.0328204
-0.0440806
-0.0553681
-0.0666693
-0.0779709
-0.08926
-0.100524
-0.111751
-0.12293
-0.134049
-0.145098
-0.156069
-0.166952
-0.177739
-0.188422
-0.198996
-0.209455
-0.219793
-0.230006
-0.240091
-0.250045
-0.259866
-0.269553
-0.279104
-0.288519
-0.297799
-0.306945
-0.315957
-0.324839
-0.333591
-0.342217
-0.350719
-0.359101
-0.367365
-0.375515
-0.383555
-0.391488
-0.399319
-0.40705
-0.414686
-0.422229
-0.429684
-0.437054
-0.444342
-0.451551
-0.458683
-0.465742
-0.472729
-0.479646
-0.486495
-0.493278
-0.499995
-0.506647
-0.513234
-0.519756
-0.526214
-0.532605
-0.53893
-0.545186
-0.551373
-0.557487
-0.563527
-0.56949
-0.575372
-0.581172
-0.586884
-0.592505
-0.598032
-0.603459
-0.608784
-0.614
-0.619103
-0.624089
-0.628951
-0.633686
-0.638288
-0.642751
-0.647071
-0.651242
-0.655258
-0.659115
-0.662807
-0.666328
-0.669675
-0.67284
-0.675821
-0.678612
-0.681207
-0.683603
-0.685795
-0.687779
-0.68955
-0.691106
-0.692441
-0.693552
-0.694437
-0.695091
-0.695512
-0.695698
-0.695645
-0.695351
-0.694815
-0.694034
-0.693006
-0.691732
-0.690208
-0.688434
-0.686411
-0.684136
-0.68161
-0.678833
-0.675805
-0.672527
-0.668999
-0.665222
-0.661198
-0.656928
-0.652413
-0.647657
-0.64266
-0.637426
-0.631957
-0.626256
-0.620327
-0.614174
-0.607799
-0.601208
-0.594404
-0.587392
-0.580178
-0.572767
-0.565163
-0.557374
-0.549405
-0.541262
-0.532952
-0.524482
-0.515859
-0.50709
-0.498184
-0.489147
-0.479988
-0.470715
-0.461337
-0.451862
-0.442298
-0.432654
-0.42294
-0.413163
-0.403334
-0.393461
-0.383552
-0.373617
-0.363665
-0.353704
-0.343744
-0.333791
-0.323856
-0.313945
-0.304067
-0.294229
-0.284439
-0.274704
-0.26503
-0.255425
-0.245894
-0.236442
-0.227076
-0.217801
-0.208621
-0.19954
-0.190563
-0.181693
-0.172933
-0.164286
-0.155754
-0.14734
-0.139044
-0.13087
-0.122816
-0.114886
-0.107077
-0.0993919
-0.0918292
-0.0843889
-0.0770702
-0.0698726
-0.0627944
-0.0558362
-0.0489925
-0.0422713
-0.0356495
-0.0291742
-0.0227315
-0.0165735
-0.0100883
-0.00454164
0.310839
0.310709
0.310427
0.309982
0.309375
0.308608
0.307682
0.306593
0.30534
0.30392
0.302332
0.300573
0.29864
0.29653
0.29424
0.291767
0.289107
0.286256
0.283211
0.279968
0.276522
0.272869
0.269006
0.264928
0.260631
0.256111
0.251363
0.246384
0.24117
0.235718
0.230024
0.224086
0.217901
0.211467
0.204782
0.197846
0.190658
0.183218
0.175527
0.167587
0.1594
0.150971
0.142302
0.133398
0.124267
0.114915
0.105349
0.0955775
0.0856109
0.075459
0.0651329
0.0546442
0.0440053
0.0332291
0.022329
0.0113188
0.000212707
-0.0109751
-0.02223
-0.0335377
-0.0448837
-0.0562538
-0.067634
-0.0790105
-0.0903702
-0.1017
-0.112988
-0.124223
-0.135393
-0.146488
-0.157499
-0.168416
-0.179233
-0.18994
-0.200533
-0.211006
-0.221353
-0.23157
-0.241655
-0.251604
-0.261416
-0.27109
-0.280624
-0.29002
-0.299278
-0.308399
-0.317384
-0.326236
-0.334958
-0.343551
-0.352019
-0.360366
-0.368596
-0.376711
-0.384715
-0.392614
-0.400409
-0.408107
-0.415709
-0.423221
-0.430645
-0.437986
-0.445246
-0.452429
-0.459538
-0.466574
-0.473541
-0.480441
-0.487275
-0.494045
-0.500751
-0.507394
-0.513976
-0.520494
-0.526951
-0.533343
-0.539671
-0.545933
-0.552127
-0.558251
-0.564303
-0.570279
-0.576177
-0.581993
-0.587724
-0.593366
-0.598914
-0.604365
-0.609713
-0.614954
-0.620083
-0.625095
-0.629986
-0.634748
-0.639378
-0.643871
-0.648219
-0.652419
-0.656464
-0.66035
-0.66407
-0.667621
-0.670995
-0.674189
-0.677197
-0.680014
-0.682636
-0.685058
-0.687275
-0.689284
-0.691079
-0.692657
-0.694015
-0.695148
-0.696053
-0.696727
-0.697168
-0.697371
-0.697336
-0.697059
-0.696539
-0.695773
-0.69476
-0.693499
-0.691988
-0.690227
-0.688214
-0.68595
-0.683433
-0.680665
-0.677645
-0.674374
-0.670853
-0.667081
-0.663062
-0.658796
-0.654284
-0.649529
-0.644534
-0.639299
-0.633829
-0.628126
-0.622194
-0.616036
-0.609655
-0.603057
-0.596245
-0.589223
-0.581998
-0.574574
-0.566957
-0.559152
-0.551166
-0.543004
-0.534674
-0.526183
-0.517537
-0.508744
-0.499811
-0.490746
-0.481558
-0.472255
-0.462844
-0.453335
-0.443737
-0.434057
-0.424305
-0.414491
-0.404622
-0.394709
-0.384759
-0.374783
-0.364788
-0.354785
-0.344781
-0.334786
-0.324807
-0.314853
-0.304932
-0.295051
-0.285219
-0.275442
-0.265728
-0.256082
-0.246511
-0.237022
-0.227618
-0.218307
-0.209092
-0.199977
-0.190968
-0.182066
-0.173277
-0.164601
-0.156043
-0.147603
-0.139284
-0.131087
-0.123013
-0.115062
-0.107236
-0.0995332
-0.0919548
-0.0845
-0.077168
-0.0699581
-0.0628687
-0.0559001
-0.0490469
-0.0423168
-0.035687
-0.0292043
-0.0227543
-0.0165903
-0.0100979
-0.0045477
0.312115
0.311986
0.311706
0.311264
0.310661
0.3099
0.30898
0.307898
0.306653
0.305243
0.303664
0.301915
0.299993
0.297894
0.295615
0.293153
0.290504
0.287665
0.28463
0.281396
0.27796
0.274315
0.270458
0.266385
0.262091
0.257571
0.252822
0.247839
0.242618
0.237155
0.231447
0.225491
0.219283
0.212822
0.206106
0.199134
0.191904
0.184418
0.176675
0.168678
0.160429
0.151931
0.143188
0.134207
0.124992
0.115551
0.105893
0.0960251
0.0859583
0.0757031
0.065271
0.0546743
0.0439259
0.0330394
0.0220287
0.0109083
-0.000307096
-0.0116025
-0.0229629
-0.0343732
-0.0458185
-0.057284
-0.0687553
-0.0802182
-0.0916591
-0.103065
-0.114423
-0.125722
-0.13695
-0.148097
-0.159154
-0.170111
-0.18096
-0.191695
-0.202309
-0.212796
-0.223153
-0.233374
-0.243457
-0.2534
-0.263201
-0.272859
-0.282375
-0.291748
-0.300979
-0.31007
-0.319023
-0.327841
-0.336525
-0.345081
-0.35351
-0.361817
-0.370005
-0.378079
-0.386042
-0.393899
-0.401655
-0.409313
-0.416877
-0.424351
-0.43174
-0.439047
-0.446275
-0.453429
-0.46051
-0.467521
-0.474465
-0.481345
-0.488161
-0.494916
-0.50161
-0.508244
-0.514818
-0.521333
-0.527788
-0.534182
-0.540514
-0.546782
-0.552985
-0.559121
-0.565186
-0.571178
-0.577094
-0.58293
-0.588683
-0.594348
-0.599922
-0.605399
-0.610775
-0.616045
-0.621204
-0.626247
-0.631169
-0.635964
-0.640627
-0.645152
-0.649534
-0.653768
-0.657846
-0.661766
-0.665519
-0.669103
-0.67251
-0.675736
-0.678775
-0.681624
-0.684276
-0.686728
-0.688974
-0.69101
-0.692833
-0.694438
-0.695821
-0.696978
-0.697907
-0.698605
-0.699067
-0.699292
-0.699277
-0.699019
-0.698517
-0.697769
-0.696773
-0.695527
-0.694031
-0.692283
-0.690283
-0.688031
-0.685526
-0.682768
-0.679757
-0.676495
-0.67298
-0.669216
-0.665202
-0.66094
-0.656431
-0.651679
-0.646684
-0.64145
-0.635979
-0.630273
-0.624337
-0.618174
-0.611787
-0.605181
-0.598359
-0.591327
-0.584089
-0.576651
-0.569018
-0.561196
-0.55319
-0.545007
-0.536655
-0.528139
-0.519466
-0.510645
-0.501682
-0.492586
-0.483364
-0.474025
-0.464578
-0.455031
-0.445392
-0.435671
-0.425877
-0.416018
-0.406104
-0.396144
-0.386148
-0.376123
-0.36608
-0.356028
-0.345975
-0.335929
-0.325901
-0.315897
-0.305926
-0.295997
-0.286116
-0.276291
-0.266529
-0.256836
-0.24722
-0.237686
-0.22824
-0.218886
-0.209631
-0.200477
-0.19143
-0.182493
-0.173669
-0.164961
-0.156372
-0.147903
-0.139557
-0.131334
-0.123235
-0.115262
-0.107415
-0.0996933
-0.092097
-0.0846256
-0.0772784
-0.0700546
-0.0629523
-0.0559719
-0.0491079
-0.042368
-0.035729
-0.029238
-0.0227799
-0.0166091
-0.0101087
-0.00455433
0.313547
0.31342
0.313142
0.312703
0.312106
0.311351
0.310438
0.309364
0.308129
0.306728
0.305161
0.303424
0.301513
0.299427
0.297162
0.294713
0.292078
0.289251
0.286229
0.283007
0.279581
0.275946
0.272097
0.26803
0.26374
0.259222
0.254472
0.249484
0.244256
0.238782
0.233058
0.227082
0.22085
0.214359
0.207608
0.200595
0.193319
0.18578
0.177979
0.169917
0.161597
0.153022
0.144196
0.135125
0.125815
0.116274
0.10651
0.0965316
0.0863503
0.075977
0.0654237
0.0547035
0.0438298
0.032817
0.0216798
0.0104333
-0.000906894
-0.0123253
-0.023806
-0.0353334
-0.0468919
-0.0584661
-0.070041
-0.0816021
-0.0931353
-0.104627
-0.116065
-0.127436
-0.13873
-0.149935
-0.161043
-0.172044
-0.18293
-0.193695
-0.204331
-0.214835
-0.225201
-0.235425
-0.245506
-0.25544
-0.265228
-0.274867
-0.28436
-0.293705
-0.302905
-0.311962
-0.320877
-0.329655
-0.338297
-0.346808
-0.355192
-0.363452
-0.371593
-0.379619
-0.387535
-0.395346
-0.403055
-0.410667
-0.418188
-0.42562
-0.432968
-0.440236
-0.447428
-0.454548
-0.461597
-0.46858
-0.475498
-0.482355
-0.489151
-0.495889
-0.502569
-0.509193
-0.515759
-0.52227
-0.528723
-0.535119
-0.541456
-0.547732
-0.553945
-0.560094
-0.566175
-0.572186
-0.578123
-0.583982
-0.58976
-0.595452
-0.601054
-0.606561
-0.611969
-0.617273
-0.622466
-0.627545
-0.632503
-0.637335
-0.642035
-0.646598
-0.651018
-0.65529
-0.659407
-0.663364
-0.667155
-0.670776
-0.67422
-0.677483
-0.680558
-0.683442
-0.686129
-0.688614
-0.690893
-0.692961
-0.694815
-0.69645
-0.697862
-0.699047
-0.700003
-0.700727
-0.701214
-0.701463
-0.70147
-0.701234
-0.700753
-0.700024
-0.699047
-0.697819
-0.696339
-0.694607
-0.692622
-0.690383
-0.687891
-0.685144
-0.682144
-0.678891
-0.675385
-0.671628
-0.66762
-0.663363
-0.658859
-0.654109
-0.649116
-0.643882
-0.63841
-0.632702
-0.626762
-0.620593
-0.614199
-0.607584
-0.600752
-0.593707
-0.586456
-0.579002
-0.571351
-0.563509
-0.555482
-0.547276
-0.538897
-0.530354
-0.521651
-0.512798
-0.503802
-0.49467
-0.48541
-0.476032
-0.466543
-0.456952
-0.447268
-0.4375
-0.427657
-0.417749
-0.407784
-0.397771
-0.387721
-0.377642
-0.367544
-0.357436
-0.347326
-0.337225
-0.327139
-0.317079
-0.307052
-0.297066
-0.28713
-0.27725
-0.267434
-0.257689
-0.248021
-0.238437
-0.228941
-0.21954
-0.210239
-0.201041
-0.191951
-0.182974
-0.174111
-0.165366
-0.156742
-0.14824
-0.139862
-0.13161
-0.123485
-0.115486
-0.107615
-0.0998716
-0.0922551
-0.0847651
-0.0774008
-0.0701613
-0.0630447
-0.0560513
-0.0491753
-0.0424244
-0.0357752
-0.029275
-0.0228081
-0.0166297
-0.0101205
-0.00456147
0.315134
0.315008
0.314733
0.314298
0.313706
0.312958
0.312054
0.31099
0.309765
0.308376
0.306822
0.305098
0.303202
0.301131
0.298881
0.296447
0.293827
0.291015
0.288008
0.2848
0.281386
0.277763
0.273924
0.269865
0.26558
0.261065
0.256315
0.251324
0.246087
0.240601
0.234862
0.228864
0.222605
0.216082
0.209293
0.202235
0.194907
0.18731
0.179444
0.171309
0.162909
0.154248
0.145328
0.136157
0.12674
0.117085
0.107201
0.0970983
0.0867875
0.0762805
0.06559
0.0547299
0.0437144
0.0325586
0.0212782
0.00988909
-0.00159239
-0.0131497
-0.0247664
-0.036426
-0.0481121
-0.0598088
-0.0715004
-0.0831718
-0.0948085
-0.106397
-0.117923
-0.129375
-0.140742
-0.152012
-0.163176
-0.174225
-0.185152
-0.195948
-0.206609
-0.21713
-0.227505
-0.237732
-0.247808
-0.257732
-0.267502
-0.27712
-0.286584
-0.295898
-0.305061
-0.314078
-0.32295
-0.331681
-0.340275
-0.348735
-0.357067
-0.365274
-0.373361
-0.381333
-0.389195
-0.396952
-0.404609
-0.41217
-0.419641
-0.427025
-0.434327
-0.441552
-0.448703
-0.455784
-0.462798
-0.469748
-0.476638
-0.483469
-0.490243
-0.496961
-0.503626
-0.510238
-0.516797
-0.523302
-0.529755
-0.536153
-0.542495
-0.54878
-0.555006
-0.56117
-0.567269
-0.573301
-0.579261
-0.585147
-0.590953
-0.596676
-0.602311
-0.607853
-0.613297
-0.618638
-0.62387
-0.628989
-0.633987
-0.638861
-0.643604
-0.648209
-0.652672
-0.656987
-0.661147
-0.665147
-0.668981
-0.672644
-0.676129
-0.679433
-0.682549
-0.685472
-0.688197
-0.69072
-0.693036
-0.69514
-0.697028
-0.698696
-0.700141
-0.701358
-0.702344
-0.703096
-0.703611
-0.703886
-0.703919
-0.703708
-0.703249
-0.702543
-0.701586
-0.700378
-0.698917
-0.697202
-0.695233
-0.69301
-0.690531
-0.687798
-0.68481
-0.681567
-0.678071
-0.674322
-0.670321
-0.66607
-0.661571
-0.656824
-0.651833
-0.646599
-0.641126
-0.635415
-0.629471
-0.623296
-0.616895
-0.61027
-0.603427
-0.59637
-0.589103
-0.581631
-0.573961
-0.566098
-0.558047
-0.549815
-0.541408
-0.532833
-0.524098
-0.51521
-0.506176
-0.497004
-0.487702
-0.478279
-0.468744
-0.459104
-0.44937
-0.439549
-0.429652
-0.419688
-0.409665
-0.399594
-0.389484
-0.379344
-0.369184
-0.359013
-0.34884
-0.338675
-0.328526
-0.318402
-0.308311
-0.298263
-0.288264
-0.278322
-0.268446
-0.258641
-0.248915
-0.239274
-0.229723
-0.220269
-0.210916
-0.201668
-0.192531
-0.183508
-0.174601
-0.165815
-0.157151
-0.148613
-0.1402
-0.131915
-0.123759
-0.115733
-0.107835
-0.100067
-0.0924283
-0.0849178
-0.0775345
-0.0702778
-0.0631454
-0.0561375
-0.0492484
-0.0424855
-0.0358253
-0.0293151
-0.0228385
-0.0166519
-0.0101333
-0.00456907
0.316875
0.31675
0.316478
0.316048
0.315462
0.314722
0.313827
0.312774
0.311561
0.310186
0.308646
0.306938
0.305058
0.303004
0.300771
0.298355
0.295753
0.292959
0.289968
0.286776
0.283378
0.279768
0.275941
0.271892
0.267614
0.263104
0.258354
0.25336
0.248117
0.242619
0.236862
0.230842
0.224554
0.217997
0.211165
0.204058
0.196674
0.189013
0.181074
0.17286
0.164371
0.155613
0.146589
0.137305
0.127768
0.117987
0.107969
0.0977266
0.0872704
0.0766132
0.0657687
0.0547514
0.0435766
0.0322603
0.020819
0.0092698
-0.00237015
-0.0140834
-0.0258524
-0.0376599
-0.0494887
-0.0613221
-0.0731438
-0.0849381
-0.0966898
-0.108385
-0.120009
-0.131551
-0.142997
-0.154339
-0.165565
-0.176666
-0.187636
-0.198467
-0.209153
-0.219691
-0.230074
-0.240302
-0.250372
-0.260282
-0.270032
-0.279623
-0.289055
-0.298331
-0.307453
-0.316423
-0.325245
-0.333923
-0.342462
-0.350865
-0.359137
-0.367284
-0.37531
-0.383221
-0.391022
-0.398719
-0.406317
-0.41382
-0.421234
-0.428565
-0.435815
-0.442991
-0.450096
-0.457134
-0.464109
-0.471024
-0.477881
-0.484683
-0.491432
-0.49813
-0.504778
-0.511377
-0.517927
-0.524428
-0.530879
-0.53728
-0.543629
-0.549925
-0.556165
-0.562346
-0.568466
-0.574521
-0.580509
-0.586424
-0.592262
-0.598019
-0.603691
-0.609272
-0.614756
-0.62014
-0.625416
-0.630579
-0.635624
-0.640544
-0.645334
-0.649987
-0.654498
-0.65886
-0.663068
-0.667116
-0.670998
-0.674707
-0.67824
-0.681589
-0.684749
-0.687716
-0.690485
-0.693049
-0.695406
-0.697549
-0.699476
-0.701181
-0.702662
-0.703913
-0.704933