/*--------------------------------*- C++ -*----------------------------------*\
| =========                 |                                                 |
| \\      /  F ield         | OpenFOAM: The Open Source CFD Toolbox           |
|  \\    /   O peration     | Version:  2306                                  |
|   \\  /    A nd           | Website:  www.openfoam.com                      |
|    \\/     M anipulation  |                                                 |
\*---------------------------------------------------------------------------*/
FoamFile
{
    version     2.0;
    format      ascii;
    arch        "LSB;label=32;scalar=64";
    class       surfaceScalarField;
    location    "11.5";
    object      phi;
}
// * * * * * * * * * * * * * * * * * * * * * * * * * * * * * * * * * * * * * //

dimensions      [0 3 -1 0 0 0 0];

oriented        oriented;

internalField   nonuniform List<scalar> 
65152
(
0.0062505
-5.02386e-07
0.00625201
-1.50908e-06
0.00625453
-2.51641e-06
0.00625805
-3.52547e-06
0.00626259
-4.53792e-06
0.00626815
-5.55483e-06
0.00627472
-6.57688e-06
0.00628233
-7.60479e-06
0.00629097
-8.63935e-06
0.00630065
-9.68132e-06
0.00631138
-1.07314e-05
0.00632317
-1.17901e-05
0.00633603
-1.2858e-05
0.00634996
-1.39356e-05
0.00636499
-1.50231e-05
0.00638111
-1.61207e-05
0.00639834
-1.72286e-05
0.00641668
-1.83468e-05
0.00643616
-1.9475e-05
0.00645677
-2.0613e-05
0.00647853
-2.17604e-05
0.00650145
-2.29165e-05
0.00652553
-2.40806e-05
0.00655078
-2.52518e-05
0.00657721
-2.64288e-05
0.00660482
-2.76106e-05
0.00663361
-2.87954e-05
0.0066636
-2.99818e-05
0.00669476
-3.11679e-05
0.00672712
-3.23516e-05
0.00676065
-3.35307e-05
0.00679535
-3.47029e-05
0.00683122
-3.58656e-05
0.00686823
-3.70161e-05
0.00690638
-3.81517e-05
0.00694565
-3.92693e-05
0.00698602
-4.03658e-05
0.00702746
-4.14383e-05
0.00706994
-4.24834e-05
0.00711344
-4.34979e-05
0.00715792
-4.44786e-05
0.00720334
-4.54222e-05
0.00724966
-4.63257e-05
0.00729685
-4.7186e-05
0.00734485
-4.8e-05
0.00739362
-4.8765e-05
0.00744309
-4.94784e-05
0.00749323
-5.01378e-05
0.00754397
-5.07409e-05
0.00759526
-5.12859e-05
0.00764703
-5.17711e-05
0.00769922
-5.21952e-05
0.00775178
-5.25572e-05
0.00780464
-5.28564e-05
0.00785773
-5.30925e-05
0.007911
-5.32654e-05
0.00796437
-5.33756e-05
0.0080178
-5.34238e-05
0.00807121
-5.34108e-05
0.00812454
-5.33381e-05
0.00817775
-5.32073e-05
0.00823077
-5.30203e-05
0.00828355
-5.27792e-05
0.00833604
-5.24865e-05
0.00838818
-5.21447e-05
0.00843994
-5.17568e-05
0.00849126
-5.13255e-05
0.00854212
-5.08541e-05
0.00859246
-5.03456e-05
0.00864227
-4.98034e-05
0.0086915
-4.92308e-05
0.00874013
-4.8631e-05
0.00878814
-4.80074e-05
0.0088355
-4.73633e-05
0.0088822
-4.67018e-05
0.00892823
-4.60263e-05
0.00897357
-4.53397e-05
0.00901821
-4.4645e-05
0.00906216
-4.39451e-05
0.0091054
-4.32427e-05
0.00914794
-4.25402e-05
0.00918978
-4.18403e-05
0.00923093
-4.1145e-05
0.00927138
-4.04564e-05
0.00931116
-3.97765e-05
0.00935027
-3.9107e-05
0.00938872
-3.84493e-05
0.00942652
-3.78048e-05
0.0094637
-3.71747e-05
0.00950025
-3.65599e-05
0.00953622
-3.59613e-05
0.0095716
-3.53795e-05
0.00960641
-3.48148e-05
0.00964068
-3.42676e-05
0.00967442
-3.37381e-05
0.00970764
-3.32261e-05
0.00974037
-3.27315e-05
0.00977263
-3.22541e-05
0.00980442
-3.17932e-05
0.00983577
-3.13484e-05
0.00986669
-3.0919e-05
0.00989719
-3.05042e-05
0.0099273
-3.0103e-05
0.00995701
-2.97146e-05
0.00998635
-2.93378e-05
0.0100153
-2.89716e-05
0.0100439
-2.86147e-05
0.0100722
-2.82659e-05
0.0101001
-2.79239e-05
0.0101277
-2.75874e-05
0.010155
-2.72551e-05
0.0101819
-2.69256e-05
0.0102085
-2.65976e-05
0.0102348
-2.62696e-05
0.0102607
-2.59403e-05
0.0102863
-2.56084e-05
0.0103116
-2.52725e-05
0.0103365
-2.49313e-05
0.0103611
-2.45836e-05
0.0103853
-2.42282e-05
0.0104092
-2.38638e-05
0.0104327
-2.34893e-05
0.0104558
-2.31036e-05
0.0104785
-2.27057e-05
0.0105008
-2.22946e-05
0.0105227
-2.18695e-05
0.0105441
-2.14294e-05
0.0105651
-2.09736e-05
0.0105856
-2.05014e-05
0.0106056
-2.00121e-05
0.0106251
-1.95052e-05
0.0106441
-1.89801e-05
0.0106625
-1.84365e-05
0.0106804
-1.78739e-05
0.0106977
-1.72921e-05
0.0107143
-1.66908e-05
0.0107304
-1.60698e-05
0.0107458
-1.54291e-05
0.0107606
-1.47686e-05
0.0107747
-1.40883e-05
0.0107881
-1.33883e-05
0.0108008
-1.26686e-05
0.0108127
-1.19294e-05
0.0108239
-1.11711e-05
0.0108343
-1.03936e-05
0.0108438
-9.59753e-06
0.0108526
-8.78303e-06
0.0108606
-7.9505e-06
0.0108677
-7.10035e-06
0.0108739
-6.23298e-06
0.0108793
-5.34885e-06
0.0108837
-4.44842e-06
0.0108872
-3.53219e-06
0.0108898
-2.60066e-06
0.0108915
-1.65435e-06
0.0108922
-6.93813e-07
0.0108919
2.80433e-07
0.0108906
1.2678e-06
0.0108884
2.26774e-06
0.0108851
3.27966e-06
0.0108808
4.30298e-06
0.0108755
5.33711e-06
0.0108691
6.38144e-06
0.0108616
7.43538e-06
0.0108531
8.49831e-06
0.0108436
9.56961e-06
0.0108329
1.06487e-05
0.0108212
1.17348e-05
0.0108084
1.28274e-05
0.0107944
1.39258e-05
0.0107794
1.50294e-05
0.0107633
1.61374e-05
0.010746
1.72492e-05
0.0107277
1.8364e-05
0.0107082
1.94812e-05
0.0106876
2.05999e-05
0.0106659
2.17194e-05
0.010643
2.28389e-05
0.0106191
2.39576e-05
0.010594
2.50747e-05
0.0105678
2.61892e-05
0.0105405
2.73003e-05
0.0105121
2.84071e-05
0.0104826
2.95085e-05
0.010452
3.06037e-05
0.0104203
3.16916e-05
0.0103875
3.27711e-05
0.0103537
3.38412e-05
0.0103188
3.49007e-05
0.0102828
3.59486e-05
0.0102458
3.69837e-05
0.0102078
3.80048e-05
0.0101688
3.90107e-05
0.0101288
4.00002e-05
0.0100879
4.09721e-05
0.0100459
4.19251e-05
0.0100031
4.2858e-05
0.0099593
4.37695e-05
0.00991464
4.46584e-05
0.00986912
4.55235e-05
0.00982275
4.63635e-05
0.00977558
4.71773e-05
0.00972761
4.79636e-05
0.00967889
4.87213e-05
0.00962944
4.94494e-05
0.0095793
5.01467e-05
0.00952848
5.08122e-05
0.00947704
5.14451e-05
0.009425
5.20443e-05
0.00937239
5.26091e-05
0.00931925
5.31387e-05
0.00926561
5.36325e-05
0.00921153
5.40899e-05
0.00915701
5.45103e-05
0.00910212
5.48934e-05
0.00904688
5.52388e-05
0.00899134
5.55464e-05
0.00893552
5.5816e-05
0.00887947
5.60476e-05
0.00882323
5.62413e-05
0.00876683
5.63973e-05
0.00871032
5.65159e-05
0.00865372
5.65974e-05
0.00859708
5.66425e-05
0.00854043
5.66516e-05
0.0084838
5.66255e-05
0.00842724
5.65649e-05
0.00837077
5.64706e-05
0.00831442
5.63437e-05
0.00825824
5.61851e-05
0.00820224
5.59959e-05
0.00814646
5.57772e-05
0.00809093
5.55303e-05
0.00803568
5.52563e-05
0.00798072
5.49565e-05
0.00792609
5.46323e-05
0.0078718
5.4285e-05
0.00781789
5.39159e-05
0.00776436
5.35264e-05
0.00771124
5.31179e-05
0.00765855
5.26917e-05
0.0076063
5.22492e-05
0.00755451
5.17917e-05
0.00750319
5.13205e-05
0.00745235
5.08369e-05
0.00740201
5.03422e-05
0.00735217
4.98372e-05
0.00730285
4.93239e-05
0.00725405
4.88016e-05
0.00720577
4.8275e-05
0.00715804
4.77372e-05
0.00711083
4.72037e-05
0.00706419
4.66469e-05
0.00701808
4.61068e-05
0.00697253
4.55449e-05
4.48957e-05
0.0062505
-1.00528e-06
0.00625201
-3.01635e-06
0.00625452
-5.02997e-06
0.00625805
-7.04804e-06
0.00626258
-9.0726e-06
0.00626813
-1.11057e-05
0.0062747
-1.3149e-05
0.0062823
-1.52042e-05
0.00629094
-1.72727e-05
0.00630061
-1.93562e-05
0.00631134
-2.14559e-05
0.00632312
-2.3573e-05
0.00633597
-2.57086e-05
0.0063499
-2.78635e-05
0.00636491
-3.00384e-05
0.00638103
-3.22338e-05
0.00639825
-3.44498e-05
0.00641659
-3.66864e-05
0.00643605
-3.89433e-05
0.00645666
-4.122e-05
0.00647842
-4.35156e-05
0.00650133
-4.58288e-05
0.00652541
-4.81581e-05
0.00655066
-5.05017e-05
0.00657709
-5.28573e-05
0.0066047
-5.52224e-05
0.0066335
-5.7594e-05
0.00666348
-5.99688e-05
0.00669466
-6.23432e-05
0.00672702
-6.47129e-05
0.00676056
-6.70737e-05
0.00679528
-6.94208e-05
0.00683116
-7.17491e-05
0.0068682
-7.40532e-05
0.00690638
-7.63274e-05
0.00694567
-7.85658e-05
0.00698607
-8.07622e-05
0.00702754
-8.29104e-05
0.00707006
-8.5004e-05
0.0071136
-8.70364e-05
0.00715812
-8.90011e-05
0.00720359
-9.08918e-05
0.00724997
-9.27019e-05
0.00729721
-9.44255e-05
0.00734526
-9.60565e-05
0.00739409
-9.75893e-05
0.00744363
-9.90186e-05
0.00749383
-0.00010034
0.00754464
-0.000101548
0.00759599
-0.000102639
0.00764783
-0.000103611
0.0077001
-0.000104461
0.00775273
-0.000105185
0.00780565
-0.000105784
0.00785882
-0.000106256
0.00791215
-0.000106602
0.0079656
-0.000106822
0.00801909
-0.000106917
0.00807257
-0.00010689
0.00812598
-0.000106743
0.00817925
-0.000106479
0.00823233
-0.000106103
0.00828517
-0.000105618
0.00833771
-0.00010503
0.00838991
-0.000104344
0.00844172
-0.000103565
0.00849309
-0.000102699
0.00854399
-0.000101753
0.00859438
-0.000100733
0.00864422
-9.96452e-05
0.00869349
-9.84965e-05
0.00874215
-9.72935e-05
0.00879019
-9.6043e-05
0.00883757
-9.47514e-05
0.0088843
-9.34252e-05
0.00893034
-9.2071e-05
0.0089757
-9.06947e-05
0.00902035
-8.93024e-05
0.00906431
-8.78997e-05
0.00910756
-8.64922e-05
0.0091501
-8.50848e-05
0.00919195
-8.36826e-05
0.00923309
-8.22898e-05
0.00927354
-8.09107e-05
0.00931332
-7.95491e-05
0.00935242
-7.82083e-05
0.00939086
-7.68915e-05
0.00942866
-7.56013e-05
0.00946582
-7.434e-05
0.00950237
-7.31096e-05
0.00953832
-7.19116e-05
0.00957369
-7.07473e-05
0.00960849
-6.96176e-05
0.00964275
-6.85231e-05
0.00967647
-6.74639e-05
0.00970969
-6.64401e-05
0.00974241
-6.54512e-05
0.00977465
-6.44966e-05
0.00980643
-6.35754e-05
0.00983777
-6.26864e-05
0.00986868
-6.18283e-05
0.00989917
-6.09994e-05
0.00992927
-6.01981e-05
0.00995898
-5.94222e-05
0.00998831
-5.86697e-05
0.0100173
-5.79383e-05
0.0100459
-5.72257e-05
0.0100742
-5.65293e-05
0.0101021
-5.58466e-05
0.0101297
-5.5175e-05
0.0101569
-5.45117e-05
0.0101838
-5.3854e-05
0.0102104
-5.31991e-05
0.0102367
-5.25445e-05
0.0102627
-5.18872e-05
0.0102883
-5.12246e-05
0.0103136
-5.05541e-05
0.0103385
-4.9873e-05
0.0103631
-4.91788e-05
0.0103873
-4.8469e-05
0.0104112
-4.77412e-05
0.0104347
-4.69932e-05
0.0104578
-4.62228e-05
0.0104806
-4.54279e-05
0.0105029
-4.46066e-05
0.0105248
-4.37571e-05
0.0105462
-4.28776e-05
0.0105672
-4.19666e-05
0.0105877
-4.10227e-05
0.0106078
-4.00447e-05
0.0106273
-3.90312e-05
0.0106463
-3.79815e-05
0.0106647
-3.68945e-05
0.0106826
-3.57695e-05
0.0107
-3.4606e-05
0.0107167
-3.34035e-05
0.0107328
-3.21616e-05
0.0107482
-3.08801e-05
0.010763
-2.9559e-05
0.0107771
-2.81982e-05
0.0107905
-2.67978e-05
0.0108032
-2.53582e-05
0.0108152
-2.38796e-05
0.0108264
-2.23624e-05
0.0108368
-2.08071e-05
0.0108464
-1.92144e-05
0.0108552
-1.75849e-05
0.0108632
-1.59193e-05
0.0108703
-1.42184e-05
0.0108765
-1.24831e-05
0.0108819
-1.07142e-05
0.0108864
-8.91269e-06
0.0108899
-7.07955e-06
0.0108925
-5.21579e-06
0.0108942
-3.32246e-06
0.0108949
-1.40063e-06
0.0108946
5.48576e-07
0.0108934
2.52407e-06
0.0108911
4.5247e-06
0.0108878
6.54931e-06
0.0108835
8.59673e-06
0.0108782
1.06658e-05
0.0108718
1.27552e-05
0.0108644
1.48639e-05
0.0108559
1.69906e-05
0.0108464
1.9134e-05
0.0108357
2.1293e-05
0.010824
2.34661e-05
0.0108112
2.56522e-05
0.0107972
2.78499e-05
0.0107822
3.00579e-05
0.0107661
3.22748e-05
0.0107488
3.44993e-05
0.0107305
3.67299e-05
0.010711
3.89652e-05
0.0106904
4.12036e-05
0.0106686
4.34436e-05
0.0106458
4.56837e-05
0.0106218
4.79222e-05
0.0105967
5.01573e-05
0.0105705
5.23875e-05
0.0105432
5.46109e-05
0.0105148
5.68255e-05
0.0104853
5.90296e-05
0.0104547
6.12212e-05
0.010423
6.33982e-05
0.0103902
6.55584e-05
0.0103563
6.76999e-05
0.0103214
6.98203e-05
0.0102854
7.19175e-05
0.0102484
7.3989e-05
0.0102104
7.60326e-05
0.0101714
7.80458e-05
0.0101313
8.00262e-05
0.0100903
8.19714e-05
0.0100484
8.38788e-05
0.0100055
8.5746e-05
0.0099617
8.75705e-05
0.00991701
8.93497e-05
0.00987145
9.10813e-05
0.00982505
9.27626e-05
0.00977784
9.43915e-05
0.00972984
9.59654e-05
0.00968108
9.74821e-05
0.00963159
9.89394e-05
0.0095814
0.000100335
0.00953054
0.000101667
0.00947906
0.000102934
0.00942697
0.000104133
0.00937431
0.000105264
0.00932113
0.000106324
0.00926745
0.000107312
0.00921331
0.000108227
0.00915875
0.000109069
0.00910381
0.000109835
0.00904852
0.000110526
0.00899293
0.000111142
0.00893706
0.000111681
0.00888096
0.000112144
0.00882467
0.000112531
0.00876823
0.000112843
0.00871166
0.00011308
0.00865502
0.000113243
0.00859833
0.000113332
0.00854163
0.00011335
0.00848496
0.000113297
0.00842835
0.000113175
0.00837184
0.000112985
0.00831545
0.00011273
0.00825922
0.000112412
0.00820319
0.000112032
0.00814737
0.000111594
0.0080918
0.000111098
0.00803651
0.000110549
0.00798152
0.000109948
0.00792685
0.000109298
0.00787253
0.000108602
0.00781859
0.000107863
0.00776503
0.000107082
0.00771188
0.000106264
0.00765917
0.00010541
0.00760689
0.000104524
0.00755508
0.000103607
0.00750373
0.000102663
0.00745287
0.000101695
0.00740251
0.000100704
0.00735266
9.96932e-05
0.00730332
9.86648e-05
0.0072545
9.76205e-05
0.00720621
9.6563e-05
0.00715845
9.54943e-05
0.00711124
9.44107e-05
0.00706455
9.33379e-05
0.00701847
9.21912e-05
0.00697276
9.12591e-05
8.96683e-05
0.0062505
-1.50685e-06
0.00625201
-4.52135e-06
0.00625452
-7.53973e-06
0.00625803
-1.0565e-05
0.00626256
-1.36002e-05
0.0062681
-1.66481e-05
0.00627467
-1.97114e-05
0.00628225
-2.27925e-05
0.00629088
-2.5894e-05
0.00630054
-2.90179e-05
0.00631125
-3.21664e-05
0.00632302
-3.53412e-05
0.00633585
-3.8544e-05
0.00634976
-4.1776e-05
0.00636476
-4.50382e-05
0.00638086
-4.83314e-05
0.00639807
-5.16559e-05
0.00641639
-5.50117e-05
0.00643585
-5.83983e-05
0.00645644
-6.18149e-05
0.00647819
-6.52601e-05
0.00650109
-6.87323e-05
0.00652516
-7.22291e-05
0.00655041
-7.57477e-05
0.00657683
-7.92849e-05
0.00660445
-8.28367e-05
0.00663325
-8.63987e-05
0.00666325
-8.9966e-05
0.00669444
-9.3533e-05
0.00672682
-9.70937e-05
0.00676039
-0.000100641
0.00679514
-0.000104169
0.00683106
-0.000107668
0.00686814
-0.000111132
0.00690636
-0.000114551
0.00694571
-0.000117917
0.00698617
-0.00012122
0.00702771
-0.00012445
0.0070703
-0.000127599
0.00711392
-0.000130656
0.00715853
-0.000133612
0.0072041
-0.000136456
0.00725058
-0.000139179
0.00729792
-0.000141772
0.00734609
-0.000144226
0.00739503
-0.000146532
0.0074447
-0.000148683
0.00749503
-0.00015067
0.00754597
-0.000152487
0.00759746
-0.000154129
0.00764944
-0.00015559
0.00770184
-0.000156867
0.00775461
-0.000157955
0.00780768
-0.000158855
0.00786099
-0.000159563
0.00791447
-0.000160081
0.00796806
-0.000160409
0.00802169
-0.000160549
0.0080753
-0.000160505
0.00812884
-0.00016028
0.00818224
-0.00015988
0.00823545
-0.00015931
0.00828841
-0.000158577
0.00834107
-0.000157688
0.00839337
-0.000156652
0.00844528
-0.000155476
0.00849676
-0.00015417
0.00854774
-0.000152742
0.00859821
-0.000151204
0.00864813
-0.000149563
0.00869747
-0.000147832
0.00874619
-0.000146019
0.00879429
-0.000144135
0.00884172
-0.000142189
0.00888849
-0.000140191
0.00893457
-0.000138152
0.00897996
-0.00013608
0.00902464
-0.000133984
0.00906861
-0.000131873
0.00911187
-0.000129755
0.00915443
-0.000127638
0.00919627
-0.000125529
0.00923742
-0.000123434
0.00927787
-0.00012136
0.00931763
-0.000119313
0.00935672
-0.000117298
0.00939515
-0.000115319
0.00943293
-0.000113381
0.00947007
-0.000111486
0.0095066
-0.000109638
0.00954253
-0.000107839
0.00957787
-0.000106092
0.00961265
-0.000104396
0.00964688
-0.000102754
0.00968059
-0.000101165
0.00971377
-9.96295e-05
0.00974647
-9.81467e-05
0.00977869
-9.67158e-05
0.00981045
-9.53352e-05
0.00984177
-9.40033e-05
0.00987266
-9.27179e-05
0.00990313
-9.14767e-05
0.00993321
-9.02769e-05
0.00996291
-8.91156e-05
0.00999223
-8.79895e-05
0.0100212
-8.68953e-05
0.0100498
-8.58293e-05
0.010078
-8.47878e-05
0.010106
-8.37669e-05
0.0101336
-8.27626e-05
0.0101608
-8.17709e-05
0.0101877
-8.07876e-05
0.0102144
-7.98087e-05
0.0102406
-7.88299e-05
0.0102666
-7.78472e-05
0.0102922
-7.68566e-05
0.0103175
-7.58539e-05
0.0103425
-7.48352e-05
0.0103671
-7.37968e-05
0.0103914
-7.27349e-05
0.0104153
-7.1646e-05
0.0104388
-7.05265e-05
0.010462
-6.93733e-05
0.0104847
-6.81833e-05
0.0105071
-6.69534e-05
0.010529
-6.5681e-05
0.0105505
-6.43635e-05
0.0105715
-6.29986e-05
0.0105921
-6.15842e-05
0.0106121
-6.01183e-05
0.0106317
-5.85992e-05
0.0106508
-5.70254e-05
0.0106693
-5.53955e-05
0.0106872
-5.37086e-05
0.0107046
-5.19637e-05
0.0107213
-5.016e-05
0.0107374
-4.82972e-05
0.0107529
-4.63748e-05
0.0107678
-4.43928e-05
0.0107819
-4.23511e-05
0.0107954
-4.025e-05
0.0108081
-3.80897e-05
0.0108201
-3.58709e-05
0.0108313
-3.35942e-05
0.0108418
-3.12602e-05
0.0108514
-2.887e-05
0.0108603
-2.64244e-05
0.0108683
-2.39247e-05
0.0108754
-2.13719e-05
0.0108817
-1.87674e-05
0.0108871
-1.61125e-05
0.0108916
-1.34086e-05
0.0108952
-1.06572e-05
0.0108978
-7.85979e-06
0.0108995
-5.01803e-06
0.0109003
-2.1334e-06
0.0109
7.92204e-07
0.0108988
3.75734e-06
0.0108966
6.76019e-06
0.0108933
9.79904e-06
0.010889
1.28721e-05
0.0108837
1.59777e-05
0.0108774
1.91139e-05
0.0108699
2.22789e-05
0.0108615
2.5471e-05
0.0108519
2.86882e-05
0.0108413
3.19286e-05
0.0108296
3.51905e-05
0.0108167
3.84718e-05
0.0108028
4.17705e-05
0.0107878
4.50847e-05
0.0107716
4.84124e-05
0.0107544
5.17514e-05
0.010736
5.50996e-05
0.0107165
5.84549e-05
0.0106959
6.1815e-05
0.0106742
6.51775e-05
0.0106513
6.85402e-05
0.0106274
7.19005e-05
0.0106023
7.5256e-05
0.010576
7.8604e-05
0.0105487
8.19419e-05
0.0105203
8.52668e-05
0.0104907
8.85759e-05
0.0104601
9.18663e-05
0.0104283
9.51348e-05
0.0103955
9.83785e-05
0.0103616
0.000101594
0.0103267
0.000104778
0.0102907
0.000107927
0.0102536
0.000111038
0.0102155
0.000114106
0.0101765
0.00011713
0.0101364
0.000120104
0.0100953
0.000123025
0.0100533
0.00012589
0.0100104
0.000128694
0.0099665
0.000131435
0.00992174
0.000134107
0.00987612
0.000136708
0.00982965
0.000139233
0.00978236
0.00014168
0.00973428
0.000144044
0.00968544
0.000146322
0.00963587
0.000148511
0.0095856
0.000150607
0.00953465
0.000152608
0.00948308
0.000154511
0.0094309
0.000156312
0.00937815
0.00015801
0.00932487
0.000159602
0.0092711
0.000161086
0.00921687
0.00016246
0.00916221
0.000163724
0.00910717
0.000164874
0.00905179
0.000165912
0.0089961
0.000166835
0.00894013
0.000167644
0.00888394
0.000168339
0.00882755
0.000168919
0.00877101
0.000169386
0.00871435
0.00016974
0.00865761
0.000169983
0.00860082
0.000170116
0.00854403
0.000170141
0.00848727
0.000170059
0.00843057
0.000169874
0.00837397
0.000169587
0.0083175
0.000169202
0.00826119
0.000168722
0.00820507
0.00016815
0.00814917
0.000167489
0.00809353
0.000166743
0.00803816
0.000165915
0.0079831
0.00016501
0.00792837
0.000164032
0.00787399
0.000162984
0.00781998
0.000161871
0.00776636
0.000160697
0.00771316
0.000159466
0.00766039
0.000158181
0.00760806
0.000156848
0.0075562
0.00015547
0.00750481
0.000154051
0.00745391
0.000152595
0.00740351
0.000151105
0.00735362
0.000149586
0.00730424
0.00014804
0.00725539
0.000146472
0.00720707
0.000144882
0.00715929
0.000143279
0.00711205
0.000141648
0.00706534
0.000140048
0.00701922
0.000138312
0.00697354
0.000136937
0.000134512
0.0062505
-2.00721e-06
0.006252
-6.02278e-06
0.00625451
-1.00435e-05
0.00625801
-1.40737e-05
0.00626253
-1.81172e-05
0.00626806
-2.21777e-05
0.00627461
-2.62589e-05
0.00628218
-3.03642e-05
0.00629078
-3.44968e-05
0.00630042
-3.86597e-05
0.00631111
-4.28556e-05
0.00632286
-4.70871e-05
0.00633567
-5.13562e-05
0.00634956
-5.56648e-05
0.00636454
-6.00143e-05
0.00638061
-6.44055e-05
0.00639779
-6.88391e-05
0.0064161
-7.3315e-05
0.00643553
-7.78326e-05
0.00645611
-8.2391e-05
0.00647784
-8.69883e-05
0.00650073
-9.16223e-05
0.00652479
-9.62899e-05
0.00655003
-0.000100987
0.00657645
-0.000105711
0.00660407
-0.000110454
0.00663288
-0.000115212
0.0066629
-0.000119978
0.00669411
-0.000124744
0.00672652
-0.000129503
0.00676012
-0.000134245
0.00679491
-0.000138961
0.00683088
-0.000143641
0.00686803
-0.000148273
0.00690632
-0.000152847
0.00694575
-0.000157349
0.0069863
-0.000161769
0.00702794
-0.000166092
0.00707065
-0.000170306
0.00711439
-0.000174399
0.00715914
-0.000178355
0.00720484
-0.000182163
0.00725147
-0.000185809
0.00729898
-0.000189281
0.00734732
-0.000192566
0.00739644
-0.000195654
0.00744629
-0.000198533
0.00749682
-0.000201193
0.00754796
-0.000203626
0.00759965
-0.000205823
0.00765184
-0.000207777
0.00770445
-0.000209485
0.00775744
-0.00021094
0.00781073
-0.00021214
0.00786425
-0.000213085
0.00791794
-0.000213774
0.00797174
-0.000214208
0.00802558
-0.00021439
0.0080794
-0.000214325
0.00813314
-0.000214018
0.00818673
-0.000213475
0.00824013
-0.000212705
0.00829327
-0.000211716
0.0083461
-0.000210519
0.00839857
-0.000209123
0.00845064
-0.000207541
0.00850225
-0.000205785
0.00855337
-0.000203866
0.00860397
-0.000201799
0.008654
-0.000199596
0.00870344
-0.000197272
0.00875226
-0.000194838
0.00880044
-0.00019231
0.00884795
-0.0001897
0.00889478
-0.000187022
0.00894092
-0.000184288
0.00898635
-0.00018151
0.00903106
-0.000178702
0.00907506
-0.000175874
0.00911835
-0.000173038
0.00916091
-0.000170203
0.00920276
-0.000167379
0.00924391
-0.000164576
0.00928435
-0.000161802
0.0093241
-0.000159064
0.00936317
-0.00015637
0.00940158
-0.000153725
0.00943933
-0.000151134
0.00947645
-0.000148603
0.00951294
-0.000146135
0.00954884
-0.000143733
0.00958415
-0.0001414
0.00961889
-0.000139138
0.00965308
-0.000136947
0.00968674
-0.000134829
0.0097199
-0.000132782
0.00975256
-0.000130806
0.00978474
-0.0001289
0.00981646
-0.000127061
0.00984775
-0.000125288
0.00987861
-0.000123578
0.00990906
-0.000121927
0.00993911
-0.000120331
0.00996879
-0.000118787
0.00999809
-0.000117291
0.010027
-0.000115837
0.0100556
-0.000114422
0.0100839
-0.000113039
0.0101118
-0.000111683
0.0101394
-0.00011035
0.0101666
-0.000109034
0.0101936
-0.000107729
0.0102202
-0.00010643
0.0102465
-0.000105131
0.0102725
-0.000103827
0.0102981
-0.000102512
0.0103235
-0.000101181
0.0103485
-9.98284e-05
0.0103731
-9.84493e-05
0.0103974
-9.70387e-05
0.0104214
-9.55918e-05
0.0104449
-9.4104e-05
0.0104681
-9.25709e-05
0.0104909
-9.09883e-05
0.0105133
-8.93524e-05
0.0105353
-8.76594e-05
0.0105569
-8.5906e-05
0.010578
-8.40891e-05
0.0105986
-8.22058e-05
0.0106187
-8.02535e-05
0.0106383
-7.823e-05
0.0106574
-7.61331e-05
0.010676
-7.39613e-05
0.010694
-7.17129e-05
0.0107114
-6.9387e-05
0.0107283
-6.69824e-05
0.0107445
-6.44986e-05
0.01076
-6.19351e-05
0.0107749
-5.92917e-05
0.0107891
-5.65686e-05
0.0108027
-5.3766e-05
0.0108155
-5.08843e-05
0.0108275
-4.79243e-05
0.0108388
-4.48868e-05
0.0108493
-4.17728e-05
0.010859
-3.85836e-05
0.0108679
-3.53205e-05
0.010876
-3.19849e-05
0.0108832
-2.85785e-05
0.0108895
-2.51029e-05
0.010895
-2.15601e-05
0.0108995
-1.79518e-05
0.0109031
-1.42801e-05
0.0109058
-1.05471e-05
0.0109076
-6.7547e-06
0.0109083
-2.90521e-06
0.0109081
9.9912e-07
0.0109069
4.95611e-06
0.0109047
8.96347e-06
0.0109015
1.30189e-05
0.0108973
1.712e-05
0.010892
2.12644e-05
0.0108856
2.54497e-05
0.0108782
2.96735e-05
0.0108698
3.39334e-05
0.0108602
3.82269e-05
0.0108496
4.25514e-05
0.0108379
4.69045e-05
0.0108251
5.12835e-05
0.0108112
5.56859e-05
0.0107961
6.0109e-05
0.01078
6.455e-05
0.0107628
6.90063e-05
0.0107444
7.3475e-05
0.0107249
7.79531e-05
0.0107043
8.24378e-05
0.0106825
8.69258e-05
0.0106596
9.14142e-05
0.0106356
9.58995e-05
0.0106105
0.000100378
0.0105843
0.000104848
0.0105569
0.000109303
0.0105284
0.000113742
0.0104989
0.00011816
0.0104682
0.000122553
0.0104364
0.000126917
0.0104035
0.000131247
0.0103696
0.000135541
0.0103346
0.000139792
0.0102985
0.000143997
0.0102614
0.000148151
0.0102232
0.000152249
0.0101841
0.000156287
0.0101439
0.000160259
0.0101028
0.000164161
0.0100607
0.000167987
0.0100176
0.000171733
0.00997369
0.000175393
0.00992883
0.000178963
0.0098831
0.000182437
0.00983652
0.00018581
0.00978912
0.000189079
0.00974093
0.000192237
0.00969197
0.00019528
0.00964228
0.000198204
0.00959188
0.000201005
0.00954081
0.000203678
0.0094891
0.000206219
0.00943679
0.000208626
0.00938391
0.000210893
0.00933049
0.00021302
0.00927657
0.000215001
0.0092222
0.000216837
0.0091674
0.000218523
0.00911221
0.000220059
0.00905668
0.000221444
0.00900084
0.000222676
0.00894473
0.000223755
0.00888839
0.00022468
0.00883185
0.000225454
0.00877516
0.000226075
0.00871836
0.000226545
0.00866148
0.000226867
0.00860455
0.000227041
0.00854762
0.000227071
0.00849072
0.000226958
0.00843389
0.000226707
0.00837715
0.000226321
0.00832055
0.000225803
0.00826412
0.000225157
0.00820788
0.000224388
0.00815187
0.000223501
0.00809611
0.0002225
0.00804063
0.000221391
0.00798547
0.000220178
0.00793063
0.000218867
0.00787615
0.000217463
0.00782205
0.000215973
0.00776835
0.0002144
0.00771506
0.000212751
0.00766221
0.000211032
0.00760981
0.000209248
0.00755788
0.000207404
0.00750642
0.000205505
0.00745546
0.000203558
0.007405
0.000201565
0.00735505
0.000199534
0.00730563
0.000197467
0.00725673
0.000195371
0.00720836
0.000193245
0.00716054
0.000191105
0.00711326
0.000188924
0.00706652
0.000186792
0.00702036
0.000184466
0.00697466
0.00018264
0.000179391
0.0062505
-2.50596e-06
0.006252
-7.51934e-06
0.00625449
-1.25392e-05
0.00625799
-1.75711e-05
0.00626249
-2.26198e-05
0.006268
-2.76901e-05
0.00627453
-3.27865e-05
0.00628208
-3.79134e-05
0.00629066
-4.30748e-05
0.00630027
-4.82745e-05
0.00631093
-5.35162e-05
0.00632265
-5.88028e-05
0.00633543
-6.41373e-05
0.00634929
-6.95218e-05
0.00636423
-7.49581e-05
0.00638027
-8.04476e-05
0.00639743
-8.5991e-05
0.0064157
-9.15882e-05
0.0064351
-9.72388e-05
0.00645565
-0.000102941
0.00647736
-0.000108694
0.00650023
-0.000114493
0.00652428
-0.000120336
0.00654951
-0.000126218
0.00657593
-0.000132133
0.00660355
-0.000138075
0.00663238
-0.000144036
0.00666241
-0.000150009
0.00669365
-0.000155983
0.00672609
-0.00016195
0.00675974
-0.000167897
0.00679459
-0.000173812
0.00683064
-0.000179684
0.00686786
-0.000185497
0.00690625
-0.000191237
0.00694579
-0.00019689
0.00698646
-0.000202439
0.00702824
-0.000207869
0.0070711
-0.000213163
0.007115
-0.000218304
0.00715992
-0.000223275
0.00720582
-0.00022806
0.00725265
-0.000232642
0.00730038
-0.000237005
0.00734894
-0.000241134
0.0073983
-0.000245015
0.0074484
-0.000248632
0.00749919
-0.000251975
0.00755059
-0.000255031
0.00760256
-0.00025779
0.00765503
-0.000260244
0.00770793
-0.000262387
0.0077612
-0.000264211
0.00781477
-0.000265715
0.00786858
-0.000266896
0.00792256
-0.000267754
0.00797665
-0.000268292
0.00803077
-0.000268512
0.00808486
-0.00026842
0.00813887
-0.000268024
0.00819273
-0.000267331
0.00824637
-0.000266351
0.00829975
-0.000265097
0.00835281
-0.00026358
0.0084055
-0.000261814
0.00845778
-0.000259813
0.00850958
-0.000257593
0.00856089
-0.000255171
0.00861165
-0.000252561
0.00866184
-0.000249782
0.00871141
-0.00024685
0.00876036
-0.000243783
0.00880865
-0.000240597
0.00885626
-0.000237309
0.00890317
-0.000233936
0.00894938
-0.000230495
0.00899487
-0.000227
0.00903963
-0.000223467
0.00908367
-0.000219911
0.00912698
-0.000216345
0.00916956
-0.000212783
0.00921141
-0.000209236
0.00925255
-0.000205716
0.00929298
-0.000202233
0.00933272
-0.000198797
0.00937176
-0.000195417
0.00941014
-0.000192099
0.00944786
-0.000188852
0.00948493
-0.00018568
0.00952138
-0.000182588
0.00955723
-0.000179581
0.00959249
-0.00017666
0.00962718
-0.00017383
0.00966133
-0.00017109
0.00969494
-0.000168441
0.00972804
-0.000165883
0.00976065
-0.000163415
0.00979279
-0.000161035
0.00982447
-0.000158741
0.00985571
-0.00015653
0.00988653
-0.000154397
0.00991694
-0.00015234
0.00994696
-0.000150352
0.0099766
-0.00014843
0.0100059
-0.000146568
0.0100348
-0.000144759
0.0100634
-0.000142998
0.0100916
-0.000141279
0.0101195
-0.000139594
0.0101471
-0.000137938
0.0101744
-0.000136302
0.0102013
-0.000134681
0.010228
-0.000133067
0.0102543
-0.000131453
0.0102803
-0.000129833
0.010306
-0.000128199
0.0103314
-0.000126544
0.0103564
-0.000124863
0.0103811
-0.000123148
0.0104054
-0.000121393
0.0104294
-0.000119592
0.0104531
-0.00011774
0.0104763
-0.000115831
0.0104992
-0.00011386
0.0105217
-0.000111821
0.0105437
-0.000109711
0.0105653
-0.000107524
0.0105865
-0.000105258
0.0106072
-0.000102908
0.0106274
-0.000100471
0.0106471
-9.79447e-05
0.0106663
-9.53262e-05
0.010685
-9.26134e-05
0.0107031
-8.98045e-05
0.0107206
-8.68979e-05
0.0107375
-8.38926e-05
0.0107538
-8.07878e-05
0.0107694
-7.75829e-05
0.0107844
-7.42778e-05
0.0107987
-7.08724e-05
0.0108123
-6.73673e-05
0.0108252
-6.3763e-05
0.0108373
-6.00603e-05
0.0108487
-5.62605e-05
0.0108593
-5.23647e-05
0.0108691
-4.83746e-05
0.0108781
-4.42918e-05
0.0108862
-4.01183e-05
0.0108935
-3.58559e-05
0.0108999
-3.15069e-05
0.0109054
-2.70736e-05
0.01091
-2.25583e-05
0.0109137
-1.79636e-05
0.0109164
-1.32921e-05
0.0109182
-8.54627e-06
0.0109191
-3.72897e-06
0.0109189
1.15701e-06
0.0109177
6.10888e-06
0.0109156
1.11238e-05
0.0109124
1.61988e-05
0.0109082
2.1331e-05
0.0109029
2.65175e-05
0.0108966
3.17551e-05
0.0108893
3.70409e-05
0.0108808
4.23719e-05
0.0108713
4.77449e-05
0.0108607
5.31568e-05
0.010849
5.86044e-05
0.0108362
6.40846e-05
0.0108223
6.95941e-05
0.0108073
7.51296e-05
0.0107911
8.06877e-05
0.0107739
8.62649e-05
0.0107555
9.18577e-05
0.010736
9.74625e-05
0.0107154
0.000103076
0.0106936
0.000108693
0.0106707
0.000114311
0.0106467
0.000119926
0.0106215
0.000125533
0.0105952
0.000131127
0.0105678
0.000136705
0.0105393
0.000142262
0.0105097
0.000147793
0.0104789
0.000153294
0.0104471
0.000158758
0.0104142
0.000164181
0.0103801
0.000169557
0.010345
0.000174881
0.0103089
0.000180148
0.0102717
0.000185351
0.0102335
0.000190484
0.0101942
0.000195542
0.010154
0.000200517
0.0101127
0.000205405
0.0100705
0.000210199
0.0100273
0.000214891
0.00998325
0.000219477
0.00993826
0.00022395
0.0098924
0.000228303
0.00984568
0.00023253
0.00979813
0.000236626
0.00974979
0.000240583
0.00970067
0.000244397
0.00965081
0.000248061
0.00960025
0.00025157
0.00954901
0.000254919
0.00949712
0.000258104
0.00944463
0.000261119
0.00939156
0.00026396
0.00933796
0.000266623
0.00928386
0.000269106
0.00922929
0.000271404
0.0091743
0.000273516
0.00911892
0.000275439
0.00906319
0.000277171
0.00900715
0.000278713
0.00895084
0.000280062
0.00889431
0.000281219
0.00883758
0.000282184
0.00878069
0.000282958
0.00872369
0.000283544
0.00866662
0.000283942
0.00860951
0.000284155
0.00855239
0.000284187
0.00849531
0.000284041
0.00843829
0.00028372
0.00838139
0.000283229
0.00832461
0.000282574
0.00826801
0.000281759
0.00821161
0.000280789
0.00815544
0.00027967
0.00809953
0.00027841
0.00804391
0.000277013
0.0079886
0.000275486
0.00793363
0.000273837
0.00787903
0.000272071
0.0078248
0.000270197
0.00777098
0.00026822
0.00771758
0.000266149
0.00766463