/*--------------------------------*- C++ -*----------------------------------*\
| =========                 |                                                 |
| \\      /  F ield         | OpenFOAM: The Open Source CFD Toolbox           |
|  \\    /   O peration     | Version:  2306                                  |
|   \\  /    A nd           | Website:  www.openfoam.com                      |
|    \\/     M anipulation  |                                                 |
\*---------------------------------------------------------------------------*/
FoamFile
{
    version     2.0;
    format      ascii;
    arch        "LSB;label=32;scalar=64";
    class       volScalarField;
    location    "11.5";
    object      T;
}
// * * * * * * * * * * * * * * * * * * * * * * * * * * * * * * * * * * * * * //

dimensions      [0 0 0 1 0 0 0];

internalField   nonuniform List<scalar> 
32768
(
300
300
300
300
300
300
300
300
300
300
300
300
300
300
300
300
300
300
300
300
300
300
300
300
300
300
300
300
300
300
300
300
300
300
300
300
300
300
300
300
300
300
300
300
300
300
300
300
300
300
300
300
300
300
300
300
300
300
300
300
300
300
300
300
300
300
300
300
300
300
300
300
300
300
300
300
300
300
300
300
300
300
300
300
300
300
299.999
299.999
299.999
299.999
299.999
299.999
299.999
299.999
299.998
299.998
299.998
299.998
299.998
299.997
299.997
299.997
299.996
299.996
299.995
299.995
299.994
299.994
299.993
299.992
299.991
299.991
299.99
299.989
299.988
299.986
299.985
299.984
299.982
299.981
299.979
299.977
299.975
299.973
299.971
299.968
299.966
299.963
299.96
299.957
299.954
299.95
299.946
299.942
299.938
299.933
299.929
299.924
299.918
299.913
299.907
299.9
299.894
299.887
299.88
299.872
299.864
299.856
299.847
299.837
299.828
299.818
299.807
299.796
299.785
299.773
299.76
299.747
299.734
299.72
299.705
299.691
299.675
299.659
299.642
299.625
299.607
299.589
299.57
299.551
299.531
299.51
299.489
299.467
299.445
299.422
299.398
299.374
299.35
299.324
299.298
299.272
299.245
299.217
299.189
299.161
299.131
299.102
299.071
299.04
299.009
298.977
298.945
298.912
298.879
298.845
298.81
298.776
298.74
298.705
298.669
298.632
298.596
298.558
298.521
298.483
298.444
298.406
298.367
298.328
298.288
298.248
298.208
298.168
298.128
298.087
298.046
298.005
297.963
297.922
297.88
297.838
297.796
297.754
297.712
297.67
297.627
297.585
297.542
297.5
297.457
297.414
297.371
297.326
297.28
297.23
297.171
297.091
296.966
296.738
296.286
295.341
293.321
288.974
279.612
259.503
216.498
124.969
-68.8477
-477.156
-1332.94
-3117.54
-6820.62
-14466.4
-30179.7
-62304.8
300
300
300
300
300
300
300
300
300
300
300
300
300
300
300
300
300
300
300
300
300
300
300
300
300
300
300
300
300
300
300
300
300
300
300
300
300
300
300
300
300
300
300
300
300
300
300
300
300
300
300
300
300
300
300
300
300
300
300
300
300
300
300
300
300
300
300
300
300
300
300
300
300
300
300
300
300
300
300
300
300
300
300
300
300
299.999
299.999
299.999
299.999
299.999
299.999
299.999
299.999
299.999
299.998
299.998
299.998
299.998
299.997
299.997
299.997
299.996
299.996
299.995
299.995
299.994
299.994
299.993
299.992
299.991
299.991
299.99
299.989
299.988
299.986
299.985
299.984
299.982
299.981
299.979
299.977
299.975
299.973
299.971
299.968
299.966
299.963
299.96
299.957
299.954
299.95
299.946
299.942
299.938
299.933
299.929
299.923
299.918
299.912
299.907
299.9
299.894
299.887
299.879
299.872
299.864
299.855
299.846
299.837
299.827
299.817
299.806
299.795
299.784
299.772
299.759
299.747
299.733
299.719
299.705
299.69
299.674
299.658
299.641
299.624
299.606
299.588
299.569
299.55
299.53
299.509
299.488
299.466
299.444
299.421
299.397
299.373
299.349
299.323
299.298
299.271
299.244
299.217
299.189
299.16
299.131
299.102
299.071
299.041
299.009
298.978
298.946
298.913
298.88
298.846
298.812
298.777
298.742
298.707
298.671
298.635
298.599
298.562
298.524
298.487
298.449
298.41
298.372
298.333
298.294
298.254
298.214
298.174
298.134
298.094
298.053
298.012
297.971
297.93
297.889
297.847
297.806
297.764
297.722
297.68
297.638
297.596
297.554
297.511
297.469
297.427
297.384
297.341
297.297
297.251
297.202
297.143
297.063
296.938
296.711
296.259
295.314
293.296
288.951
279.592
259.49
216.495
124.983
-68.8091
-477.087
-1332.86
-3117.5
-6820.89
-14467.7
-30184
-62316.9
300
300
300
300
300
300
300
300
300
300
300
300
300
300
300
300
300
300
300
300
300
300
300
300
300
300
300
300
300
300
300
300
300
300
300
300
300
300
300
300
300
300
300
300
300
300
300
300
300
300
300
300
300
300
300
300
300
300
300
300
300
300
300
300
300
300
300
300
300
300
300
300
300
300
300
300
300
300
300
300
300
300
300
300
299.999
299.999
299.999
299.999
299.999
299.999
299.999
299.999
299.998
299.998
299.998
299.998
299.997
299.997
299.997
299.996
299.996
299.996
299.995
299.994
299.994
299.993
299.993
299.992
299.991
299.99
299.989
299.988
299.987
299.985
299.984
299.983
299.981
299.979
299.978
299.976
299.973
299.971
299.969
299.966
299.963
299.96
299.957
299.954
299.95
299.947
299.943
299.938
299.934
299.929
299.924
299.918
299.913
299.907
299.9
299.894
299.887
299.879
299.872
299.864
299.855
299.846
299.837
299.827
299.817
299.806
299.795
299.784
299.772
299.759
299.746
299.732
299.718
299.704
299.689
299.673
299.657
299.64
299.623
299.605
299.587
299.568
299.548
299.528
299.508
299.487
299.465
299.443
299.42
299.396
299.372
299.348
299.322
299.297
299.27
299.244
299.216
299.188
299.16
299.131
299.102
299.072
299.041
299.01
298.979
298.947
298.914
298.882
298.848
298.815
298.78
298.746
298.711
298.676
298.64
298.604
298.567
298.53
298.493
298.456
298.418
298.38
298.342
298.303
298.264
298.225
298.186
298.146
298.106
298.066
298.026
297.986
297.945
297.904
297.864
297.823
297.782
297.74
297.699
297.658
297.616
297.575
297.533
297.491
297.449
297.408
297.366
297.324
297.281
297.238
297.193
297.144
297.085
297.007
296.882
296.656
296.205
295.262
293.247
288.906
279.555
259.466
216.495
125.021
-68.7113
-476.911
-1332.61
-3117.32
-6821.25
-14470
-30192.1
-62340.5
300
300
300
300
300
300
300
300
300
300
300
300
300
300
300
300
300
300
300
300
300
300
300
300
300
300
300
300
300
300
300
300
300
300
300
300
300
300
300
300
300
300
300
300
300
300
300
300
300
300
300
300
300
300
300
300
300
300
300
300
300
300
300
300
300
300
300
300
300
300
300
300
300
300
300
300
300
300
300
300
300
300
299.999
299.999
299.999
299.999
299.999
299.999
299.999
299.999
299.998
299.998
299.998
299.998
299.997
299.997
299.997
299.996
299.996
299.995
299.995
299.994
299.994
299.993
299.992
299.992
299.991
299.99
299.989
299.988
299.986
299.985
299.984
299.982
299.98
299.979
299.977
299.975
299.972
299.97
299.968
299.965
299.962
299.959
299.956
299.952
299.948
299.944
299.94
299.936
299.931
299.926
299.921
299.915
299.909
299.903
299.896
299.889
299.882
299.874
299.866
299.857
299.848
299.839
299.829
299.819
299.808
299.797
299.786
299.774
299.761
299.748
299.734
299.72
299.706
299.69
299.675
299.659
299.642
299.624
299.607
299.588
299.569
299.55
299.529
299.509
299.488
299.466
299.443
299.42
299.397
299.373
299.348
299.323
299.297
299.271
299.244
299.217
299.189
299.161
299.132
299.103
299.073
299.043
299.012
298.981
298.949
298.917
298.884
298.851
298.818
298.784
298.75
298.716
298.681
298.645
298.61
298.574
298.538
298.501
298.464
298.427
298.39
298.352
298.314
298.276
298.238
298.199
298.16
298.121
298.082
298.043
298.003
297.963
297.924
297.884
297.844
297.803
297.763
297.723
297.682
297.642
297.601
297.56
297.52
297.479
297.438
297.397
297.356
297.315
297.274
297.233
297.191
297.149
297.105
297.056
296.999
296.921
296.798
296.573
296.124
295.183
293.172
288.838
279.499
259.432
216.497
125.084
-68.5559
-476.632
-1332.22
-3117.01
-6821.72
-14473.4
-30204.1
-62375.7
300
300
300
300
300
300
300
300
300
300
300
300
300
300
300
300
300
300
300
300
300
300
300
300
300
300
300
300
300
300
300
300
300
300
300
300
300
300
300
300
300
300
300
300
300
300
300
300
300
300
300
300
300
300
300
300
300
300
300
300
300
300
300
300
300
300
300
300
300
300
300
300
300
300
300
300
300
300
300
300
299.999
299.999
299.999
299.999
299.999
299.999
299.999
299.999
299.998
299.998
299.998
299.998
299.997
299.997
299.997
299.996
299.996
299.995
299.995
299.994
299.993
299.993
299.992
299.991
299.99
299.989
299.988
299.987
299.985
299.984
299.982
299.981
299.979
299.977
299.975
299.973
299.97
299.968
299.965
299.962
299.959
299.956
299.952
299.948
299.944
299.94
299.935
299.931
299.925
299.92
299.914
299.908
299.902
299.895
299.888
299.88
299.872
299.864
299.855
299.846
299.836
299.826
299.815
299.804
299.793
299.781
299.768
299.755
299.742
299.728
299.713
299.698
299.682
299.666
299.649
299.632
299.614
299.595
299.576
299.556
299.536
299.515
299.494
299.472
299.45
299.427
299.403
299.379
299.354
299.329
299.303
299.277
299.25
299.222
299.194
299.166
299.137
299.108
299.078
299.047
299.017
298.985
298.954
298.922
298.889
298.856
298.823
298.79
298.756
298.721
298.687
298.652
298.616
298.581
298.545
298.509
298.472
298.436
298.399
298.362
298.324
298.287
298.249
298.211
298.173
298.135
298.097
298.058
298.02
297.981
297.942
297.903
297.864
297.825
297.786
297.746
297.707
297.667
297.628
297.588
297.549
297.509
297.469
297.43
297.39
297.35
297.31
297.271
297.231
297.191
297.151
297.111
297.071
297.029
296.986
296.939
296.883
296.807
296.685
296.462
296.015
295.078
293.072
288.747
279.424
259.385
216.499
125.167
-68.3472
-476.257
-1331.7
-3116.58
-6822.35
-14478
-30220.2
-62422.6
300
300
300
300
300
300
300
300
300
300
300
300
300
300
300
300
300
300
300
300
300
300
300
300
300
300
300
300
300
300
300
300
300
300
300
300
300
300
300
300
300
300
300
300
300
300
300
300
300
300
300
300
300
300
300
300
300
300
300
300
300
300
300
300
300
300
300
300
300
300
300
300
300
300
300
300
300
300
299.999
299.999
299.999
299.999
299.999
299.999
299.999
299.998
299.998
299.998
299.998
299.997
299.997
299.997
299.996
299.996
299.995
299.995
299.994
299.994
299.993
299.992
299.991
299.99
299.989
299.988
299.987
299.986
299.984
299.983
299.981
299.979
299.977
299.975
299.973
299.97
299.968
299.965
299.962
299.959
299.955
299.951
299.948
299.943
299.939
299.934
299.929
299.924
299.918
299.912
299.905
299.899
299.891
299.884
299.876
299.868
299.859
299.85
299.84
299.83
299.819
299.808
299.796
299.784
299.771
299.758
299.744
299.73
299.715
299.699
299.683
299.666
299.649
299.631
299.613
299.594
299.574
299.554
299.533
299.511
299.489
299.467
299.443
299.42
299.395
299.37
299.345
299.319
299.292
299.265
299.237
299.209
299.18
299.151
299.121
299.091
299.06
299.029
298.997
298.965
298.933
298.9
298.867
298.833
298.8
298.765
298.731
298.696
298.661
298.625
298.59
298.554
298.518
298.481
298.445
298.408
298.371
298.334
298.296
298.259
298.221
298.184
298.146
298.108
298.07
298.032
297.994
297.956
297.917
297.879
297.841
297.803
297.764
297.726
297.687
297.649
297.61
297.572
297.534
297.495
297.457
297.418
297.38
297.341
297.303
297.265
297.226
297.188
297.149
297.111
297.073
297.034
296.996
296.957
296.919
296.879
296.838
296.792
296.738
296.663
296.543
296.322
295.878
294.945
292.946
288.633
279.33
259.326
216.502
125.27
-68.09
-475.795
-1331.06
-3116.07
-6823.17
-14483.7
-30240.5
-62481.5
300
300
300
300
300
300
300
300
300
300
300
300
300
300
300
300
300
300
300
300
300
300
300
300
300
300
300
300
300
300
300
300
300
300
300
300
300
300
300
300
300
300
300
300
300
300
300
300
300
300
300
300
300
300
300
300
300
300
300
300
300
300
300
300
300
300
300
300
300
300
300
300
300
300
300
300
299.999
299.999
299.999
299.999
299.999
299.999
299.999
299.998
299.998
299.998
299.998
299.997
299.997
299.997
299.996
299.996
299.995
299.994
299.994
299.993
299.992
299.991
299.99
299.989
299.988
299.987
299.986
299.984
299.983
299.981
299.979
299.977
299.975
299.973
299.97
299.967
299.964
299.961
299.958
299.954
299.95
299.946
299.942
299.937
299.932
299.927
299.921
299.915
299.908
299.902
299.894
299.887
299.879
299.87
299.861
299.852
299.842
299.832
299.821
299.809
299.797
299.785
299.771
299.758
299.743
299.729
299.713
299.697
299.68
299.663
299.645
299.626
299.607
299.587
299.566
299.545
299.523
299.5
299.477
299.453
299.429
299.404
299.378
299.351
299.324
299.297
299.269
299.24
299.211
299.181
299.151
299.12
299.089
299.057
299.024
298.992
298.958
298.925
298.891
298.856
298.822
298.787
298.751
298.715
298.679
298.643
298.607
298.57
298.533
298.496
298.458
298.421
298.383
298.346
298.308
298.27
298.232
298.194
298.155
298.117
298.079
298.041
298.003
297.964
297.926
297.888
297.85
297.812
297.774
297.736
297.698
297.66
297.622
297.584
297.547
297.509
297.472
297.434
297.397
297.36
297.322
297.285
297.248
297.211
297.174
297.137
297.101
297.064
297.027
296.991
296.954
296.918
296.881
296.845
296.808
296.772
296.735
296.697
296.658
296.614
296.562
296.489
296.371
296.153
295.713
294.785
292.794
288.495
279.216
259.254
216.501
125.389
-67.7898
-475.256
-1330.31
-3115.51
-6824.25
-14490.7
-30265
-62552.5
300
300
300
300
300
300
300
300
300
300
300
300
300
300
300
300
300
300
300
300
300
300
300
300
300
300
300
300
300
300
300
300
300
300
300
300
300
300
300
300
300
300
300
300
300
300
300
300
300
300
300
300
300
300
300
300
300
300
300
300
300
300
300
300
300
300
300
300
300
300
300
300
300
300
299.999
299.999
299.999
299.999
299.999
299.999
299.999
299.998
299.998
299.998
299.998
299.997
299.997
299.996
299.996
299.995
299.995
299.994
299.993
299.993
299.992
299.991
299.99
299.988
299.987
299.986
299.984
299.983
299.981
299.979
299.977
299.975
299.972
299.97
299.967
299.964
299.96
299.957
299.953
299.949
299.945
299.94
299.935
299.93
299.924
299.918
299.911
299.905
299.897
299.89
299.882
299.873
299.864
299.854
299.844
299.833
299.822
299.81
299.798
299.785
299.771
299.757
299.742
299.726
299.71
299.693
299.676
299.657
299.638
299.619
299.598
299.577
299.555
299.533
299.509
299.485
299.46
299.435
299.409
299.382
299.354
299.326
299.297
299.268
299.237
299.207
299.175
299.143
299.111
299.077
299.044
299.01
298.975
298.94
298.904
298.868
298.831
298.795
298.757
298.72
298.682
298.644
298.605
298.567
298.528
298.489
298.45
298.41
298.371
298.331
298.292
298.252
298.212
298.173
298.133
298.093
298.053
298.014
297.974
297.935
297.895
297.856
297.817
297.778
297.739
297.701
297.662
297.624
297.586
297.548
297.51
297.472
297.435
297.398
297.361
297.324
297.287
297.251
297.215
297.179
297.143
297.107
297.071
297.036
297.001
296.966
296.931
296.896
296.861
296.827
296.792
296.758
296.723
296.689
296.655
296.621
296.586
296.552
296.518
296.482
296.445
296.404
296.355
296.285
296.17
295.955
295.519
294.597
292.615
288.331
279.08
259.166
216.496
125.519
-67.4528
-474.65
-1329.48
-3114.93
-6825.63
-14499.1
-30294
-62635.9
300
300
300
300
300
300
300
300
300
300
300
300
300
300
300
300
300
300
300
300
300
300
300
300
300
300
300
300
300
300
300
300
300
300
300
300
300
300
300
300
300
300
300
300
300
300
300
300
300
300
300
300
300
300
300
300
300
300
300
300
300
300
300
300
300
300
300
300
300
300
300
300
299.999
299.999
299.999
299.999
299.999
299.999
299.999
299.998
299.998
299.998
299.997
299.997
299.997
299.996
299.996
299.995
299.994
299.994
299.993
299.992
299.991
299.99
299.989
299.987
299.986
299.985
299.983
299.981
299.979
299.977
299.975
299.972
299.969
299.966
299.963
299.96
299.956
299.952
299.948
299.943
299.938
299.933
299.927
299.921
299.915
299.908
299.901
299.893
299.885
299.876
299.867
299.857
299.847
299.836
299.824
299.812
299.799
299.786
299.771
299.757
299.741
299.725
299.708
299.69
299.671
299.652
299.632
299.611
299.589
299.567
299.544
299.519
299.494
299.469
299.442
299.415
299.386
299.358
299.328
299.297
299.266
299.234
299.201
299.168
299.133
299.099
299.063
299.027
298.99
298.953
298.915
298.877
298.838
298.799
298.759
298.719
298.678
298.637
298.596
298.554
298.513
298.471
298.428
298.386
298.343
298.301
298.258
298.215
298.173
298.13
298.087
298.045
298.002
297.96
297.917
297.875
297.833
297.792
297.75
297.709
297.668
297.627
297.587
297.546
297.507
297.467
297.428
297.389
297.35
297.312
297.274
297.237
297.2
297.163
297.126
297.09
297.054
297.019
296.984
296.949
296.914
296.88
296.846
296.812
296.779
296.745
296.713
296.68
296.647
296.615
296.583
296.551
296.519
296.487
296.456
296.424
296.393
296.361
296.33
296.298
296.267
296.234
296.2
296.162
296.115
296.048
295.937
295.725
295.294
294.379
292.408
288.142
278.921
259.062
216.483
125.658
-67.0864
-473.991
-1328.6
-3114.37
-6827.39
-14509.1
-30327.6
-62732.1
300
300
300
300
300
300
300
300
300
300
300
300
300
300
300
300
300
300
300
300
300
300
300
300
300
300
300
300
300
300
300
300
300
300
300
300
300
300
300
300
300
300
300
300
300
300
300
300
300
300
300
300
300
300
300
300
300
300
300
300
300
300
300
300
300
300
300
300
300
300
299.999
299.999
299.999
299.999
299.999
299.999
299.998
299.998
299.998
299.998
299.997
299.997
299.996
299.996
299.995
299.995
299.994
299.993
299.992
299.991
299.99
299.989
299.988
299.986
299.985
299.983
299.981
299.979
299.977
299.975
299.972
299.969
299.966
299.963
299.959
299.955
299.951
299.947
299.942
299.937
299.931
299.925
299.919
299.912
299.905
299.897
299.889
299.88
299.87
299.861
299.85
299.839
299.827
299.815
299.801
299.788
299.773
299.758
299.741
299.724
299.707
299.688
299.669
299.648
299.627
299.605
299.582
299.558
299.533
299.507
299.48
299.453
299.424
299.395
299.364
299.333
299.301
299.267
299.233
299.198
299.163
299.126
299.089
299.05
299.011
298.972
298.931
298.89
298.849
298.806
298.764
298.72
298.676
298.632
298.587
298.542
298.496
298.45
298.404
298.358
298.311
298.264
298.217
298.17
298.123
298.076
298.029
297.982
297.936
297.889
297.842
297.796
297.75
297.704
297.659
297.613
297.568
297.524
297.48
297.436
297.393
297.35
297.308
297.266
297.224
297.183
297.143
297.103
297.064
297.025
296.987
296.949
296.912
296.875
296.839
296.803
296.768
296.734
296.699
296.666
296.632
296.6
296.567
296.535
296.504
296.473
296.442
296.412
296.381
296.352
296.322
296.293
296.264
296.235
296.206
296.178
296.149
296.121
296.093
296.065
296.037
296.009
295.981
295.952
295.921
295.886
295.843
295.78
295.672
295.465
295.039
294.132
292.172
287.926
278.74
258.939
216.461
125.799
-66.6989
-473.293
-1327.68
-3113.88
-6829.62
-14520.6
-30366.2
-62841.4
300
300
300
300
300
300
300
300
300
300
300
300
300
300
300
300
300
300
300
300
300
300
300
300
300
300
300
300
300
300
300
300
300
300
300
300
300
300
300
300
300
300
300
300
300
300
300
300
300
300
300
300
300
300
300
300
300
300
300
300
300
300
300
300
300
300
300
300
299.999
299.999
299.999
299.999
299.999
299.999
299.998
299.998
299.998
299.998
299.997
299.997
299.996
299.996
299.995
299.994
299.994
299.993
299.992
299.991
299.99
299.988
299.987
299.985
299.983
299.982
299.98
299.977
299.975
299.972
299.969
299.966
299.963
299.959
299.955
299.95
299.946
299.941
299.935
299.929
299.923
299.916
299.909
299.902
299.893
299.884
299.875
299.865
299.855
299.843
299.831
299.819
299.805
299.791
299.776
299.76
299.743
299.726
299.707
299.688
299.668
299.646
299.624
299.601
299.576
299.551
299.525
299.497
299.469
299.439
299.408
299.376
299.344
299.31
299.275
299.239
299.202
299.164
299.124
299.084
299.043
299.001
298.959
298.915
298.87
298.825
298.779
298.732
298.684
298.636
298.587
298.538
298.488
298.437
298.386
298.335
298.284
298.232
298.18
298.127
298.075
298.022
297.97
297.917
297.865
297.812
297.76
297.708
297.656
297.605
297.553
297.503
297.452
297.402
297.352
297.303
297.255
297.207
297.159
297.113
297.066
297.021
296.976
296.932
296.888
296.846
296.804
296.762
296.722
296.682
296.643
296.605
296.567
296.53
296.494
296.459
296.424
296.391
296.357
296.325
296.293
296.262
296.231
296.201
296.171
296.143
296.114
296.086
296.059
296.032
296.005
295.979
295.953
295.927
295.902
295.877
295.852
295.828
295.803
295.779
295.755
295.731
295.707
295.683
295.659
295.633
295.607
295.576
295.537
295.477
295.374
295.172
294.753
293.854
291.907
287.683
278.533
258.796
216.426
125.939
-66.2994
-472.574
-1326.76
-3113.51
-6832.4
-14534.1
-30409.9
-62964.3
300
300
300
300
300
300
300
300
300
300
300
300
300
300
300
300
300
300
300
300
300
300
300
300
300
300
300
300
300
300
300
300
300
300
300
300
300
300
300
300
300
300
300
300
300
300
300
300
300
300
300
300
300
300
300
300
300
300
300
300
300
300
300
300
300
300
299.999
299.999
299.999
299.999
299.999
299.999
299.998
299.998
299.998
299.997
299.997
299.997
299.996
299.995
299.995
299.994
299.993
299.992
299.991
299.99
299.989
299.987
299.986
299.984
299.982
299.98
299.978
299.975
299.972
299.969
299.966
299.963
299.959
299.955
299.95
299.945
299.94
299.934
299.928
299.922
299.915
299.907
299.899
299.89
299.881
299.871
299.86
299.849
299.837
299.824
299.811
299.796
299.781
299.765
299.748
299.73
299.711
299.691
299.669
299.647
299.624
299.6
299.574
299.547
299.519
299.49
299.46
299.428
299.396
299.362
299.326
299.29
299.252
299.213
299.173
299.131
299.089
299.045
299
298.954
298.907
298.859
298.809
298.759
298.708
298.656
298.603
298.549
298.494
298.439
298.383
298.327
298.27
298.212
298.154
298.096
298.037
297.978
297.919
297.86
297.801
297.741
297.682
297.623
297.564
297.505
297.446
297.388
297.33
297.273
297.216
297.16
297.104
297.049
296.994
296.94
296.887
296.835
296.784
296.733
296.683
296.634
296.586
296.539
296.493
296.448
296.404
296.361
296.319
296.278
296.237
296.198
296.16
296.123
296.087
296.052
296.017
295.984
295.952
295.92
295.89
295.86
295.831
295.803
295.776
295.749
295.723
295.698
295.674
295.65
295.626
295.603
295.581
295.559
295.538
295.517
295.496
295.475
295.455
295.435
295.416
295.396
295.377
295.357
295.338
295.318
295.299
295.278
295.256
295.23
295.195
295.141
295.042
294.846
294.434
293.544
291.612
287.41
278.299
258.63
216.374
126.071
-65.8986
-471.852
-1325.87
-3113.33
-6835.85
-14549.5
-30459.1
-63101.4
300
300
300
300
300
300
300
300
300
300
300
300
300
300
300
300
300
300
300
300
300
300
300
300
300
300
300
300
300
300
300
300
300
300
300
300
300
300
300
300
300
300
300
300
300
300
300
300
300
300
300
300
300
300
300
300
300
300
300
300
300
300
300
300
299.999
299.999
299.999
299.999
299.999
299.999
299.998
299.998
299.998
299.997
299.997
299.997
299.996
299.995
299.995
299.994
299.993
299.992
299.991
299.989
299.988
299.987
299.985
299.983
299.981
299.978
299.976
299.973
299.97
299.967
299.963
299.959
299.955
299.95
299.945
299.94
299.934
299.928
299.921
299.913
299.905
299.897
299.888
299.878
299.867
299.856
299.844
299.831
299.818
299.803
299.788
299.771
299.754
299.736
299.716
299.696
299.674
299.651
299.627
299.602
299.575
299.547
299.518
299.488
299.456
299.422
299.387
299.351
299.314
299.275
299.234
299.192
299.149
299.104
299.057
299.01
298.961
298.91
298.859
298.806
298.751
298.696
298.639
298.581
298.522
298.462
298.402
298.34
298.277
298.214
298.149
298.085
298.019
297.953
297.887
297.82
297.753
297.686
297.619
297.551
297.484
297.417
297.35
297.283
297.216
297.149
297.084
297.018
296.953
296.889
296.825
296.762
296.7
296.639
296.579
296.519
296.461
296.403
296.347
296.292
296.237
296.185
296.133
296.082
296.033
295.985
295.938
295.892
295.848
295.805
295.764
295.723
295.684
295.646
295.61
295.575
295.541
295.508
295.476
295.446
295.416
295.388
295.361
295.335
295.31
295.286
295.263
295.241
295.22
295.199
295.179
295.16
295.142
295.124
295.107
295.09
295.074
295.058
295.043
295.028
295.013
294.998
294.984
294.97
294.956
294.942
294.928
294.914
294.9
294.885
294.868
294.847
294.818
294.769
294.676
294.486
294.081
293.202
291.285
287.107
278.038
258.439
216.302
126.188
-65.5082
-471.148
-1325.06
-3113.4
-6840.08
-14567.1
-30514.2
-63253.2
300
300
300
300
300
300
300
300
300
300
300
300
300
300
300
300
300
300
300
300
300
300
300
300
300
300
300
300
300
300
300
300
300
300
300
300
300
300
300
300
300
300
300
300
300
300
300
300
300
300
300
300
300
300
300
300
300
300
300
300
300
300
300
299.999
299.999
299.999
299.999
299.999
299.998
299.998
299.998
299.997
299.997
299.996
299.996
299.995
299.994
299.994
299.993
299.992
299.99
299.989
299.987
299.986
299.984
299.982
299.979
299.977
299.974
299.971
299.968
299.964
299.96
299.956
299.951
299.946
299.94
299.934
299.927
299.92
299.913
299.904
299.895
299.886
299.875
299.864
299.853
299.84
299.826
299.812
299.797
299.78
299.763
299.744
299.725
299.704
299.682
299.658
299.634
299.608
299.58
299.551
299.521
299.489
299.456
299.421
299.384
299.346
299.306
299.265
299.222
299.177
299.13
299.082
299.032
298.981
298.927
298.873
298.816
298.758
298.699
298.638
298.575
298.511
298.446
298.379
298.311
298.242
298.172
298.101
298.029
297.956
297.883
297.808
297.733
297.658
297.581
297.505
297.428
297.352
297.275
297.198
297.121
297.044
296.968
296.891
296.816
296.741
296.666
296.592
296.519
296.446
296.375
296.304
296.235
296.166
296.099
296.033
295.968
295.905
295.842
295.782
295.722
295.664
295.608
295.553
295.5
295.448
295.398
295.35
295.303
295.258
295.214
295.172
295.132
295.093
295.056
295.02
294.986
294.954
294.923
294.893
294.865
294.839
294.814
294.79
294.767
294.746
294.726
294.707
294.689
294.672
294.657
294.642
294.628
294.615
294.602
294.59
294.579
294.569
294.559
294.55
294.541
294.532
294.523
294.515
294.507
294.5
294.492
294.484
294.477
294.469
294.461
294.452
294.441
294.426
294.403
294.36
294.273
294.091
293.694
292.826
290.925
286.773
277.747
258.221
216.206
126.283
-65.1416
-470.488
-1324.35
-3113.8
-6845.25
-14587.2
-30575.6
-63420.6
300
300
300
300
300
300
300
300
300
300
300
300
300
300
300
300
300
300
300
300
300
300
300
300
300
300
300
300
300
300
300
300
300
300
300
300
300
300
300
300
300
300
300
300
300
300
300
300
300
300
300
300
300
300
300
300
300
300
300
300
300
299.999
299.999
299.999
299.999
299.999
299.999
299.998
299.998
299.997
299.997
299.996
299.996
299.995
299.994
299.993
299.992
299.991
299.99
299.988
299.987
299.985
299.983
299.981
299.978
299.975
299.972
299.969
299.965
299.961
299.957
299.952
299.947
299.941
299.935
299.928
299.92
299.913
299.904
299.895
299.885
299.874
299.862
299.85
299.837
299.823
299.807
299.791
299.774
299.755
299.736
299.715
299.692
299.669
299.644
299.617
299.589
299.56
299.529
299.496
299.461
299.425
299.387
299.347
299.305
299.262
299.216
299.169
299.119
299.068
299.014
298.959
298.902
298.843
298.781
298.718
298.654
298.587
298.518
298.448
298.376
298.302
298.227
298.151
298.073
297.993
297.912
297.831
297.748
297.664
297.579
297.493
297.407
297.32
297.233
297.145
297.057
296.969
296.881
296.793
296.705
296.618
296.531
296.444
296.358
296.272
296.188
296.104
296.021
295.939
295.858
295.779
295.701
295.624
295.548
295.475
295.402
295.332
295.263
295.195
295.13
295.066
295.004
294.945
294.887
294.831
294.777
294.724
294.674
294.626
294.58
294.536
294.494
294.454
294.416
294.38
294.346
294.314
294.283
294.255
294.228
294.203
294.18
294.158
294.139
294.12
294.103
294.088
294.074
294.061
294.05
294.04
294.031
294.023
294.016
294.01
294.004
294
293.996
293.993
293.991
293.988
293.987
293.986
293.985
293.984
293.983
293.983
293.982
293.982
293.981
293.981
293.979
293.977
293.973
293.966
293.949
293.913
293.834
293.659
293.271
292.415
290.531
286.406
277.425
257.973
216.081
126.349
-64.8137
-469.897
-1323.82
-3114.63
-6851.51
-14610.1
-30643.7
-63604.3
300
300
300
300
300
300
300
300
300
300
300
300
300
300
300
300
300
300
300
300
300
300
300
300
300
300
300
300
300
300
300
300
300
300
300
300
300
300
300
300
300
300
300
300
300
300
300
300
300
300
300
300
300
300
300
300
300
300
300
300
299.999
299.999
299.999
299.999
299.999
299.998
299.998
299.998
299.997
299.997
299.996
299.995
299.994
299.993
299.992
299.991
299.99
299.988
299.986
299.984
299.982
299.98
299.977
299.974
299.971
299.967
299.963
299.958
299.953
299.948
299.942
299.936
299.929
299.921
299.913
299.904
299.895
299.885
299.873
299.861
299.848
299.835
299.82
299.804
299.787
299.768
299.749
299.728
299.706
299.682
299.657
299.63
299.602
299.572
299.541
299.507
299.472
299.434
299.395
299.354
299.311
299.265
299.218
299.168
299.116
299.062
299.005
298.946
298.885
298.822
298.756
298.688
298.618
298.546
298.471
298.395
298.316
298.235
298.152
298.067
297.981
297.893
297.803
297.711
297.619
297.524
297.429
297.332
297.235
297.136
297.037
296.937
296.837
296.737
296.636
296.535
296.434
296.333
296.232
296.132
296.032
295.933
295.835
295.738
295.641
295.546
295.452
295.359
295.268
295.178
295.09
295.003
294.919
294.836
294.755
294.676
294.599
294.524
294.451
294.381
294.313
294.247
294.184
294.123
294.064
294.007
293.954
293.902
293.853
293.807
293.763
293.721
293.682
293.645
293.61
293.578
293.548
293.52
293.495
293.472
293.451
293.432
293.414
293.399
293.386
293.375
293.365
293.357
293.35
293.345
293.342
293.34
293.339
293.339
293.34
293.342
293.346
293.35
293.354
293.36
293.366
293.372
293.379
293.387
293.394
293.402
293.41
293.418
293.426
293.433
293.441
293.448
293.455
293.461
293.465
293.464
293.456
293.427
293.356
293.19
292.812
291.968
290.102
286.005
277.069
257.692
215.921
126.375
-64.5413
-469.408
-1323.5
-3115.98
-6859.04
-14636.1
-30719.2
-63805.2
300
300
300
300
300
300
300
300
300
300
300
300
300
300
300
300
300
300
300
300
300
300
300
300
300
300
300
300
300
300
300
300
300
300
300
300
300
300
300
300
300
300
300
300
300
300
300
300
300
300
300
300
300
300
300
300
300
300
299.999
299.999
299.999
299.999
299.999
299.998
299.998
299.998
299.997
299.997
299.996
299.995
299.994
299.993
299.992
299.991
299.989
299.988
299.986
299.984
299.981
299.979
299.976
299.973
299.969
299.965
299.96
299.956
299.95
299.944
299.938
299.931
299.923
299.915
299.906
299.896
299.885
299.874
299.861
299.848
299.834
299.818
299.802
299.784
299.764
299.744
299.722
299.699
299.674
299.647
299.619
299.589
299.557
299.523
299.487
299.449
299.409
299.367
299.323
299.276
299.227
299.175
299.121
299.064
299.005
298.943
298.879
298.811
298.742
298.669
298.594
298.516
298.436
298.353
298.267
298.179
298.089
297.996
297.901
297.804
297.704
297.603
297.499
297.394
297.288
297.179
297.069
296.958
296.846
296.733
296.619
296.504
296.389
296.273
296.157
296.042
295.926
295.81
295.695
295.58
295.466
295.353
295.241
295.13
295.02
294.911
294.805
294.699
294.596
294.494
294.394
294.296
294.201
294.107
294.017
293.928
293.842