/*--------------------------------*- C++ -*----------------------------------*\
| =========                 |                                                 |
| \\      /  F ield         | OpenFOAM: The Open Source CFD Toolbox           |
|  \\    /   O peration     | Version:  2306                                  |
|   \\  /    A nd           | Website:  www.openfoam.com                      |
|    \\/     M anipulation  |                                                 |
\*---------------------------------------------------------------------------*/
FoamFile
{
    version     2.0;
    format      ascii;
    arch        "LSB;label=32;scalar=64";
    class       volVectorField;
    location    "11.5";
    object      U;
}
// * * * * * * * * * * * * * * * * * * * * * * * * * * * * * * * * * * * * * //

dimensions      [0 1 -1 0 0 0 0];

internalField   nonuniform List<vector> 
32768
(
(1.00001 -4.01121e-05 0)
(1.00017 -0.000120544 0)
(1.00048 -0.00020113 0)
(1.00096 -0.000281872 0)
(1.00161 -0.000362872 0)
(1.00242 -0.000444227 0)
(1.00339 -0.000525999 0)
(1.00452 -0.000608243 0)
(1.00582 -0.000691018 0)
(1.00729 -0.000774385 0)
(1.00892 -0.000858397 0)
(1.01072 -0.000943103 0)
(1.01269 -0.00102854 0)
(1.01484 -0.00111475 0)
(1.01715 -0.00120175 0)
(1.01964 -0.00128956 0)
(1.02231 -0.00137819 0)
(1.02516 -0.00146764 0)
(1.02818 -0.00155789 0)
(1.03139 -0.00164892 0)
(1.03478 -0.0017407 0)
(1.03835 -0.00183317 0)
(1.04211 -0.00192628 0)
(1.04606 -0.00201995 0)
(1.05019 -0.0021141 0)
(1.05452 -0.00220861 0)
(1.05903 -0.00230337 0)
(1.06373 -0.00239825 0)
(1.06862 -0.0024931 0)
(1.0737 -0.00258776 0)
(1.07897 -0.00268205 0)
(1.08443 -0.00277578 0)
(1.09008 -0.00286875 0)
(1.09591 -0.00296075 0)
(1.10192 -0.00305154 0)
(1.10812 -0.0031409 0)
(1.11449 -0.00322857 0)
(1.12104 -0.00331431 0)
(1.12775 -0.00339786 0)
(1.13463 -0.00347897 0)
(1.14167 -0.00355737 0)
(1.14886 -0.00363282 0)
(1.1562 -0.00370505 0)
(1.16369 -0.00377382 0)
(1.1713 -0.0038389 0)
(1.17905 -0.00390006 0)
(1.18691 -0.00395709 0)
(1.19488 -0.00400981 0)
(1.20295 -0.00405803 0)
(1.21112 -0.0041016 0)
(1.21936 -0.0041404 0)
(1.22768 -0.00417432 0)
(1.23606 -0.00420327 0)
(1.2445 -0.00422721 0)
(1.25298 -0.00424611 0)
(1.26149 -0.00425996 0)
(1.27002 -0.00426879 0)
(1.27857 -0.00427267 0)
(1.28712 -0.00427167 0)
(1.29566 -0.00426589 0)
(1.30419 -0.00425547 0)
(1.31269 -0.00424055 0)
(1.32115 -0.00422132 0)
(1.32958 -0.00419796 0)
(1.33795 -0.00417068 0)
(1.34626 -0.00413971 0)
(1.35451 -0.00410527 0)
(1.36269 -0.00406763 0)
(1.37079 -0.00402702 0)
(1.3788 -0.00398371 0)
(1.38672 -0.00393797 0)
(1.39455 -0.00389006 0)
(1.40228 -0.00384024 0)
(1.40992 -0.00378877 0)
(1.41744 -0.00373592 0)
(1.42486 -0.00368194 0)
(1.43217 -0.00362708 0)
(1.43937 -0.00357156 0)
(1.44646 -0.00351562 0)
(1.45343 -0.00345948 0)
(1.46029 -0.00340334 0)
(1.46705 -0.00334739 0)
(1.47368 -0.00329181 0)
(1.48021 -0.00323676 0)
(1.48663 -0.0031824 0)
(1.49294 -0.00312887 0)
(1.49914 -0.00307628 0)
(1.50524 -0.00302475 0)
(1.51124 -0.00297436 0)
(1.51714 -0.00292519 0)
(1.52294 -0.00287731 0)
(1.52865 -0.00283077 0)
(1.53426 -0.00278561 0)
(1.53979 -0.00274184 0)
(1.54523 -0.00269947 0)
(1.55059 -0.00265851 0)
(1.55586 -0.00261894 0)
(1.56106 -0.00258073 0)
(1.56618 -0.00254385 0)
(1.57123 -0.00250825 0)
(1.57621 -0.00247389 0)
(1.58113 -0.00244068 0)
(1.58598 -0.00240857 0)
(1.59076 -0.00237748 0)
(1.59548 -0.00234731 0)
(1.60015 -0.00231799 0)
(1.60475 -0.00228941 0)
(1.6093 -0.00226149 0)
(1.6138 -0.0022341 0)
(1.61824 -0.00220716 0)
(1.62263 -0.00218055 0)
(1.62696 -0.00215416 0)
(1.63124 -0.00212789 0)
(1.63547 -0.00210163 0)
(1.63965 -0.00207526 0)
(1.64377 -0.00204869 0)
(1.64784 -0.00202179 0)
(1.65186 -0.00199448 0)
(1.65582 -0.00196664 0)
(1.65973 -0.00193818 0)
(1.66358 -0.00190901 0)
(1.66736 -0.00187903 0)
(1.67109 -0.00184816 0)
(1.67476 -0.00181631 0)
(1.67836 -0.00178341 0)
(1.68189 -0.00174939 0)
(1.68536 -0.00171417 0)
(1.68875 -0.00167769 0)
(1.69207 -0.00163991 0)
(1.69531 -0.00160076 0)
(1.69847 -0.0015602 0)
(1.70155 -0.00151819 0)
(1.70454 -0.0014747 0)
(1.70745 -0.00142969 0)
(1.71026 -0.00138314 0)
(1.71298 -0.00133504 0)
(1.7156 -0.00128537 0)
(1.71813 -0.00123412 0)
(1.72054 -0.00118128 0)
(1.72285 -0.00112686 0)
(1.72505 -0.00107087 0)
(1.72714 -0.0010133 0)
(1.7291 -0.000954177 0)
(1.73095 -0.000893516 0)
(1.73268 -0.000831334 0)
(1.73428 -0.000767656 0)
(1.73575 -0.000702508 0)
(1.73709 -0.000635919 0)
(1.73829 -0.00056792 0)
(1.73936 -0.000498544 0)
(1.74029 -0.000427828 0)
(1.74107 -0.000355808 0)
(1.74171 -0.000282525 0)
(1.7422 -0.000208017 0)
(1.74255 -0.000132328 0)
(1.74273 -5.54982e-05 0)
(1.74277 2.24266e-05 0)
(1.74264 0.0001014 0)
(1.74236 0.000181377 0)
(1.74192 0.000262313 0)
(1.74131 0.000344162 0)
(1.74054 0.000426875 0)
(1.7396 0.000510405 0)
(1.7385 0.000594704 0)
(1.73723 0.000679721 0)
(1.73578 0.000765409 0)
(1.73416 0.000851715 0)
(1.73237 0.000938591 0)
(1.73041 0.00102598 0)
(1.72827 0.00111384 0)
(1.72595 0.00120211 0)
(1.72346 0.00129073 0)
(1.72079 0.00137966 0)
(1.71794 0.00146882 0)
(1.71491 0.00155818 0)
(1.71171 0.00164766 0)
(1.70832 0.0017372 0)
(1.70476 0.00182674 0)
(1.70101 0.00191622 0)
(1.69709 0.00200557 0)
(1.69299 0.00209471 0)
(1.68871 0.00218358 0)
(1.68425 0.0022721 0)
(1.67962 0.0023602 0)
(1.67481 0.00244779 0)
(1.66983 0.0025348 0)
(1.66467 0.00262114 0)
(1.65934 0.00270672 0)
(1.65384 0.00279147 0)
(1.64817 0.00287528 0)
(1.64234 0.00295806 0)
(1.63634 0.00303973 0)
(1.63017 0.00312018 0)
(1.62385 0.00319931 0)
(1.61737 0.00327704 0)
(1.61074 0.00335326 0)
(1.60396 0.00342787 0)
(1.59703 0.00350077 0)
(1.58995 0.00357186 0)
(1.58274 0.00364105 0)
(1.57539 0.00370823 0)
(1.5679 0.00377331 0)
(1.56029 0.0038362 0)
(1.55255 0.0038968 0)
(1.5447 0.00395503 0)
(1.53673 0.0040108 0)
(1.52865 0.00406403 0)
(1.52047 0.00411464 0)
(1.51219 0.00416257 0)
(1.50381 0.00420774 0)
(1.49535 0.0042501 0)
(1.48681 0.0042896 0)
(1.47819 0.00432618 0)
(1.4695 0.00435981 0)
(1.46075 0.00439046 0)
(1.45194 0.00441809 0)
(1.44307 0.0044427 0)
(1.43416 0.00446427 0)
(1.42521 0.00448281 0)
(1.41623 0.00449831 0)
(1.40721 0.0045108 0)
(1.39818 0.0045203 0)
(1.38913 0.00452684 0)
(1.38007 0.00453046 0)
(1.371 0.00453121 0)
(1.36194 0.00452914 0)
(1.35288 0.00452431 0)
(1.34384 0.00451679 0)
(1.33481 0.00450666 0)
(1.32581 0.00449399 0)
(1.31683 0.00447888 0)
(1.30789 0.00446141 0)
(1.29898 0.00444169 0)
(1.29012 0.00441979 0)
(1.2813 0.00439584 0)
(1.27253 0.00436993 0)
(1.26382 0.00434218 0)
(1.25516 0.00431268 0)
(1.24656 0.00428155 0)
(1.23803 0.0042489 0)
(1.22957 0.00421483 0)
(1.22117 0.00417946 0)
(1.21285 0.00414289 0)
(1.2046 0.00410522 0)
(1.19642 0.00406656 0)
(1.18833 0.00402701 0)
(1.18032 0.00398663 0)
(1.17238 0.0039456 0)
(1.16454 0.00390382 0)
(1.15674 0.00386174 0)
(1.14913 0.0038187 0)
(1.14139 0.00377612 0)
(1.13421 0.00373153 0)
(1.126 0.00368855 0)
(1.12045 0.0036441 0)
(1.10865 0.00358934 0)
(1.00001 -0.000120511 0)
(1.00017 -0.000361854 0)
(1.00048 -0.000603572 0)
(1.00096 -0.000845794 0)
(1.00161 -0.00108879 0)
(1.00242 -0.00133283 0)
(1.00339 -0.00157809 0)
(1.00452 -0.00182478 0)
(1.00582 -0.00207307 0)
(1.00728 -0.00232314 0)
(1.00891 -0.00257515 0)
(1.01071 -0.00282924 0)
(1.01268 -0.00308554 0)
(1.01483 -0.00334416 0)
(1.01714 -0.00360516 0)
(1.01963 -0.0038686 0)
(1.0223 -0.0041345 0)
(1.02514 -0.00440287 0)
(1.02817 -0.00467367 0)
(1.03137 -0.00494681 0)
(1.03476 -0.00522221 0)
(1.03833 -0.00549971 0)
(1.04209 -0.00577912 0)
(1.04604 -0.00606023 0)
(1.05017 -0.00634277 0)
(1.0545 -0.00662643 0)
(1.05901 -0.00691085 0)
(1.06371 -0.00719563 0)
(1.0686 -0.00748034 0)
(1.07369 -0.00776449 0)
(1.07896 -0.00804754 0)
(1.08442 -0.00832893 0)
(1.09007 -0.00860804 0)
(1.0959 -0.00888424 0)
(1.10192 -0.00915683 0)
(1.10812 -0.00942512 0)
(1.1145 -0.00968837 0)
(1.12105 -0.00994583 0)
(1.12777 -0.0101967 0)
(1.13465 -0.0104403 0)
(1.1417 -0.0106757 0)
(1.1489 -0.0109022 0)
(1.15625 -0.0111191 0)
(1.16374 -0.0113257 0)
(1.17136 -0.0115211 0)
(1.17912 -0.0117047 0)
(1.18699 -0.011876 0)
(1.19497 -0.0120343 0)
(1.20305 -0.012179 0)
(1.21123 -0.0123099 0)
(1.21948 -0.0124263 0)
(1.22782 -0.0125281 0)
(1.23621 -0.012615 0)
(1.24466 -0.0126868 0)
(1.25315 -0.0127434 0)
(1.26167 -0.0127849 0)
(1.27021 -0.0128114 0)
(1.27877 -0.0128229 0)
(1.28733 -0.0128197 0)
(1.29588 -0.0128022 0)
(1.30442 -0.0127708 0)
(1.31293 -0.0127259 0)
(1.32141 -0.012668 0)
(1.32984 -0.0125977 0)
(1.33822 -0.0125156 0)
(1.34654 -0.0124224 0)
(1.3548 -0.0123189 0)
(1.36298 -0.0122057 0)
(1.37109 -0.0120836 0)
(1.37911 -0.0119534 0)
(1.38704 -0.0118159 0)
(1.39487 -0.0116719 0)
(1.40261 -0.0115222 0)
(1.41025 -0.0113676 0)
(1.41778 -0.0112088 0)
(1.4252 -0.0110466 0)
(1.43251 -0.0108818 0)
(1.43971 -0.010715 0)
(1.4468 -0.010547 0)
(1.45378 -0.0103784 0)
(1.46064 -0.0102097 0)
(1.46739 -0.0100417 0)
(1.47403 -0.00987483 0)
(1.48056 -0.00970956 0)
(1.48698 -0.00954636 0)
(1.49329 -0.00938565 0)
(1.49949 -0.00922779 0)
(1.50559 -0.00907311 0)
(1.51158 -0.00892187 0)
(1.51748 -0.00877433 0)
(1.52328 -0.00863065 0)
(1.52898 -0.00849101 0)
(1.5346 -0.00835549 0)
(1.54012 -0.00822418 0)
(1.54556 -0.00809709 0)
(1.55091 -0.00797423 0)
(1.55619 -0.00785554 0)
(1.56138 -0.00774096 0)
(1.56651 -0.00763037 0)
(1.57155 -0.00752364 0)
(1.57653 -0.0074206 0)
(1.58145 -0.00732106 0)
(1.58629 -0.0072248 0)
(1.59108 -0.0071316 0)
(1.5958 -0.0070412 0)
(1.60046 -0.00695332 0)
(1.60507 -0.00686769 0)
(1.60962 -0.006784 0)
(1.61411 -0.00670195 0)
(1.61855 -0.00662122 0)
(1.62294 -0.00654148 0)
(1.62727 -0.00646243 0)
(1.63156 -0.00638371 0)
(1.63579 -0.00630502 0)
(1.63996 -0.00622601 0)
(1.64409 -0.00614637 0)
(1.64816 -0.00606578 0)
(1.65218 -0.00598392 0)
(1.65614 -0.00590049 0)
(1.66005 -0.0058152 0)
(1.6639 -0.00572776 0)
(1.66769 -0.00563789 0)
(1.67142 -0.00554534 0)
(1.67509 -0.00544986 0)
(1.67869 -0.00535121 0)
(1.68223 -0.00524919 0)
(1.6857 -0.00514357 0)
(1.68909 -0.00503419 0)
(1.69241 -0.00492086 0)
(1.69566 -0.00480344 0)
(1.69882 -0.00468179 0)
(1.70191 -0.00455578 0)
(1.7049 -0.00442531 0)
(1.70781 -0.00429029 0)
(1.71063 -0.00415065 0)
(1.71335 -0.00400634 0)
(1.71598 -0.00385731 0)
(1.7185 -0.00370354 0)
(1.72092 -0.00354501 0)
(1.72324 -0.00338173 0)
(1.72544 -0.00321371 0)
(1.72753 -0.00304098 0)
(1.7295 -0.00286358 0)
(1.73135 -0.00268156 0)
(1.73308 -0.00249497 0)
(1.73468 -0.0023039 0)
(1.73616 -0.00210841 0)
(1.7375 -0.00190859 0)
(1.73871 -0.00170454 0)
(1.73978 -0.00149636 0)
(1.74071 -0.00128416 0)
(1.74149 -0.00106805 0)
(1.74214 -0.00084814 0)
(1.74263 -0.000624559 0)
(1.74297 -0.000397433 0)
(1.74316 -0.000166888 0)
(1.7432 6.69444e-05 0)
(1.74308 0.000303927 0)
(1.7428 0.000543923 0)
(1.74236 0.000786796 0)
(1.74175 0.0010324 0)
(1.74098 0.00128061 0)
(1.74005 0.00153126 0)
(1.73894 0.00178422 0)
(1.73767 0.00203934 0)
(1.73623 0.00229647 0)
(1.73461 0.00255545 0)
(1.73282 0.00281614 0)
(1.73085 0.00307839 0)
(1.72872 0.00334202 0)
(1.7264 0.00360689 0)
(1.72391 0.00387284 0)
(1.72124 0.00413968 0)
(1.71839 0.00440726 0)
(1.71536 0.00467539 0)
(1.71215 0.0049439 0)
(1.70877 0.00521261 0)
(1.7052 0.00548131 0)
(1.70146 0.00574983 0)
(1.69753 0.00601794 0)
(1.69343 0.00628545 0)
(1.68915 0.00655214 0)
(1.68469 0.00681779 0)
(1.68005 0.00708217 0)
(1.67524 0.00734503 0)
(1.67026 0.00760615 0)
(1.6651 0.00786526 0)
(1.65977 0.0081221 0)
(1.65426 0.00837643 0)
(1.64859 0.00862795 0)
(1.64275 0.0088764 0)
(1.63675 0.00912149 0)
(1.63058 0.00936294 0)
(1.62426 0.00960045 0)
(1.61778 0.00983373 0)
(1.61114 0.0100625 0)
(1.60435 0.0102864 0)
(1.59741 0.0105052 0)
(1.59033 0.0107186 0)
(1.58311 0.0109262 0)
(1.57576 0.0111279 0)
(1.56827 0.0113232 0)
(1.56065 0.0115119 0)
(1.55291 0.0116938 0)
(1.54504 0.0118686 0)
(1.53707 0.0120359 0)
(1.52898 0.0121957 0)
(1.52079 0.0123476 0)
(1.51251 0.0124914 0)
(1.50413 0.012627 0)
(1.49566 0.0127541 0)
(1.48711 0.0128727 0)
(1.47848 0.0129824 0)
(1.46978 0.0130833 0)
(1.46102 0.0131753 0)
(1.4522 0.0132582 0)
(1.44333 0.013332 0)
(1.43441 0.0133967 0)
(1.42545 0.0134523 0)
(1.41646 0.0134988 0)
(1.40744 0.0135362 0)
(1.3984 0.0135647 0)
(1.38934 0.0135842 0)
(1.38027 0.013595 0)
(1.3712 0.0135972 0)
(1.36213 0.0135909 0)
(1.35306 0.0135764 0)
(1.34401 0.0135537 0)
(1.33498 0.0135232 0)
(1.32597 0.0134852 0)
(1.31699 0.0134397 0)
(1.30804 0.0133872 0)
(1.29912 0.0133279 0)
(1.29025 0.0132621 0)
(1.28143 0.0131902 0)
(1.27266 0.0131123 0)
(1.26394 0.013029 0)
(1.25527 0.0129403 0)
(1.24667 0.0128468 0)
(1.23814 0.0127488 0)
(1.22967 0.0126465 0)
(1.22127 0.0125402 0)
(1.21294 0.0124304 0)
(1.20469 0.0123173 0)
(1.19651 0.0122012 0)
(1.18841 0.0120825 0)
(1.18039 0.0119613 0)
(1.17245 0.011838 0)
(1.16461 0.0117127 0)
(1.15682 0.0115861 0)
(1.1492 0.0114576 0)
(1.14145 0.0113284 0)
(1.13428 0.0111979 0)
(1.12606 0.0110634 0)
(1.12051 0.0109435 0)
(1.10871 0.010763 0)
(1.00001 -0.00020094 0)
(1.00017 -0.000603051 0)
(1.00048 -0.0010057 0)
(1.00096 -0.00140926 0)
(1.00161 -0.00181412 0)
(1.00241 -0.00222067 0)
(1.00338 -0.00262927 0)
(1.00451 -0.00304025 0)
(1.00581 -0.00345391 0)
(1.00727 -0.00387056 0)
(1.0089 -0.00429047 0)
(1.0107 -0.00471387 0)
(1.01267 -0.00514097 0)
(1.01481 -0.00557195 0)
(1.01712 -0.00600694 0)
(1.01961 -0.00644604 0)
(1.02227 -0.00688927 0)
(1.02511 -0.00733664 0)
(1.02813 -0.0077881 0)
(1.03134 -0.00824351 0)
(1.03473 -0.00870272 0)
(1.0383 -0.00916547 0)
(1.04205 -0.00963146 0)
(1.046 -0.0101003 0)
(1.05013 -0.0105716 0)
(1.05446 -0.0110448 0)
(1.05897 -0.0115194 0)
(1.06367 -0.0119945 0)
(1.06857 -0.0124696 0)
(1.07365 -0.0129438 0)
(1.07893 -0.0134163 0)
(1.0844 -0.013886 0)
(1.09005 -0.0143519 0)
(1.09589 -0.0148131 0)
(1.10191 -0.0152682 0)
(1.10812 -0.0157162 0)
(1.11451 -0.0161558 0)
(1.12107 -0.0165858 0)
(1.1278 -0.0170049 0)
(1.1347 -0.0174117 0)
(1.14176 -0.0178049 0)
(1.14897 -0.0181834 0)
(1.15634 -0.0185457 0)
(1.16384 -0.0188907 0)
(1.17149 -0.0192172 0)
(1.17926 -0.019524 0)
(1.18715 -0.01981 0)
(1.19515 -0.0200744 0)
(1.20325 -0.0203162 0)
(1.21145 -0.0205347 0)
(1.21973 -0.0207291 0)
(1.22808 -0.020899 0)
(1.2365 -0.021044 0)
(1.24497 -0.0211637 0)
(1.25348 -0.0212581 0)
(1.26203 -0.0213272 0)
(1.2706 -0.021371 0)
(1.27918 -0.0213899 0)
(1.28776 -0.0213843 0)
(1.29633 -0.0213547 0)
(1.30489 -0.0213017 0)
(1.31342 -0.0212262 0)
(1.32192 -0.0211291 0)
(1.33037 -0.0210112 0)
(1.33877 -0.0208736 0)
(1.34711 -0.0207175 0)
(1.35538 -0.020544 0)
(1.36358 -0.0203545 0)
(1.3717 -0.0201501 0)
(1.37973 -0.0199322 0)
(1.38767 -0.0197021 0)
(1.39552 -0.0194612 0)
(1.40326 -0.0192108 0)
(1.41091 -0.0189521 0)
(1.41844 -0.0186866 0)
(1.42587 -0.0184154 0)
(1.43319 -0.0181399 0)
(1.44039 -0.0178612 0)
(1.44749 -0.0175804 0)
(1.45447 -0.0172986 0)
(1.46133 -0.0170169 0)
(1.46808 -0.0167363 0)
(1.47472 -0.0164575 0)
(1.48125 -0.0161816 0)
(1.48767 -0.0159091 0)
(1.49398 -0.0156408 0)
(1.50018 -0.0153773 0)
(1.50627 -0.0151192 0)
(1.51227 -0.0148668 0)
(1.51816 -0.0146207 0)
(1.52395 -0.0143811 0)
(1.52966 -0.0141482 0)
(1.53527 -0.0139222 0)
(1.54079 -0.0137033 0)
(1.54622 -0.0134915 0)
(1.55157 -0.0132868 0)
(1.55684 -0.013089 0)
(1.56203 -0.0128982 0)
(1.56715 -0.012714 0)
(1.5722 -0.0125363 0)
(1.57717 -0.0123647 0)
(1.58208 -0.0121991 0)
(1.58692 -0.0120389 0)
(1.59171 -0.0118838 0)
(1.59643 -0.0117334 0)
(1.60109 -0.0115873 0)
(1.60569 -0.0114449 0)
(1.61024 -0.0113057 0)
(1.61473 -0.0111693 0)
(1.61917 -0.0110351 0)
(1.62356 -0.0109026 0)
(1.6279 -0.0107712 0)
(1.63218 -0.0106404 0)
(1.63641 -0.0105095 0)
(1.64059 -0.0103782 0)
(1.64472 -0.0102458 0)
(1.64879 -0.0101118 0)
(1.65282 -0.00997572 0)
(1.65678 -0.00983699 0)
(1.66069 -0.00969513 0)
(1.66455 -0.00954968 0)
(1.66834 -0.00940017 0)
(1.67208 -0.00924618 0)
(1.67575 -0.00908728 0)
(1.67936 -0.00892309 0)
(1.6829 -0.00875324 0)
(1.68637 -0.0085774 0)
(1.68978 -0.00839526 0)
(1.6931 -0.00820653 0)
(1.69636 -0.00801095 0)
(1.69953 -0.00780829 0)
(1.70262 -0.00759836 0)
(1.70562 -0.00738097 0)
(1.70854 -0.00715599 0)
(1.71136 -0.00692329 0)
(1.71409 -0.00668278 0)
(1.71672 -0.00643439 0)
(1.71926 -0.00617808 0)
(1.72168 -0.00591382 0)
(1.724 -0.00564163 0)
(1.72621 -0.00536153 0)
(1.72831 -0.00507356 0)
(1.73029 -0.00477779 0)
(1.73214 -0.00447431 0)
(1.73388 -0.00416321 0)
(1.73549 -0.00384461 0)
(1.73697 -0.00351865 0)
(1.73832 -0.00318547 0)
(1.73953 -0.00284523 0)
(1.74061 -0.0024981 0)
(1.74154 -0.00214425 0)
(1.74234 -0.00178388 0)
(1.74298 -0.00141718 0)
(1.74348 -0.00104435 0)
(1.74383 -0.000665612 0)
(1.74402 -0.000281172 0)
(1.74406 0.000108747 0)
(1.74395 0.000503924 0)
(1.74367 0.00090413 0)
(1.74323 0.00130913 0)
(1.74263 0.0017187 0)
(1.74186 0.00213259 0)
(1.74093 0.00255056 0)
(1.73983 0.00297238 0)
(1.73856 0.0033978 0)
(1.73711 0.00382657 0)
(1.7355 0.00425844 0)
(1.73371 0.00469316 0)
(1.73175 0.00513047 0)
(1.72961 0.0055701 0)
(1.72729 0.00601179 0)
(1.7248 0.00645527 0)
(1.72213 0.00690026 0)
(1.71928 0.00734648 0)
(1.71625 0.00779363 0)
(1.71304 0.00824141 0)
(1.70965 0.00868952 0)
(1.70609 0.00913764 0)
(1.70234 0.00958544 0)
(1.69841 0.0100326 0)
(1.69431 0.0104787 0)
(1.69003 0.0109235 0)
(1.68556 0.0113666 0)
(1.68092 0.0118075 0)
(1.67611 0.012246 0)
(1.67112 0.0126815 0)
(1.66595 0.0131137 0)
(1.66062 0.0135421 0)
(1.65511 0.0139663 0)
(1.64943 0.0143859 0)
(1.64358 0.0148003 0)
(1.63757 0.0152092 0)
(1.6314 0.015612 0)
(1.62507 0.0160082 0)
(1.61858 0.0163974 0)
(1.61193 0.016779 0)
(1.60513 0.0171526 0)
(1.59819 0.0175176 0)
(1.5911 0.0178736 0)
(1.58386 0.01822 0)
(1.5765 0.0185565 0)
(1.56899 0.0188824 0)
(1.56136 0.0191973 0)
(1.55361 0.0195007 0)
(1.54574 0.0197923 0)
(1.53775 0.0200716 0)
(1.52965 0.0203381 0)
(1.52145 0.0205915 0)
(1.51314 0.0208315 0)
(1.50475 0.0210576 0)
(1.49626 0.0212697 0)
(1.4877 0.0214674 0)
(1.47906 0.0216505 0)
(1.47034 0.0218188 0)
(1.46157 0.0219722 0)
(1.45273 0.0221104 0)
(1.44384 0.0222335 0)
(1.43491 0.0223413 0)
(1.42594 0.0224339 0)
(1.41693 0.0225113 0)
(1.40789 0.0225736 0)
(1.39883 0.0226209 0)
(1.38976 0.0226534 0)
(1.38068 0.0226712 0)
(1.37159 0.0226747 0)
(1.3625 0.022664 0)
(1.35342 0.0226394 0)
(1.34436 0.0226015 0)
(1.33531 0.0225504 0)
(1.32629 0.0224866 0)
(1.31729 0.0224105 0)
(1.30833 0.0223227 0)
(1.29941 0.0222235 0)
(1.29052 0.0221135 0)
(1.28169 0.0219932 0)
(1.2729 0.021863 0)
(1.26417 0.0217237 0)
(1.2555 0.0215756 0)
(1.24689 0.0214194 0)
(1.23834 0.0212555 0)
(1.22987 0.0210846 0)
(1.22146 0.0209072 0)
(1.21312 0.0207238 0)
(1.20486 0.0205349 0)
(1.19668 0.020341 0)
(1.18857 0.0201427 0)
(1.18055 0.0199405 0)
(1.1726 0.0197346 0)
(1.16476 0.0195257 0)
(1.15696 0.019314 0)
(1.14933 0.0191005 0)
(1.14158 0.0188833 0)
(1.13441 0.0186696 0)
(1.12618 0.018439 0)
(1.12064 0.0182541 0)
(1.10883 0.0179344 0)
(1.00001 -0.000281104 0)
(1.00017 -0.000843584 0)
(1.00048 -0.00140683 0)
(1.00096 -0.00197138 0)
(1.0016 -0.00253778 0)
(1.00241 -0.00310656 0)
(1.00337 -0.00367823 0)
(1.0045 -0.00425324 0)
(1.0058 -0.00483205 0)
(1.00726 -0.00541508 0)
(1.00888 -0.00600271 0)
(1.01068 -0.00659527 0)
(1.01264 -0.00719308 0)
(1.01478 -0.00779636 0)
(1.01708 -0.00840533 0)
(1.01957 -0.00902009 0)
(1.02223 -0.00964073 0)
(1.02507 -0.0102672 0)
(1.02809 -0.0108995 0)
(1.03129 -0.0115375 0)
(1.03467 -0.0121808 0)
(1.03824 -0.0128292 0)
(1.042 -0.0134822 0)
(1.04594 -0.0141393 0)
(1.05007 -0.0148 0)
(1.05439 -0.0154634 0)
(1.05891 -0.0161288 0)
(1.06362 -0.0167952 0)
(1.06851 -0.0174616 0)
(1.0736 -0.0181268 0)
(1.07888 -0.0187896 0)
(1.08436 -0.0194487 0)
(1.09002 -0.0201027 0)
(1.09587 -0.0207499 0)
(1.1019 -0.0213889 0)
(1.10812 -0.0220179 0)
(1.11452 -0.0226353 0)
(1.1211 -0.0232391 0)
(1.12785 -0.0238277 0)
(1.13476 -0.0243991 0)
(1.14184 -0.0249516 0)
(1.14908 -0.0254832 0)
(1.15647 -0.0259923 0)
(1.164 -0.026477 0)
(1.17167 -0.0269357 0)
(1.17947 -0.0273668 0)
(1.18739 -0.0277687 0)
(1.19542 -0.0281401 0)
(1.20356 -0.0284797 0)
(1.21178 -0.0287865 0)
(1.2201 -0.0290596 0)
(1.22848 -0.029298 0)
(1.23694 -0.0295014 0)
(1.24544 -0.0296692 0)
(1.25399 -0.0298014 0)
(1.26257 -0.0298979 0)
(1.27117 -0.0299589 0)
(1.27978 -0.0299848 0)
(1.2884 -0.0299762 0)
(1.297 -0.0299338 0)
(1.30559 -0.0298586 0)
(1.31415 -0.0297517 0)
(1.32268 -0.0296143 0)
(1.33116 -0.0294477 0)
(1.33959 -0.0292535 0)
(1.34795 -0.0290333 0)
(1.35625 -0.0287887 0)
(1.36447 -0.0285215 0)
(1.37261 -0.0282335 0)
(1.38066 -0.0279265 0)
(1.38862 -0.0276025 0)
(1.39648 -0.0272633 0)
(1.40424 -0.0269108 0)
(1.4119 -0.0265468 0)
(1.41944 -0.0261733 0)
(1.42688 -0.0257919 0)
(1.43421 -0.0254044 0)
(1.44142 -0.0250125 0)
(1.44852 -0.0246178 0)
(1.4555 -0.0242219 0)
(1.46237 -0.0238261 0)
(1.46912 -0.0234319 0)
(1.47576 -0.0230404 0)
(1.48229 -0.0226529 0)
(1.4887 -0.0222704 0)
(1.49501 -0.0218939 0)
(1.50121 -0.0215242 0)
(1.5073 -0.0211621 0)
(1.51329 -0.0208082 0)
(1.51918 -0.0204631 0)
(1.52497 -0.0201272 0)
(1.53066 -0.0198009 0)
(1.53627 -0.0194844 0)
(1.54178 -0.0191778 0)
(1.54721 -0.0188812 0)
(1.55255 -0.0185946 0)
(1.55782 -0.0183179 0)
(1.563 -0.0180509 0)
(1.56812 -0.0177934 0)
(1.57316 -0.0175449 0)
(1.57813 -0.0173052 0)
(1.58303 -0.0170737 0)
(1.58787 -0.01685 0)
(1.59265 -0.0166334 0)
(1.59736 -0.0164235 0)
(1.60202 -0.0162195 0)
(1.60663 -0.0160208 0)
(1.61117 -0.0158267 0)
(1.61567 -0.0156364 0)
(1.62011 -0.0154492 0)
(1.62449 -0.0152644 0)
(1.62883 -0.0150812 0)
(1.63312 -0.0148988 0)
(1.63735 -0.0147164 0)
(1.64153 -0.0145332 0)
(1.64566 -0.0143486 0)
(1.64974 -0.0141617 0)
(1.65377 -0.0139718 0)
(1.65774 -0.0137782 0)
(1.66166 -0.0135803 0)
(1.66552 -0.0133772 0)
(1.66932 -0.0131685 0)
(1.67306 -0.0129534 0)
(1.67674 -0.0127315 0)
(1.68036 -0.0125021 0)
(1.68391 -0.0122647 0)
(1.68739 -0.0120189 0)
(1.6908 -0.0117643 0)
(1.69414 -0.0115004 0)
(1.6974 -0.0112268 0)
(1.70058 -0.0109434 0)
(1.70368 -0.0106496 0)
(1.7067 -0.0103455 0)
(1.70962 -0.0100306 0)
(1.71246 -0.00970488 0)
(1.7152 -0.0093682 0)
(1.71784 -0.00902045 0)
(1.72038 -0.00866157 0)
(1.72282 -0.00829155 0)
(1.72515 -0.00791038 0)
(1.72737 -0.0075181 0)
(1.72948 -0.00711478 0)
(1.73147 -0.00670051 0)
(1.73333 -0.00627541 0)
(1.73508 -0.00583963 0)
(1.7367 -0.00539333 0)
(1.73819 -0.0049367 0)
(1.73954 -0.00446994 0)
(1.74077 -0.00399328 0)
(1.74185 -0.00350695 0)
(1.74279 -0.00301121 0)
(1.74359 -0.00250633 0)
(1.74425 -0.00199257 0)
(1.74475 -0.00147022 0)
(1.74511 -0.00093959 0)
(1.74531 -0.000400968 0)
(1.74536 0.000145333 0)
(1.74524 0.000699001 0)
(1.74497 0.00125972 0)
(1.74454 0.00182715 0)
(1.74394 0.00240098 0)
(1.74318 0.00298087 0)
(1.74225 0.00356648 0)
(1.74115 0.00415748 0)
(1.73988 0.00475352 0)
(1.73844 0.00535426 0)
(1.73683 0.00595935 0)
(1.73504 0.00656843 0)
(1.73308 0.00718114 0)
(1.73095 0.00779711 0)
(1.72863 0.00841597 0)
(1.72614 0.00903735 0)
(1.72347 0.00966085 0)
(1.72062 0.0102861 0)
(1.71759 0.0109126 0)
(1.71438 0.0115401 0)
(1.71099 0.012168 0)
(1.70742 0.0127959 0)
(1.70367 0.0134234 0)
(1.69974 0.01405 0)
(1.69563 0.0146753 0)
(1.69134 0.0152986 0)
(1.68687 0.0159195 0)
(1.68223 0.0165375 0)
(1.67741 0.017152 0)
(1.67241 0.0177624 0)
(1.66724 0.0183682 0)
(1.66189 0.0189688 0)
(1.65637 0.0195634 0)
(1.65069 0.0201516 0)
(1.64483 0.0207325 0)
(1.63881 0.0213057 0)
(1.63263 0.0218704 0)
(1.62628 0.0224259 0)
(1.61978 0.0229716 0)
(1.61312 0.0235066 0)
(1.60631 0.0240304 0)
(1.59934 0.0245423 0)
(1.59224 0.0250414 0)
(1.58499 0.0255272 0)
(1.57761 0.025999 0)
(1.57009 0.026456 0)
(1.56244 0.0268976 0)
(1.55466 0.0273231 0)
(1.54677 0.027732 0)
(1.53876 0.0281236 0)
(1.53064 0.0284973 0)
(1.52242 0.0288527 0)
(1.5141 0.0291891 0)
(1.50568 0.0295063 0)
(1.49717 0.0298036 0)
(1.48859 0.0300807 0)
(1.47992 0.0303374 0)
(1.47119 0.0305733 0)
(1.46239 0.0307882 0)
(1.45353 0.0309819 0)
(1.44462 0.0311543 0)
(1.43566 0.0313053 0)
(1.42666 0.0314349 0)
(1.41763 0.0315432 0)
(1.40857 0.0316303 0)
(1.39949 0.0316963 0)
(1.39039 0.0317415 0)
(1.38128 0.0317661 0)
(1.37217 0.0317705 0)
(1.36307 0.0317551 0)
(1.35397 0.0317203 0)
(1.34488 0.0316666 0)
(1.33581 0.0315944 0)
(1.32677 0.0315045 0)
(1.31775 0.0313974 0)
(1.30877 0.0312737 0)
(1.29983 0.0311341 0)
(1.29093 0.0309793 0)
(1.28208 0.0308101 0)
(1.27327 0.0306272 0)
(1.26453 0.0304313 0)
(1.25584 0.0302231 0)
(1.24722 0.0300036 0)
(1.23866 0.0297734 0)
(1.23016 0.0295333 0)
(1.22174 0.0292841 0)
(1.2134 0.0290266 0)
(1.20512 0.0287613 0)
(1.19693 0.0284892 0)
(1.18882 0.0282109 0)
(1.18079 0.027927 0)
(1.17283 0.0276381 0)
(1.16498 0.0273451 0)
(1.15717 0.027048 0)
(1.14954 0.0267488 0)
(1.14178 0.0264438 0)
(1.1346 0.0261455 0)
(1.12636 0.0258206 0)
(1.12082 0.0255649 0)
(1.109 0.0251112 0)
(1.00001 -0.000361025 0)
(1.00017 -0.00108343 0)
(1.00048 -0.00180683 0)
(1.00096 -0.00253193 0)
(1.0016 -0.00325945 0)
(1.0024 -0.00399006 0)
(1.00336 -0.00472441 0)
(1.00449 -0.00546311 0)
(1.00578 -0.00620674 0)
(1.00723 -0.00695586 0)
(1.00886 -0.00771097 0)
(1.01064 -0.0084725 0)
(1.0126 -0.00924086 0)
(1.01473 -0.0100164 0)
(1.01704 -0.0107993 0)
(1.01952 -0.0115897 0)
(1.02217 -0.0123879 0)
(1.02501 -0.0131937 0)
(1.02802 -0.0140071 0)
(1.03122 -0.0148279 0)
(1.0346 -0.0156558 0)
(1.03816 -0.0164903 0)
(1.04191 -0.017331 0)
(1.04586 -0.0181771 0)
(1.04999 -0.019028 0)
(1.05431 -0.0198825 0)
(1.05883 -0.0207398 0)
(1.06354 -0.0215985 0)
(1.06844 -0.0224574 0)
(1.07353 -0.023315 0)
(1.07882 -0.0241697 0)
(1.0843 -0.0250198 0)
(1.08997 -0.0258633 0)
(1.09583 -0.0266984 0)
(1.10188 -0.027523 0)
(1.10812 -0.0283349 0)
(1.11454 -0.0291318 0)
(1.12113 -0.0299114 0)
(1.1279 -0.0306714 0)
(1.13485 -0.0314094 0)
(1.14195 -0.0321229 0)
(1.14922 -0.0328097 0)
(1.15664 -0.0334673 0)
(1.16421 -0.0340935 0)
(1.17191 -0.0346861 0)
(1.17975 -0.035243 0)
(1.18771 -0.0357622 0)
(1.19578 -0.0362419 0)
(1.20396 -0.0366805 0)
(1.21223 -0.0370766 0)
(1.22059 -0.037429 0)
(1.22902 -0.0377367 0)
(1.23751 -0.0379988 0)
(1.24606 -0.038215 0)
(1.25466 -0.038385 0)
(1.26328 -0.0385087 0)
(1.27193 -0.0385865 0)
(1.28059 -0.0386188 0)
(1.28925 -0.0386064 0)
(1.2979 -0.0385504 0)
(1.30653 -0.0384518 0)
(1.31513 -0.0383122 0)
(1.3237 -0.0381331 0)
(1.33222 -0.0379164 0)
(1.34068 -0.037664 0)
(1.34908 -0.0373779 0)
(1.35741 -0.0370604 0)
(1.36566 -0.0367137 0)
(1.37382 -0.0363402 0)
(1.3819 -0.0359423 0)
(1.38988 -0.0355224 0)
(1.39777 -0.035083 0)
(1.40555 -0.0346264 0)
(1.41322 -0.0341553 0)
(1.42078 -0.0336718 0)
(1.42823 -0.0331784 0)
(1.43557 -0.0326772 0)
(1.44279 -0.0321705 0)
(1.44989 -0.0316604 0)
(1.45688 -0.0311487 0)
(1.46375 -0.0306374 0)
(1.47051 -0.0301283 0)
(1.47715 -0.0296229 0)
(1.48367 -0.0291228 0)
(1.49008 -0.0286292 0)
(1.49639 -0.0281436 0)
(1.50258 -0.0276669 0)
(1.50867 -0.0272001 0)
(1.51465 -0.0267441 0)
(1.52053 -0.0262996 0)
(1.52631 -0.025867 0)
(1.532 -0.0254469 0)
(1.5376 -0.0250396 0)
(1.5431 -0.0246452 0)
(1.54852 -0.0242639 0)
(1.55386 -0.0238955 0)
(1.55912 -0.02354 0)
(1.56429 -0.0231971 0)
(1.5694 -0.0228664 0)
(1.57443 -0.0225475 0)
(1.5794 -0.02224 0)
(1.58429 -0.0219432 0)
(1.58913 -0.0216564 0)
(1.5939 -0.021379 0)
(1.59861 -0.0211101 0)
(1.60327 -0.0208489 0)
(1.60787 -0.0205946 0)
(1.61241 -0.0203462 0)
(1.61691 -0.0201027 0)
(1.62134 -0.0198633 0)
(1.62573 -0.019627 0)
(1.63007 -0.0193926 0)
(1.63436 -0.0191594 0)
(1.63859 -0.0189261 0)
(1.64278 -0.0186919 0)
(1.64692 -0.0184557 0)
(1.651 -0.0182166 0)
(1.65503 -0.0179737 0)
(1.65901 -0.0177259 0)
(1.66294 -0.0174724 0)
(1.6668 -0.0172124 0)
(1.67062 -0.016945 0)
(1.67437 -0.0166695 0)
(1.67806 -0.016385 0)
(1.68169 -0.0160908 0)
(1.68525 -0.0157864 0)
(1.68874 -0.0154711 0)
(1.69217 -0.0151443 0)
(1.69552 -0.0148055 0)
(1.69879 -0.0144542 0)
(1.70199 -0.0140901 0)
(1.7051 -0.0137128 0)
(1.70813 -0.013322 0)
(1.71107 -0.0129174 0)
(1.71392 -0.0124987 0)
(1.71667 -0.0120659 0)
(1.71933 -0.0116188 0)
(1.72188 -0.0111573 0)
(1.72434 -0.0106814 0)
(1.72668 -0.0101912 0)
(1.72891 -0.00968658 0)
(1.73103 -0.00916774 0)
(1.73303 -0.00863477 0)
(1.73492 -0.00808784 0)
(1.73667 -0.00752713 0)
(1.73831 -0.00695286 0)
(1.73981 -0.00636527 0)
(1.74118 -0.00576462 0)
(1.74241 -0.00515122 0)
(1.7435 -0.00452536 0)
(1.74446 -0.00388737 0)
(1.74527 -0.0032376 0)
(1.74593 -0.0025764 0)
(1.74645 -0.00190415 0)
(1.74681 -0.00122122 0)
(1.74702 -0.00052801 0)
(1.74708 0.000175091 0)
(1.74697 0.000887672 0)
(1.74671 0.00160932 0)
(1.74628 0.00233962 0)
(1.74569 0.00307815 0)
(1.74493 0.00382447 0)
(1.74401 0.00457817 0)
(1.74291 0.0053388 0)
(1.74165 0.00610593 0)
(1.74021 0.0068791 0)
(1.73861 0.00765787 0)
(1.73682 0.00844178 0)
(1.73486 0.00923037 0)
(1.73272 0.0100232 0)
(1.73041 0.0108197 0)
(1.72792 0.0116195 0)
(1.72525 0.012422 0)
(1.7224 0.0132267 0)
(1.71936 0.0140332 0)
(1.71615 0.0148409 0)
(1.71276 0.0156492 0)
(1.70919 0.0164575 0)
(1.70543 0.0172653 0)
(1.7015 0.018072 0)
(1.69738 0.0188769 0)
(1.69309 0.0196794 0)
(1.68862 0.0204789 0)
(1.68396 0.0212746 0)
(1.67913 0.0220658 0)
(1.67413 0.0228518 0)
(1.66894 0.0236319 0)
(1.66359 0.0244053 0)
(1.65806 0.0251711 0)
(1.65236 0.0259286 0)
(1.64649 0.0266769 0)
(1.64046 0.0274151 0)
(1.63426 0.0281425 0)
(1.62789 0.0288581 0)
(1.62137 0.029561 0)
(1.6147 0.0302503 0)
(1.60787 0.0309251 0)
(1.60089 0.0315846 0)
(1.59376 0.0322277 0)
(1.58649 0.0328536 0)
(1.57908 0.0334614 0)
(1.57154 0.0340503 0)
(1.56387 0.0346193 0)
(1.55607 0.0351676 0)
(1.54815 0.0356944 0)
(1.54011 0.036199 0)
(1.53197 0.0366806 0)
(1.52372 0.0371385 0)
(1.51537 0.037572 0)
(1.50692 0.0379805 0)
(1.49838 0.0383635 0)
(1.48977 0.0387205 0)
(1.48107 0.0390511 0)
(1.4723 0.0393548 0)
(1.46347 0.0396315 0)
(1.45458 0.0398808 0)
(1.44564 0.0401025 0)
(1.43665 0.0402968 0)
(1.42762 0.0404634 0)
(1.41856 0.0406024 0)
(1.40947 0.0407141 0)
(1.40036 0.0407986 0)
(1.39123 0.0408563 0)
(1.38209 0.0408874 0)
(1.37295 0.0408924 0)
(1.36381 0.0408718 0)
(1.35469 0.0408262 0)
(1.34557 0.0407562 0)
(1.33647 0.0406625 0)
(1.3274 0.0405458 0)
(1.31836 0.0404069 0)
(1.30936 0.0402467 0)
(1.30039 0.0400659 0)
(1.29146 0.0398657 0)
(1.28259 0.0396468 0)
(1.27377 0.0394102 0)
(1.265 0.0391569 0)
(1.25629 0.0388879 0)
(1.24765 0.0386043 0)
(1.23907 0.0383069 0)
(1.23056 0.0379968 0)
(1.22212 0.0376751 0)
(1.21376 0.0373425 0)
(1.20547 0.0370002 0)
(1.19727 0.0366491 0)