/*--------------------------------*- C++ -*----------------------------------*\
| =========                 |                                                 |
| \\      /  F ield         | OpenFOAM: The Open Source CFD Toolbox           |
|  \\    /   O peration     | Version:  2306                                  |
|   \\  /    A nd           | Website:  www.openfoam.com                      |
|    \\/     M anipulation  |                                                 |
\*---------------------------------------------------------------------------*/
FoamFile
{
    version     2.0;
    format      ascii;
    arch        "LSB;label=32;scalar=64";
    class       volScalarField;
    location    "0.5";
    object      Keff;
}
// * * * * * * * * * * * * * * * * * * * * * * * * * * * * * * * * * * * * * //

dimensions      [1 1 -3 -1 0 0 0];

internalField   nonuniform List<scalar> 
32768
(
67.2037
67.2019
67.1983
67.1926
67.1851
67.1755
67.1638
67.15
67.1339
67.1153
67.0938
67.0688
67.0399
67.0067
66.9692
66.9276
66.8824
66.8343
66.7839
66.7317
66.6783
66.624
66.5689
66.5133
66.4573
66.4007
66.3438
66.2865
66.2289
66.1709
66.1125
66.0539
65.995
65.9359
65.8766
65.8172
65.7578
65.6984
65.6392
65.5802
65.5215
65.4632
65.4054
65.3484
65.292
65.2366
65.1822
65.129
65.0771
65.0267
64.9778
64.9306
64.8853
64.842
64.8008
64.7618
64.7251
64.691
64.6594
64.6304
64.6042
64.5808
64.5603
64.5427
64.528
64.5164
64.5078
64.5023
64.4997
64.5002
64.5036
64.5101
64.5194
64.5315
64.5465
64.5641
64.5844
64.6073
64.6325
64.6602
64.69
64.722
64.756
64.7918
64.8294
64.8687
64.9094
64.9515
64.9948
65.0393
65.0847
65.131
65.178
65.2255
65.2736
65.322
65.3706
65.4194
65.4682
65.5169
65.5654
65.6137
65.6616
65.7091
65.756
65.8024
65.8482
65.8932
65.9375
65.981
66.0236
66.0654
66.1063
66.1462
66.1852
66.2231
66.2601
66.2962
66.3312
66.3651
66.3981
66.4301
66.4611
66.4911
66.5201
66.5481
66.5752
66.6014
66.6266
66.6509
66.6743
66.6969
66.7187
66.7396
66.7597
66.779
66.7976
66.8154
66.8325
66.8489
66.8647
66.8798
66.8943
66.9082
66.9215
66.9342
66.9464
66.9581
66.9693
66.98
66.9902
67
67.0094
67.0183
67.0269
67.035
67.0428
67.0503
67.0574
67.0642
67.0707
67.0769
67.0828
67.0885
67.0939
67.099
67.1039
67.1086
67.1131
67.1174
67.1214
67.1253
67.129
67.1325
67.1359
67.1391
67.1422
67.1451
67.1479
67.1505
67.153
67.1554
67.1577
67.1599
67.162
67.164
67.1659
67.1677
67.1694
67.171
67.1726
67.1741
67.1755
67.1768
67.1781
67.1793
67.1805
67.1816
67.1827
67.1837
67.1846
67.1856
67.1864
67.1873
67.188
67.1888
67.1895
67.1902
67.1908
67.1915
67.192
67.1926
67.1931
67.1936
67.1941
67.1946
67.195
67.1954
67.1958
67.1962
67.1966
67.1969
67.1972
67.1976
67.1978
67.1981
67.1984
67.1986
67.1989
67.1991
67.1993
67.1995
67.1997
67.1999
67.2001
67.2003
67.2004
67.2006
67.2007
67.2009
67.201
67.2011
67.2012
67.2013
67.2014
67.2015
67.2016
67.2017
67.2018
67.2019
67.2019
67.202
67.2021
67.2021
67.2022
67.2023
67.2037
67.2019
67.1983
67.1927
67.1851
67.1755
67.1638
67.15
67.1339
67.1153
67.0938
67.0688
67.0399
67.0067
66.9692
66.9276
66.8824
66.8343
66.7839
66.7318
66.6784
66.6241
66.569
66.5135
66.4574
66.4009
66.344
66.2867
66.229
66.1709
66.1125
66.0539
65.9949
65.9358
65.8764
65.817
65.7575
65.698
65.6387
65.5796
65.5208
65.4624
65.4046
65.3473
65.2909
65.2354
65.1809
65.1275
65.0755
65.0249
64.9759
64.9286
64.8832
64.8397
64.7984
64.7593
64.7226
64.6883
64.6566
64.6276
64.6013
64.5779
64.5573
64.5397
64.525
64.5134
64.5048
64.4992
64.4967
64.4972
64.5007
64.5071
64.5165
64.5287
64.5438
64.5615
64.5819
64.6048
64.6302
64.6579
64.6878
64.7199
64.754
64.79
64.8277
64.867
64.9079
64.9501
64.9936
65.0382
65.0837
65.1301
65.1772
65.2249
65.2731
65.3216
65.3703
65.4192
65.4681
65.5169
65.5655
65.6139
65.6619
65.7094
65.7565
65.8029
65.8487
65.8938
65.9381
65.9817
66.0244
66.0662
66.1071
66.147
66.186
66.224
66.261
66.2971
66.3321
66.3661
66.399
66.431
66.462
66.492
66.521
66.549
66.5761
66.6022
66.6274
66.6517
66.6752
66.6977
66.7194
66.7403
66.7604
66.7797
66.7983
66.8161
66.8332
66.8496
66.8653
66.8804
66.8949
66.9087
66.922
66.9348
66.9469
66.9586
66.9698
66.9804
66.9907
67.0004
67.0098
67.0187
67.0272
67.0354
67.0432
67.0506
67.0577
67.0645
67.071
67.0772
67.0831
67.0887
67.0941
67.0993
67.1042
67.1088
67.1133
67.1176
67.1216
67.1255
67.1292
67.1327
67.1361
67.1393
67.1423
67.1452
67.148
67.1506
67.1531
67.1555
67.1578
67.16
67.1621
67.1641
67.166
67.1678
67.1695
67.1711
67.1727
67.1741
67.1756
67.1769
67.1782
67.1794
67.1806
67.1817
67.1827
67.1837
67.1847
67.1856
67.1865
67.1873
67.1881
67.1888
67.1895
67.1902
67.1909
67.1915
67.1921
67.1926
67.1932
67.1937
67.1942
67.1946
67.195
67.1955
67.1959
67.1962
67.1966
67.1969
67.1973
67.1976
67.1979
67.1981
67.1984
67.1987
67.1989
67.1991
67.1993
67.1996
67.1997
67.1999
67.2001
67.2003
67.2004
67.2006
67.2007
67.2009
67.201
67.2011
67.2012
67.2013
67.2014
67.2015
67.2016
67.2017
67.2018
67.2019
67.2019
67.202
67.2021
67.2021
67.2022
67.2023
67.2037
67.2019
67.1983
67.1927
67.1851
67.1755
67.1638
67.15
67.134
67.1154
67.0938
67.0688
67.0399
67.0067
66.9692
66.9276
66.8825
66.8344
66.784
66.7319
66.6786
66.6243
66.5693
66.5137
66.4577
66.4011
66.3442
66.2869
66.2292
66.1711
66.1126
66.0539
65.9948
65.9356
65.8761
65.8165
65.7569
65.6973
65.6378
65.5785
65.5195
65.4609
65.4028
65.3453
65.2887
65.2329
65.1781
65.1245
65.0722
65.0214
64.9721
64.9246
64.8789
64.8353
64.7937
64.7544
64.7175
64.6831
64.6512
64.622
64.5956
64.572
64.5514
64.5337
64.519
64.5073
64.4987
64.4932
64.4907
64.4912
64.4948
64.5013
64.5108
64.5231
64.5383
64.5562
64.5767
64.5998
64.6254
64.6533
64.6835
64.7158
64.7501
64.7863
64.8242
64.8638
64.9049
64.9474
64.9911
65.0359
65.0817
65.1283
65.1757
65.2236
65.272
65.3208
65.3697
65.4188
65.4679
65.5169
65.5657
65.6143
65.6624
65.7101
65.7573
65.8039
65.8498
65.895
65.9395
65.9831
66.0259
66.0677
66.1087
66.1487
66.1877
66.2258
66.2628
66.2989
66.3339
66.3679
66.4009
66.4329
66.4638
66.4938
66.5228
66.5508
66.5778
66.604
66.6291
66.6534
66.6768
66.6993
66.721
66.7418
66.7619
66.7812
66.7997
66.8174
66.8345
66.8509
66.8666
66.8816
66.8961
66.9099
66.9231
66.9358
66.948
66.9596
66.9707
66.9813
66.9915
67.0013
67.0106
67.0195
67.028
67.0361
67.0439
67.0513
67.0584
67.0651
67.0716
67.0777
67.0836
67.0892
67.0946
67.0997
67.1046
67.1093
67.1137
67.1179
67.122
67.1258
67.1295
67.133
67.1364
67.1395
67.1426
67.1455
67.1482
67.1509
67.1534
67.1558
67.158
67.1602
67.1623
67.1643
67.1661
67.1679
67.1696
67.1713
67.1728
67.1743
67.1757
67.177
67.1783
67.1795
67.1807
67.1818
67.1828
67.1838
67.1848
67.1857
67.1865
67.1874
67.1882
67.1889
67.1896
67.1903
67.1909
67.1915
67.1921
67.1927
67.1932
67.1937
67.1942
67.1947
67.1951
67.1955
67.1959
67.1963
67.1966
67.197
67.1973
67.1976
67.1979
67.1982
67.1984
67.1987
67.1989
67.1991
67.1994
67.1996
67.1998
67.2
67.2001
67.2003
67.2005
67.2006
67.2007
67.2009
67.201
67.2011
67.2012
67.2014
67.2015
67.2016
67.2016
67.2017
67.2018
67.2019
67.202
67.202
67.2021
67.2021
67.2022
67.2023
67.2037
67.2019
67.1983
67.1927
67.1851
67.1755
67.1639
67.1501
67.134
67.1154
67.0939
67.0689
67.04
67.0068
66.9693
66.9277
66.8826
66.8345
66.7842
66.7321
66.6788
66.6246
66.5696
66.5141
66.4581
66.4016
66.3446
66.2873
66.2295
66.1713
66.1128
66.0539
65.9948
65.9353
65.8757
65.8159
65.756
65.6962
65.6364
65.5768
65.5175
65.4586
65.4002
65.3424
65.2853
65.2292
65.174
65.12
65.0674
65.0162
64.9665
64.9186
64.8726
64.8286
64.7867
64.7471
64.7098
64.6751
64.643
64.6136
64.587
64.5633
64.5425
64.5247
64.5099
64.4982
64.4896
64.484
64.4816
64.4822
64.4859
64.4926
64.5022
64.5147
64.5301
64.5482
64.569
64.5923
64.6182
64.6464
64.6769
64.7095
64.7442
64.7807
64.819
64.859
64.9005
64.9433
64.9874
65.0326
65.0787
65.1257
65.1735
65.2217
65.2705
65.3196
65.3689
65.4183
65.4677
65.517
65.566
65.6148
65.6632
65.7112
65.7586
65.8054
65.8515
65.8969
65.9414
65.9852
66.0281
66.0701
66.1111
66.1512
66.1903
66.2284
66.2655
66.3016
66.3367
66.3707
66.4037
66.4356
66.4666
66.4965
66.5255
66.5535
66.5805
66.6066
66.6317
66.6559
66.6793
66.7017
66.7234
66.7442
66.7641
66.7833
66.8018
66.8195
66.8365
66.8528
66.8684
66.8834
66.8978
66.9116
66.9248
66.9374
66.9495
66.9611
66.9721
66.9827
66.9928
67.0025
67.0118
67.0206
67.0291
67.0372
67.0449
67.0523
67.0593
67.066
67.0724
67.0786
67.0844
67.09
67.0953
67.1004
67.1053
67.1099
67.1143
67.1185
67.1225
67.1264
67.13
67.1335
67.1368
67.14
67.143
67.1459
67.1486
67.1512
67.1537
67.1561
67.1584
67.1605
67.1626
67.1645
67.1664
67.1682
67.1699
67.1715
67.173
67.1745
67.1759
67.1772
67.1785
67.1797
67.1808
67.1819
67.183
67.184
67.1849
67.1858
67.1867
67.1875
67.1883
67.189
67.1897
67.1904
67.191
67.1916
67.1922
67.1928
67.1933
67.1938
67.1943
67.1947
67.1952
67.1956
67.196
67.1963
67.1967
67.197
67.1973
67.1976
67.1979
67.1982
67.1985
67.1987
67.199
67.1992
67.1994
67.1996
67.1998
67.2
67.2002
67.2003
67.2005
67.2006
67.2008
67.2009
67.201
67.2011
67.2013
67.2014
67.2015
67.2016
67.2017
67.2017
67.2018
67.2019
67.202
67.202
67.2021
67.2022
67.2022
67.2023
67.2037
67.2019
67.1983
67.1927
67.1851
67.1755
67.1639
67.1501
67.1341
67.1155
67.094
67.069
67.04
67.0068
66.9693
66.9278
66.8827
66.8347
66.7844
66.7324
66.6792
66.625
66.5701
66.5147
66.4587
66.4022
66.3452
66.2878
66.23
66.1717
66.113
66.054
65.9947
65.935
65.8751
65.8151
65.7549
65.6947
65.6346
65.5746
65.5149
65.4555
65.3967
65.3384
65.2809
65.2242
65.1686
65.1141
65.0609
65.0091
64.959
64.9106
64.8641
64.8196
64.7772
64.7372
64.6996
64.6645
64.6321
64.6024
64.5755
64.5516
64.5306
64.5126
64.4978
64.486
64.4774
64.4718
64.4695
64.4702
64.474
64.4808
64.4907
64.5035
64.5191
64.5375
64.5586
64.5824
64.6086
64.6372
64.6681
64.7012
64.7363
64.7733
64.8121
64.8526
64.8945
64.9379
64.9825
65.0281
65.0748
65.1223
65.1705
65.2192
65.2685
65.318
65.3677
65.4176
65.4674
65.517
65.5665
65.6156
65.6644
65.7126
65.7603
65.8074
65.8537
65.8993
65.9441
65.9881
66.0311
66.0733
66.1144
66.1546
66.1938
66.232
66.2692
66.3053
66.3404
66.3744
66.4074
66.4394
66.4703
66.5002
66.5292
66.5571
66.5841
66.6101
66.6351
66.6593
66.6826
66.705
66.7265
66.7472
66.7671
66.7863
66.8046
66.8223
66.8392
66.8554
66.871
66.8859
66.9002
66.9138
66.927
66.9395
66.9515
66.963
66.974
66.9845
66.9946
67.0042
67.0134
67.0222
67.0306
67.0386
67.0463
67.0536
67.0606
67.0672
67.0736
67.0797
67.0855
67.091
67.0963
67.1014
67.1062
67.1108
67.1151
67.1193
67.1233
67.1271
67.1307
67.1342
67.1374
67.1406
67.1436
67.1464
67.1491
67.1517
67.1542
67.1566
67.1588
67.1609
67.163
67.1649
67.1668
67.1685
67.1702
67.1718
67.1733
67.1748
67.1762
67.1775
67.1787
67.1799
67.1811
67.1821
67.1832
67.1842
67.1851
67.186
67.1868
67.1876
67.1884
67.1892
67.1898
67.1905
67.1911
67.1918
67.1923
67.1929
67.1934
67.1939
67.1944
67.1948
67.1952
67.1956
67.196
67.1964
67.1967
67.1971
67.1974
67.1977
67.198
67.1983
67.1985
67.1988
67.199
67.1992
67.1994
67.1996
67.1998
67.2
67.2002
67.2004
67.2005
67.2007
67.2008
67.2009
67.2011
67.2012
67.2013
67.2014
67.2015
67.2016
67.2017
67.2018
67.2018
67.2019
67.202
67.2021
67.2021
67.2022
67.2022
67.2023
67.2037
67.2019
67.1983
67.1927
67.1851
67.1756
67.164
67.1502
67.1342
67.1156
67.0941
67.0691
67.0402
67.007
66.9694
66.9279
66.8829
66.8349
66.7847
66.7328
66.6797
66.6256
66.5708
66.5154
66.4594
66.4029
66.346
66.2885
66.2306
66.1722
66.1134
66.0542
65.9946
65.9347
65.8745
65.8141
65.7536
65.693
65.6324
65.5719
65.5117
65.4518
65.3923
65.3335
65.2753
65.218
65.1617
65.1066
65.0528
65.0004
64.9496
64.9005
64.8534
64.8083
64.7654
64.7248
64.6867
64.6512
64.6183
64.5883
64.5611
64.5368
64.5156
64.4975
64.4825
64.4707
64.462
64.4565
64.4542
64.4551
64.459
64.4661
64.4762
64.4893
64.5053
64.5241
64.5456
64.5698
64.5965
64.6257
64.6571
64.6907
64.7264
64.764
64.8034
64.8445
64.8871
64.9311
64.9763
65.0226
65.0699
65.118
65.1668
65.2161
65.2659
65.316
65.3663
65.4167
65.467
65.5172
65.5671
65.6167
65.6658
65.7145
65.7625
65.8099
65.8566
65.9025
65.9475
65.9917
66.035
66.0773
66.1186
66.1589
66.1982
66.2365
66.2737
66.3099
66.345
66.3791
66.4121
66.444
66.4749
66.5048
66.5337
66.5616
66.5885
66.6145
66.6395
66.6635
66.6867
66.709
66.7305
66.7511
66.7709
66.7899
66.8082
66.8257
66.8425
66.8586
66.8741
66.8889
66.9031
66.9167
66.9297
66.9421
66.9541
66.9655
66.9764
66.9868
66.9968
67.0063
67.0154
67.0241
67.0324
67.0404
67.048
67.0552
67.0621
67.0687
67.075
67.0811
67.0868
67.0923
67.0975
67.1025
67.1073
67.1118
67.1161
67.1203
67.1242
67.128
67.1315
67.135
67.1382
67.1413
67.1443
67.1471
67.1498
67.1523
67.1548
67.1571
67.1593
67.1614
67.1635
67.1654
67.1672
67.1689
67.1706
67.1722
67.1737
67.1751
67.1765
67.1778
67.179
67.1802
67.1813
67.1824
67.1834
67.1844
67.1853
67.1862
67.187
67.1878
67.1886
67.1893
67.19
67.1907
67.1913
67.1919
67.1925
67.193
67.1935
67.194
67.1945
67.1949
67.1953
67.1957
67.1961
67.1965
67.1968
67.1972
67.1975
67.1978
67.1981
67.1983
67.1986
67.1988
67.1991
67.1993
67.1995
67.1997
67.1999
67.2001
67.2002
67.2004
67.2005
67.2007
67.2008
67.201
67.2011
67.2012
67.2013
67.2014
67.2015
67.2016
67.2017
67.2018
67.2019
67.2019
67.202
67.2021
67.2021
67.2022
67.2022
67.2023
67.2037
67.2019
67.1983
67.1927
67.1852
67.1756
67.164
67.1503
67.1343
67.1157
67.0942
67.0692
67.0403
67.0071
66.9696
66.9281
66.8831
66.8352
66.7851
66.7334
66.6804
66.6264
66.5717
66.5163
66.4604
66.404
66.347
66.2895
66.2314
66.1729
66.1139
66.0545
65.9946
65.9344
65.8738
65.813
65.752
65.6909
65.6298
65.5687
65.5079
65.4473
65.3872
65.3276
65.2687
65.2106
65.1535
65.0976
65.043
64.9898
64.9382
64.8884
64.8405
64.7947
64.7511
64.7099
64.6712
64.6351
64.6017
64.5712
64.5436
64.519
64.4975
64.4792
64.464
64.4521
64.4434
64.438
64.4358
64.4368
64.441
64.4484
64.4588
64.4722
64.4887
64.5079
64.53
64.5547
64.582
64.6118
64.6438
64.6781
64.7145
64.7528
64.793
64.8348
64.8781
64.9229
64.9688
65.0159
65.0639
65.1128
65.1623
65.2124
65.2629
65.3137
65.3647
65.4157
65.4666
65.5174
65.5679
65.618
65.6676
65.7168
65.7652
65.813
65.8601
65.9063
65.9517
65.9961
66.0396
66.0821
66.1237
66.1641
66.2036
66.242
66.2793
66.3155
66.3506
66.3847
66.4177
66.4497
66.4805
66.5104
66.5392
66.567
66.5939
66.6197
66.6446
66.6686
66.6917
66.7139
66.7352
66.7557
66.7754
66.7943
66.8124
66.8298
66.8465
66.8625
66.8779
66.8925
66.9066
66.9201
66.933
66.9453
66.9571
66.9684
66.9792
66.9895
66.9994
67.0088
67.0178
67.0264
67.0347
67.0425
67.05
67.0572
67.064
67.0705
67.0768
67.0827
67.0884
67.0938
67.099
67.1039
67.1086
67.1131
67.1174
67.1214
67.1253
67.129
67.1326
67.1359
67.1391
67.1422
67.1451
67.1479
67.1506
67.1531
67.1555
67.1578
67.16
67.162
67.164
67.1659
67.1677
67.1694
67.1711
67.1726
67.1741
67.1755
67.1769
67.1782
67.1794
67.1806
67.1817
67.1827
67.1837
67.1847
67.1856
67.1865
67.1873
67.1881
67.1888
67.1895
67.1902
67.1909
67.1915
67.1921
67.1926
67.1932
67.1937
67.1942
67.1946
67.195
67.1955
67.1959
67.1962
67.1966
67.1969
67.1973
67.1976
67.1979
67.1981
67.1984
67.1987
67.1989
67.1991
67.1994
67.1996
67.1998
67.1999
67.2001
67.2003
67.2004
67.2006
67.2007
67.2009
67.201
67.2011
67.2012
67.2014
67.2015
67.2016
67.2016
67.2017
67.2018
67.2019
67.202
67.202
67.2021
67.2022
67.2022
67.2023
67.2023
67.2037
67.2019
67.1983
67.1927
67.1852
67.1757
67.1641
67.1504
67.1344
67.1159
67.0944
67.0694
67.0405
67.0073
66.9698
66.9283
66.8834
66.8356
66.7857
66.7341
66.6812
66.6274
66.5728
66.5175
66.4617
66.4052
66.3482
66.2906
66.2325
66.1738
66.1146
66.0549
65.9947
65.9341
65.8732
65.8119
65.7503
65.6886
65.6268
65.5651
65.5035
65.4421
65.3812
65.3207
65.261
65.202
65.144
65.0871
65.0315
64.9774
64.9249
64.8742
64.8254
64.7788
64.7344
64.6924
64.6529
64.6161
64.5822
64.5511
64.523
64.4981
64.4763
64.4577
64.4423
64.4303
64.4216
64.4162
64.4141
64.4153
64.4198
64.4275
64.4383
64.4522
64.4691
64.4889
64.5116
64.537
64.565
64.5954
64.6283
64.6634
64.7006
64.7397
64.7807
64.8234
64.8677
64.9133
64.9601
65.0081
65.057
65.1068
65.1572
65.2081
65.2595
65.3111
65.3628
65.4146
65.4663
65.5177
65.5689
65.6196
65.6698
65.7195
65.7685
65.8167
65.8642
65.9108
65.9565
66.0013
66.0451
66.0879
66.1296
66.1703
66.2099
66.2484
66.2858
66.322
66.3572
66.3913
66.4243
66.4563
66.4871
66.5169
66.5457
66.5734
66.6001
66.6259
66.6507
66.6746
66.6975
66.7196
66.7408
66.7611
66.7807
66.7994
66.8174
66.8347
66.8512
66.8671
66.8823
66.8968
66.9107
66.924
66.9368
66.949
66.9607
66.9718
66.9825
66.9927
67.0024
67.0117
67.0206
67.0291
67.0373
67.045
67.0524
67.0595
67.0662
67.0727
67.0788
67.0847
67.0902
67.0956
67.1007
67.1055
67.1101
67.1146
67.1188
67.1228
67.1266
67.1303
67.1337
67.1371
67.1402
67.1432
67.1461
67.1488
67.1514
67.1539
67.1563
67.1586
67.1607
67.1628
67.1647
67.1666
67.1683
67.17
67.1716
67.1732
67.1746
67.176
67.1773
67.1786
67.1798
67.1809
67.182
67.1831
67.1841
67.185
67.1859
67.1868
67.1876
67.1883
67.1891
67.1898
67.1905
67.1911
67.1917
67.1923
67.1928
67.1933
67.1938
67.1943
67.1948
67.1952
67.1956
67.196
67.1964
67.1967
67.1971
67.1974
67.1977
67.198
67.1982
67.1985
67.1988
67.199
67.1992
67.1994
67.1996
67.1998
67.2
67.2002
67.2003
67.2005
67.2007
67.2008
67.2009
67.2011
67.2012
67.2013
67.2014
67.2015
67.2016
67.2017
67.2018
67.2019
67.2019
67.202
67.2021
67.2021
67.2022
67.2022
67.2023
67.2024
67.2037
67.2019
67.1983
67.1928
67.1853
67.1758
67.1642
67.1506
67.1346
67.1161
67.0946
67.0697
67.0408
67.0076
66.9701
66.9287
66.8838
66.8362
66.7864
66.7349
66.6822
66.6286
66.5741
66.519
66.4632
66.4068
66.3498
66.2921
66.2339
66.175
66.1156
66.0556
65.995
65.934
65.8725
65.8107
65.7485
65.6861
65.6236
65.5611
65.4986
65.4363
65.3744
65.313
65.2522
65.1922
65.1331
65.0751
65.0184
64.9632
64.9096
64.8579
64.8081
64.7604
64.715
64.6722
64.6319
64.5943
64.5596
64.5279
64.4993
64.4739
64.4517
64.4328
64.4173
64.4052
64.3964
64.3911
64.3892
64.3906
64.3954
64.4034
64.4147
64.4291
64.4466
64.4671
64.4904
64.5166
64.5453
64.5767
64.6104
64.6464
64.6846
64.7247
64.7667
64.8104
64.8556
64.9023
64.9502
64.9992
65.0492
65.0999
65.1513
65.2033
65.2556
65.3081
65.3608
65.4134
65.4659
65.5181
65.57
65.6215
65.6724
65.7227
65.7723
65.8211
65.869
65.9161
65.9622
66.0074
66.0515
66.0945
66.1365
66.1774
66.2171
66.2557
66.2932
66.3296
66.3649
66.399
66.432
66.4639
66.4947
66.5244
66.5531
66.5807
66.6073
66.633
66.6577
66.6814
66.7042
66.7261
66.7471
66.7673
66.7867
66.8053
66.8231
66.8402
66.8566
66.8723
66.8873
66.9016
66.9154
66.9286
66.9412
66.9532
66.9647
66.9757
66.9862
66.9963
67.0059
67.0151
67.0238
67.0322
67.0402
67.0478
67.0551
67.0621
67.0687
67.075
67.0811
67.0868
67.0923
67.0976
67.1026
67.1074
67.1119
67.1162
67.1204
67.1243
67.1281
67.1317
67.1351
67.1383
67.1414
67.1444
67.1472
67.1499
67.1525
67.1549
67.1572
67.1594
67.1615
67.1636
67.1655
67.1673
67.169
67.1707
67.1723
67.1738
67.1752
67.1766
67.1779
67.1791
67.1803
67.1814
67.1825
67.1835
67.1845
67.1854
67.1863
67.1871
67.1879
67.1887
67.1894
67.1901
67.1907
67.1913
67.1919
67.1925
67.193
67.1936
67.194
67.1945
67.195
67.1954
67.1958
67.1962
67.1965
67.1969
67.1972
67.1975
67.1978
67.1981
67.1984
67.1986
67.1989
67.1991
67.1993
67.1995
67.1997
67.1999
67.2001
67.2003
67.2004
67.2006
67.2007
67.2009
67.201
67.2011
67.2012
67.2013
67.2014
67.2015
67.2016
67.2017
67.2018
67.2019
67.202
67.202
67.2021
67.2022
67.2022
67.2023
67.2023
67.2024
67.2037
67.202
67.1983
67.1928
67.1853
67.1759
67.1644
67.1507
67.1348
67.1163
67.0949
67.07
67.0411
67.0079
66.9705
66.9292
66.8844
66.8369
66.7873
66.736
66.6835
66.6301
66.5758
66.5208
66.4651
66.4088
66.3517
66.294
66.2356
66.1766
66.1168
66.0565
65.9955
65.934
65.872
65.8095
65.7466
65.6835
65.6201
65.5567
65.4932
65.4299
65.3669
65.3044
65.2424
65.1811
65.1208
65.0616
65.0037
64.9472
64.8924
64.8394
64.7884
64.7396
64.6931
64.6492
64.6079
64.5695
64.534
64.5016
64.4724
64.4464
64.4238
64.4046
64.3888
64.3766
64.3678
64.3625
64.3608
64.3625
64.3676
64.3761
64.3879
64.4029
64.4211
64.4423
64.4664
64.4934
64.5231
64.5554
64.5901
64.6272
64.6664
64.7077
64.7508
64.7957
64.8421
64.8899
64.939
64.9892
65.0403
65.0922
65.1448
65.1978
65.2512
65.3048
65.3585
65.4121
65.4656
65.5187
65.5715
65.6238
65.6754
65.7264
65.7767
65.8261
65.8746
65.9222
65.9687
66.0143
66.0587
66.1021
66.1443
66.1854
66.2254
66.2642
66.3018
66.3382
66.3735
66.4076
66.4406
66.4725
66.5032
66.5329
66.5615
66.589
66.6155
66.641
66.6655
66.6891
66.7117
66.7334
66.7543
66.7743
66.7935
66.8119
66.8295
66.8464
66.8626
66.8781
66.8929
66.9071
66.9207
66.9336
66.9461
66.9579
66.9693
66.9801
66.9905
67.0004
67.0098
67.0188
67.0274
67.0357
67.0435
67.051
67.0582
67.065
67.0715
67.0777
67.0836
67.0893
67.0947
67.0998
67.1047
67.1094
67.1139
67.1181
67.1222
67.126
67.1297
67.1332
67.1366
67.1398
67.1428
67.1457
67.1485
67.1511
67.1536
67.156
67.1583
67.1604
67.1625
67.1645
67.1663
67.1681
67.1698
67.1714
67.173
67.1744
67.1758
67.1772
67.1785
67.1797
67.1808
67.1819
67.183
67.1839
67.1849
67.1858
67.1867
67.1875
67.1883
67.189
67.1897
67.1904
67.191
67.1916
67.1922
67.1928
67.1933
67.1938
67.1943
67.1947
67.1952
67.1956
67.196
67.1963
67.1967
67.197
67.1973
67.1977
67.1979
67.1982
67.1985
67.1987
67.199
67.1992
67.1994
67.1996
67.1998
67.2
67.2002
67.2003
67.2005
67.2006
67.2008
67.2009
67.2011
67.2012
67.2013
67.2014
67.2015
67.2016
67.2017
67.2018
67.2019
67.2019
67.202
67.2021
67.2021
67.2022
67.2023
67.2023
67.2024
67.2024
67.2037
67.202
67.1984
67.1929
67.1854
67.176
67.1645
67.1509
67.1351
67.1167
67.0953
67.0704
67.0415
67.0084
66.971
66.9298
66.8851
66.8378
66.7884
66.7374
66.6851
66.6319
66.5778
66.523
66.4674
66.4111
66.3541
66.2963
66.2377
66.1785
66.1185
66.0578
65.9963
65.9343
65.8716
65.8084
65.7448
65.6808
65.6164
65.552
65.4874
65.423
65.3587
65.2948
65.2315
65.1689
65.1072
65.0466
64.9872
64.9293
64.873
64.8187
64.7663
64.7162
64.6685
64.6234
64.581
64.5416
64.5052
64.472
64.442
64.4155
64.3924
64.3728
64.3568
64.3444
64.3356
64.3304
64.3289
64.3309
64.3364
64.3454
64.3578
64.3735
64.3924
64.4144
64.4395
64.4675
64.4982
64.5316
64.5675
64.6057
64.6461
64.6887
64.7331
64.7792
64.827
64.8761
64.9265
64.978
65.0305
65.0837
65.1376
65.1919
65.2465
65.3013
65.3561
65.4109
65.4654
65.5195
65.5733
65.6264
65.679
65.7307
65.7817
65.8318
65.8809
65.9291
65.9761
66.0221
66.067
66.1107
66.1532
66.1945
66.2347
66.2736
66.3113
66.3479
66.3832
66.4173
66.4503
66.4821
66.5128
66.5424
66.5708
66.5982
66.6246
66.6499
66.6743
66.6976
66.7201
66.7416
66.7623
66.7821
66.801
66.8192
66.8366
66.8533
66.8693
66.8845
66.8992
66.9131
66.9265
66.9393
66.9515
66.9632
66.9743
66.985
66.9951
67.0048
67.0141
67.023
67.0314
67.0395
67.0472
67.0545
67.0615
67.0682
67.0746
67.0807
67.0865
67.092
67.0973
67.1023
67.1071
67.1117
67.116
67.1202
67.1242
67.1279
67.1315
67.135
67.1382
67.1413
67.1443
67.1471
67.1498
67.1524
67.1548
67.1572
67.1594
67.1615
67.1635
67.1654
67.1673
67.169
67.1707
67.1723
67.1738
67.1752
67.1766
67.1779
67.1791
67.1803
67.1814
67.1825
67.1835
67.1845
67.1854
67.1863
67.1871
67.1879
67.1887
67.1894
67.1901
67.1907
67.1913
67.1919
67.1925
67.193
67.1936
67.1941
67.1945
67.195
67.1954
67.1958
67.1962
67.1965
67.1969
67.1972
67.1975
67.1978
67.1981
67.1984
67.1986
67.1989
67.1991
67.1993
67.1995
67.1997
67.1999
67.2001
67.2003
67.2004
67.2006
67.2007
67.2009
67.201
67.2011
67.2012
67.2014
67.2015
67.2016
67.2017
67.2017
67.2018
67.2019
67.202
67.2021
67.2021
67.2022
67.2022
67.2023
67.2024
67.2024
67.2025
67.2037
67.202
67.1984
67.1929
67.1855
67.1761
67.1647
67.1512
67.1354
67.117
67.0957
67.0709
67.042
67.009
66.9717
66.9305
66.886
66.8389
66.7898
66.739
66.687
66.6341
66.5802
66.5256
66.4702
66.4139
66.3569
66.299
66.2404
66.1809
66.1205
66.0594
65.9975
65.9349
65.8715
65.8076
65.743
65.678
65.6126
65.547
65.4812
65.4155
65.3498
65.2845
65.2197
65.1555
65.0922
65.03
64.969
64.9095
64.8516
64.7957
64.7418
64.6902
64.6411
64.5947
64.5511
64.5105
64.4731
64.4389
64.4082
64.381
64.3574
64.3374
64.3211
64.3086
64.2997
64.2947
64.2933
64.2957
64.3017
64.3112
64.3243
64.3407
64.3605
64.3835
64.4096
64.4387
64.4705
64.5051
64.5423
64.5818
64.6237
64.6676
64.7134
64.761
64.8102
64.8609
64.9128
64.9658
65.0197
65.0744
65.1297
65.1854
65.2414
65.2975
65.3536
65.4096
65.4653
65.5206
65.5754
65.6296
65.683
65.7357
65.7874
65.8383
65.8881
65.9368
65.9845
66.0309
66.0762
66.1203
66.1631
66.2047
66.2451
66.2842
66.322
66.3586
66.394
66.4281
66.4611
66.4928
66.5234
66.5529
66.5812
66.6084
66.6346
66.6598
66.6839
66.7071
66.7293
66.7506
66.771
66.7906
66.8094
66.8273
66.8445
66.8609
66.8766
66.8917
66.906
66.9198
66.9329
66.9455
66.9574
66.9689
66.9798
66.9903
67.0002
67.0098
67.0188
67.0275
67.0358
67.0437
67.0512
67.0584
67.0652
67.0718
67.078
67.0839
67.0896
67.095
67.1001
67.105
67.1097
67.1142
67.1184
67.1225
67.1263
67.13
67.1335
67.1369
67.14
67.1431
67.146
67.1487
67.1513
67.1538
67.1562
67.1585
67.1606
67.1627
67.1647
67.1665
67.1683
67.17
67.1716
67.1731
67.1746
67.176
67.1773
67.1786
67.1798
67.1809
67.182
67.1831
67.1841
67.185
67.1859
67.1868
67.1876
67.1884
67.1891
67.1898
67.1905
67.1911
67.1917
67.1923
67.1928
67.1934
67.1939
67.1943
67.1948
67.1952
67.1956
67.196
67.1964
67.1967
67.1971
67.1974
67.1977
67.198
67.1983
67.1985
67.1988
67.199
67.1992
67.1994
67.1997
67.1998
67.2
67.2002
67.2004
67.2005
67.2007
67.2008
67.201
67.2011
67.2012
67.2013
67.2014
67.2015
67.2016
67.2017
67.2018
67.2019
67.202
67.202
67.2021
67.2022
67.2022
67.2023
67.2023
67.2024
67.2024
67.2025
67.2037
67.202
67.1984
67.193
67.1856
67.1763
67.1649
67.1515
67.1358
67.1175
67.0962
67.0715
67.0427
67.0097
66.9725
66.9315
66.8872
66.8403
66.7914
66.741
66.6894
66.6367
66.5831
66.5287
66.4734
66.4173
66.3603
66.3024
66.2436
66.1838
66.1232
66.0616
65.9991
65.9359
65.8718
65.8069
65.7414
65.6754
65.6088
65.5419
65.4747
65.4075
65.3403
65.2734
65.2069
65.141
65.0759
65.0119
64.9491
64.8877
64.8281
64.7704
64.7148
64.6616
64.6109
64.5629
64.518
64.4761
64.4375
64.4024
64.3708
64.3428
64.3186
64.2981
64.2816
64.2689
64.2601
64.2551
64.2541
64.2568
64.2633
64.2735
64.2873
64.3046
64.3254
64.3494
64.3766
64.4069
64.4401
64.476
64.5146
64.5556
64.5989
64.6444
64.6918
64.7411
64.7919
64.8442
64.8977
64.9524
65.0079
65.0642
65.1211
65.1784
65.2359
65.2935
65.351
65.4084
65.4654
65.5219
65.5779
65.6332
65.6877
65.7413
65.794
65.8456
65.8961
65.9455
65.9938
66.0408
66.0865
66.131
66.1742
66.216
66.2566
66.2959
66.3338
66.3705
66.4059
66.44
66.4729
66.5046
66.5351
66.5644
66.5926
66.6197
66.6456
66.6706
66.6945
66.7174
66.7394
66.7605
66.7807
66.8
66.8184
66.8361
66.853
66.8692
66.8846
66.8994
66.9135
66.927
66.9399
66.9522
66.9639
66.9751
66.9858
66.9961
67.0058
67.0151
67.024
67.0324
67.0405
67.0482
67.0555
67.0625
67.0692
67.0756
67.0817
67.0874
67.0929
67.0982
67.1032
67.108
67.1125
67.1169
67.121
67.1249
67.1287
67.1323
67.1357
67.1389
67.142
67.1449
67.1477
67.1504
67.153
67.1554
67.1577
67.1599
67.162
67.164
67.1659
67.1677
67.1694
67.1711
67.1726
67.1741
67.1755
67.1769
67.1782
67.1794
67.1806
67.1817
67.1827
67.1837
67.1847
67.1856
67.1865
67.1873
67.1881
67.1888
67.1896
67.1902
67.1909
67.1915
67.1921
67.1927
67.1932
67.1937
67.1942
67.1946
67.1951
67.1955
67.1959
67.1963
67.1966
67.197
67.1973
67.1976
67.1979
67.1982
67.1984
67.1987
67.1989
67.1992
67.1994
67.1996
67.1998
67.2
67.2002
67.2003
67.2005
67.2006
67.2008
67.2009
67.201
67.2012
67.2013
67.2014
67.2015
67.2016
67.2017
67.2018
67.2019
67.202
67.202
67.2021
67.2022
67.2022
67.2023
67.2023
67.2024
67.2024
67.2025
67.2025
67.2037
67.202
67.1985
67.1931
67.1857
67.1765
67.1652
67.1518
67.1362
67.118
67.0968
67.0722
67.0435
67.0106
66.9735
66.9327
66.8886
66.842
66.7935
66.7434
66.6921
66.6398
66.5866
66.5324
66.4773
66.4213
66.3643
66.3064
66.2474
66.1874
66.1264
66.0644
66.0013
65.9373
65.8724
65.8067
65.7401
65.6729
65.605
65.5367
65.468
65.3992
65.3303
65.2616
65.1932
65.1253
65.0583
64.9922
64.9274
64.864
64.8024
64.7427
64.6852
64.6301
64.5776
64.5281
64.4815
64.4383
64.3984
64.3621
64.3295
64.3007
64.2759
64.2549
64.238
64.2252
64.2164
64.2116
64.2108
64.214
64.2211
64.232
64.2467
64.265
64.2868
64.312
64.3405
64.3721
64.4067
64.4441
64.4842
64.5269
64.5719
64.6191
64.6683
64.7193
64.7719
64.826
64.8814
64.9379
64.9952
65.0533
65.1119
65.1709
65.2301
65.2893
65.3484
65.4073
65.4657
65.5236
65.5809
65.6374
65.693
65.7477
65.8013
65.8538
65.9051
65.9553
66.0041
66.0517
66.0979
66.1428
66.1863
66.2285
66.2693
66.3087
66.3468
66.3835
66.419
66.4531
66.4859
66.5175
66.5478
66.577
66.605
66.6319
66.6577
66.6824
66.706
66.7287
66.7504
66.7712
66.7911
66.8101
66.8283
66.8457
66.8623
66.8782
66.8933
66.9078
66.9216
66.9348
66.9474
66.9595
66.9709
66.9819
66.9923
67.0023
67.0118
67.0209
67.0295
67.0377
67.0456
67.0531
67.0602
67.067
67.0735
67.0797
67.0856
67.0912
67.0966
67.1017
67.1065
67.1111
67.1156
67.1198
67.1238
67.1276
67.1312
67.1347
67.138
67.1411
67.1441
67.1469
67.1497
67.1522
67.1547
67.157
67.1593
67.1614
67.1634
67.1654
67.1672
67.1689
67.1706
67.1722
67.1737
67.1752
67.1765
67.1778
67.1791
67.1803
67.1814
67.1824
67.1835
67.1844
67.1854
67.1863
67.1871
67.1879
67.1887
67.1894
67.1901
67.1907
67.1913
67.1919
67.1925
67.1931
67.1936
67.1941
67.1945
67.195
67.1954
67.1958
67.1962
67.1965
67.1969
67.1972
67.1975
67.1978
67.1981
67.1984
67.1986
67.1989
67.1991
67.1993
67.1995
67.1997
67.1999
67.2001
67.2003
67.2004
67.2006
67.2007
67.2009
67.201
67.2011
67.2013
67.2014
67.2015
67.2016
67.2017
67.2018
67.2019
67.2019
67.202
67.2021
67.2022
67.2022
67.2023
67.2023
67.2024
67.2024
67.2025
67.2025
67.2026
67.2037
67.202
67.1985
67.1931
67.1859
67.1767
67.1655
67.1523
67.1367
67.1186
67.0976
67.073
67.0445
67.0117
66.9748
66.9341
66.8903
66.8441
66.7959
66.7463
66.6954
66.6435
66.5906
66.5368
66.4819
66.426
66.3691
66.3111
66.252
66.1917
66.1304
66.0678
66.0042
65.9394
65.8737
65.8069
65.7392
65.6706
65.6014
65.5315
65.4612
65.3905
65.3197
65.249
65.1786
65.1086
65.0393
64.971
64.9039
64.8383
64.7744
64.7125
64.6529
64.5957
64.5413
64.4899
64.4416
64.3968
64.3555
64.318
64.2843
64.2546
64.229
64.2076
64.1903
64.1773
64.1685
64.164
64.1636
64.1673
64.175
64.1867
64.2023
64.2217
64.2447
64.2711
64.301
64.3341
64.3703
64.4094
64.4512
64.4957
64.5425
64.5916
64.6427
64.6956
64.7503
64.8064
64.8637
64.9222
64.9815
65.0416
65.1021
65.163
65.224
65.285
65.3459
65.4064
65.4664
65.5258
65.5844
65.6422
65.6991
65.7549
65.8095
65.863