/*--------------------------------*- C++ -*----------------------------------*\
| =========                 |                                                 |
| \\      /  F ield         | OpenFOAM: The Open Source CFD Toolbox           |
|  \\    /   O peration     | Version:  2306                                  |
|   \\  /    A nd           | Website:  www.openfoam.com                      |
|    \\/     M anipulation  |                                                 |
\*---------------------------------------------------------------------------*/
FoamFile
{
    version     2.0;
    format      ascii;
    arch        "LSB;label=32;scalar=64";
    class       volScalarField;
    location    "0.5";
    object      p;
}
// * * * * * * * * * * * * * * * * * * * * * * * * * * * * * * * * * * * * * //

dimensions      [0 2 -2 0 0 0 0];

internalField   nonuniform List<scalar> 
32768
(
0.344061
0.343942
0.343683
0.343275
0.34272
0.342018
0.341171
0.340176
0.339033
0.337739
0.336293
0.334692
0.332935
0.331016
0.328933
0.326681
0.324255
0.321651
0.318866
0.315898
0.312745
0.309404
0.305876
0.30216
0.298256
0.294164
0.289884
0.285419
0.280769
0.275935
0.270921
0.265729
0.260361
0.254823
0.249119
0.243253
0.237232
0.231063
0.224751
0.218306
0.211736
0.205052
0.198262
0.191378
0.184412
0.177376
0.170283
0.163147
0.155981
0.148801
0.141621
0.134456
0.127321
0.120231
0.113203
0.10625
0.099389
0.0926331
0.0859969
0.0794939
0.073137
0.0669386
0.06091
0.0550618
0.0494036
0.043944
0.0386908
0.0336505
0.0288286
0.0242295
0.0198566
0.0157121
0.0117973
0.00811242
0.00465658
0.00142805
-0.0015758
-0.0043585
-0.00692435
-0.00927837
-0.0114263
-0.0133744
-0.0151295
-0.016699
-0.0180905
-0.019312
-0.0203719
-0.0212785
-0.0220405
-0.0226666
-0.0231654
-0.0235455
-0.0238155
-0.0239836
-0.0240582
-0.024047
-0.023958
-0.0237984
-0.0235753
-0.0232956
-0.0229657
-0.0225916
-0.0221791
-0.0217335
-0.0212599
-0.0207629
-0.0202467
-0.0197154
-0.0191725
-0.0186214
-0.018065
-0.017506
-0.0169469
-0.0163899
-0.0158368
-0.0152893
-0.014749
-0.014217
-0.0136946
-0.0131826
-0.0126819
-0.012193
-0.0117165
-0.0112527
-0.010802
-0.0103647
-0.0099407
-0.00953021
-0.00913318
-0.00874953
-0.00837917
-0.00802193
-0.00767762
-0.00734601
-0.00702686
-0.00671989
-0.00642482
-0.00614134
-0.00586915
-0.00560791
-0.00535731
-0.00511702
-0.00488669
-0.00466602
-0.00445465
-0.00425227
-0.00405856
-0.0038732
-0.00369587
-0.00352628
-0.00336413
-0.00320911
-0.00306096
-0.0029194
-0.00278416
-0.00265497
-0.0025316
-0.00241379
-0.00230131
-0.00219394
-0.00209146
-0.00199366
-0.00190033
-0.00181128
-0.00172632
-0.00164527
-0.00156797
-0.00149424
-0.00142392
-0.00135686
-0.00129292
-0.00123195
-0.00117382
-0.0011184
-0.00106557
-0.00101521
-0.000967198
-0.000921439
-0.000877824
-0.000836255
-0.000796637
-0.00075888
-0.000722897
-0.000688607
-0.00065593
-0.000624791
-0.000595119
-0.000566844
-0.000539902
-0.00051423
-0.000489768
-0.00046646
-0.00044425
-0.000423088
-0.000402924
-0.00038371
-0.000365402
-0.000347957
-0.000331333
-0.000315493
-0.000300398
-0.000286013
-0.000272304
-0.000259239
-0.000246787
-0.000234919
-0.000223607
-0.000212823
-0.000202543
-0.000192743
-0.000183398
-0.000174487
-0.000165989
-0.000157883
-0.000150151
-0.000142774
-0.000135735
-0.000129017
-0.000122604
-0.00011648
-0.000110632
-0.000105046
-9.97077e-05
-9.46051e-05
-8.9726e-05
-8.50589e-05
-8.05926e-05
-7.63166e-05
-7.22207e-05
-6.82953e-05
-6.4531e-05
-6.0919e-05
-5.74507e-05
-5.41178e-05
-5.09126e-05
-4.78273e-05
-4.48547e-05
-4.19878e-05
-3.92199e-05
-3.65443e-05
-3.39547e-05
-3.14451e-05
-2.90095e-05
-2.66421e-05
-2.43375e-05
-2.20901e-05
-1.98946e-05
-1.77461e-05
-1.56388e-05
-1.35699e-05
-1.15288e-05
-9.52517e-06
-7.5176e-06
-5.59287e-06
-3.50169e-06
-1.77886e-06
0.344205
0.344086
0.343827
0.34342
0.342864
0.342163
0.341316
0.340322
0.339179
0.337886
0.33644
0.334841
0.333083
0.331166
0.329083
0.326831
0.324405
0.321802
0.319018
0.31605
0.312896
0.309555
0.306027
0.30231
0.298405
0.294312
0.290031
0.285563
0.280911
0.276074
0.271057
0.265861
0.26049
0.254947
0.249237
0.243365
0.237338
0.231161
0.224842
0.218388
0.21181
0.205115
0.198315
0.191421
0.184443
0.177396
0.170291
0.163142
0.155964
0.148771
0.141578
0.134399
0.127251
0.120149
0.113107
0.106142
0.0992684
0.0925006
0.0858528
0.0793388
0.0729716
0.0667634
0.0607257
0.0548691
0.0492034
0.0437371
0.0384779
0.0334325
0.0286064
0.0240039
0.0196285
0.0154824
0.0115667
0.00788176
0.00442666
0.00119963
-0.00180201
-0.00458181
-0.00714411
-0.00949399
-0.0116372
-0.0135801
-0.0153296
-0.0168929
-0.018278
-0.0194928
-0.0205456
-0.021445
-0.0221997
-0.0228182
-0.0233094
-0.0236819
-0.0239443
-0.0241049
-0.024172
-0.0241536
-0.0240573
-0.0238907
-0.0236609
-0.0233746
-0.0230383
-0.0226582
-0.0222399
-0.0217888
-0.0213099
-0.0208079
-0.020287
-0.0197513
-0.0192043
-0.0186493
-0.0180893
-0.017527
-0.0169648
-0.0164049
-0.0158492
-0.0152994
-0.0147569
-0.014223
-0.0136987
-0.0131851
-0.0126829
-0.0121927
-0.011715
-0.0112503
-0.0107987
-0.0103606
-0.00993592
-0.00952484
-0.00912731
-0.00874325
-0.00837254
-0.00801502
-0.00767049
-0.00733871
-0.00701944
-0.0067124
-0.00641729
-0.00613382
-0.00586165
-0.00560047
-0.00534994
-0.00510974
-0.00487953
-0.00465898
-0.00444775
-0.00424552
-0.00405197
-0.00386677
-0.00368962
-0.0035202
-0.00335822
-0.00320339
-0.00305542
-0.00291403
-0.00277896
-0.00264996
-0.00252676
-0.00240912
-0.00229681
-0.00218961
-0.00208729
-0.00198964
-0.00189647
-0.00180757
-0.00172276
-0.00164185
-0.00156469
-0.00149109
-0.0014209
-0.00135397
-0.00129014
-0.00122929
-0.00117128
-0.00111597
-0.00106324
-0.00101298
-0.000965066
-0.0009194
-0.000875874
-0.000834391
-0.000794856
-0.000757178
-0.000721271
-0.000687054
-0.000654447
-0.000623375
-0.000593767
-0.000565554
-0.000538671
-0.000513055
-0.000488647
-0.00046539
-0.000443229
-0.000422114
-0.000401995
-0.000382825
-0.000364558
-0.000347152
-0.000330566
-0.000314762
-0.000299701
-0.000285349
-0.000271671
-0.000258636
-0.000246213
-0.000234372
-0.000223086
-0.000212327
-0.000202071
-0.000192293
-0.000182969
-0.000174079
-0.000165601
-0.000157514
-0.0001498
-0.00014244
-0.000135417
-0.000128715
-0.000122317
-0.000116208
-0.000110373
-0.0001048
-9.94743e-05
-9.43836e-05
-8.95159e-05
-8.48597e-05
-8.04039e-05
-7.61379e-05
-7.20516e-05
-6.81354e-05
-6.438e-05
-6.07764e-05
-5.73162e-05
-5.39912e-05
-5.07934e-05
-4.77154e-05
-4.47498e-05
-4.18896e-05
-3.91281e-05
-3.64588e-05
-3.38753e-05
-3.13716e-05
-2.89417e-05
-2.65799e-05
-2.42806e-05
-2.20385e-05
-1.98481e-05
-1.77047e-05
-1.56023e-05
-1.35382e-05
-1.15017e-05
-9.50304e-06
-7.49895e-06
-5.58041e-06
-3.48761e-06
-1.7841e-06
0.344493
0.344374
0.344116
0.343709
0.343154
0.342454
0.341608
0.340614
0.339472
0.33818
0.336736
0.335137
0.333381
0.331465
0.329383
0.327132
0.324707
0.322104
0.319321
0.316353
0.313199
0.309858
0.306329
0.302611
0.298704
0.294608
0.290324
0.285853
0.281195
0.276354
0.27133
0.266126
0.260747
0.255194
0.249474
0.24359
0.23755
0.231358
0.225024
0.218553
0.211957
0.205243
0.198423
0.191507
0.184507
0.177436
0.170307
0.163133
0.15593
0.148711
0.141491
0.134286
0.127112
0.119983
0.112916
0.105925
0.0990265
0.0922346
0.0855637
0.0790276
0.0726394
0.0664116
0.0603557
0.0544824
0.0488014
0.0433216
0.0380506
0.032995
0.0281603
0.0235511
0.0191706
0.0150211
0.0111038
0.00741875
0.00396516
0.000741151
-0.00225602
-0.00502998
-0.00758515
-0.0099267
-0.0120605
-0.0139929
-0.0157309
-0.0172821
-0.0186542
-0.0198554
-0.0208941
-0.021779
-0.0225188
-0.0231223
-0.0235982
-0.0239555
-0.0242026
-0.024348
-0.0244002
-0.024367
-0.0242564
-0.0240757
-0.0238322
-0.0235328
-0.0231838
-0.0227915
-0.0223615
-0.0218993
-0.0214099
-0.0208979
-0.0203676
-0.019823
-0.0192677
-0.018705
-0.0181378
-0.0175689
-0.0170005
-0.0164349
-0.015874
-0.0153194
-0.0147725
-0.0142346
-0.0137068
-0.01319
-0.0126849
-0.0121921
-0.0117121
-0.0112453
-0.010792
-0.0103522
-0.00992622
-0.00951398
-0.00911546
-0.00873057
-0.00835918
-0.0080011
-0.00765614
-0.00732403
-0.00700453
-0.00669734
-0.00640217
-0.00611868
-0.00584657
-0.0055855
-0.00533513
-0.00509513
-0.00486514
-0.00464485
-0.00443391
-0.00423198
-0.00403874
-0.00385388
-0.00367706
-0.003508
-0.00334637
-0.0031919
-0.00304428
-0.00290326
-0.00276855
-0.00263989
-0.00251704
-0.00239975
-0.00228778
-0.00218091
-0.00207892
-0.00198159
-0.00188872
-0.00180013
-0.00171561
-0.00163499
-0.0015581
-0.00148477
-0.00141484
-0.00134816
-0.00128458
-0.00122397
-0.00116618
-0.00111108
-0.00105857
-0.00100851
-0.00096079
-0.00091531
-0.000871965
-0.000830654
-0.000791285
-0.000753766
-0.000718012
-0.00068394
-0.000651473
-0.000620536
-0.000591056
-0.000562967
-0.000536201
-0.000510698
-0.000486398
-0.000463245
-0.000441183
-0.000420163
-0.000400134
-0.00038105
-0.000362865
-0.000345538
-0.000329028
-0.000313296
-0.000298304
-0.000284017
-0.000270403
-0.000257427
-0.000245061
-0.000233275
-0.000222041
-0.000211332
-0.000201124
-0.000191391
-0.000182111
-0.000173262
-0.000164823
-0.000156774
-0.000149096
-0.000141771
-0.000134781
-0.00012811
-0.000121741
-0.000115661
-0.000109854
-0.000104307
-9.90063e-05
-9.39396e-05
-8.90948e-05
-8.44605e-05
-8.00256e-05
-7.57797e-05
-7.17127e-05
-6.78149e-05
-6.40771e-05
-6.04906e-05
-5.70467e-05
-5.37373e-05
-5.05546e-05
-4.7491e-05
-4.45394e-05
-4.16927e-05
-3.89442e-05
-3.62874e-05
-3.37161e-05
-3.12241e-05
-2.88057e-05
-2.6455e-05
-2.41665e-05
-2.1935e-05
-1.97549e-05
-1.76215e-05
-1.55289e-05
-1.34745e-05
-1.14476e-05
-9.45825e-06
-7.4633e-06
-5.55406e-06
-3.47073e-06
-1.7784e-06
0.344925
0.344807
0.344549
0.344142
0.343588
0.342889
0.342044
0.341053
0.339912
0.338622
0.337179
0.335582
0.333828
0.331913
0.329833
0.327584
0.32516
0.322558
0.319775
0.316808
0.313654
0.310312
0.306782
0.303062
0.299152
0.295053
0.290765
0.286288
0.281623
0.276774
0.27174
0.266526
0.261133
0.255567
0.24983
0.243929
0.237869
0.231656
0.225298
0.218802
0.212178
0.205436
0.198585
0.191636
0.184603
0.177497
0.170331
0.16312
0.155878
0.14862
0.141361
0.134116
0.126902
0.119734
0.112627
0.105598
0.0986622
0.0918339
0.0851282
0.0785588
0.0721391
0.0658817
0.0597984
0.0538999
0.0481961
0.0426959
0.037407
0.032336
0.0274887
0.0228693
0.0184813
0.0143268
0.010407
0.00672192
0.00327066
5.12751e-05
-0.0029391
-0.0057042
-0.00824856
-0.0105775
-0.0126969
-0.0146135
-0.0163343
-0.017867
-0.0192195
-0.0204002
-0.0214177
-0.0222807
-0.022998
-0.0235788
-0.0240318
-0.024366
-0.0245901
-0.0247128
-0.0247424
-0.0246871
-0.0245547
-0.0243529
-0.0240889
-0.0237696
-0.0234016
-0.0229909
-0.0225434
-0.0220645
-0.0215593
-0.0210323
-0.0204879
-0.0199301
-0.0193624
-0.0187881
-0.0182101
-0.0176311
-0.0170535
-0.0164795
-0.0159107
-0.0153489
-0.0147956
-0.0142518
-0.0137186
-0.0131969
-0.0126875
-0.0121908
-0.0117074
-0.0112376
-0.0107815
-0.0103395
-0.00991147
-0.0094975
-0.00909751
-0.00871139
-0.00833899
-0.0079801
-0.00763449
-0.00730191
-0.00698207
-0.00667468
-0.0063794
-0.00609593
-0.00582391
-0.00556301
-0.00531288
-0.00507317
-0.00484354
-0.00462363
-0.00441312
-0.00421165
-0.00401889
-0.00383453
-0.00365823
-0.00348969
-0.0033286
-0.00317466
-0.00302759
-0.0028871
-0.00275293
-0.00262481
-0.00250248
-0.00238571
-0.00227425
-0.00216788
-0.00206637
-0.00196952
-0.00187712
-0.00178898
-0.0017049
-0.00162472
-0.00154824
-0.00147531
-0.00140577
-0.00133947
-0.00127626
-0.00121599
-0.00115854
-0.00110377
-0.00105157
-0.00100181
-0.000954387
-0.000909188
-0.000866111
-0.000825059
-0.000785937
-0.000748657
-0.000713131
-0.000679279
-0.000647022
-0.000616285
-0.000586999
-0.000559093
-0.000532505
-0.000507171
-0.000483032
-0.000460033
-0.00043812
-0.000417241
-0.000397348
-0.000378393
-0.000360332
-0.000343123
-0.000326726
-0.000311101
-0.000296212
-0.000282024
-0.000268503
-0.000255618
-0.000243338
-0.000231633
-0.000220477
-0.000209843
-0.000199706
-0.000190041
-0.000180826
-0.000172039
-0.000163659
-0.000155667
-0.000148043
-0.000140769
-0.000133828
-0.000127204
-0.000120881
-0.000114843
-0.000109077
-0.000103569
-9.83059e-05
-9.3275e-05
-8.84645e-05
-8.3863e-05
-7.94595e-05
-7.52436e-05
-7.12054e-05
-6.73352e-05
-6.36239e-05
-6.00628e-05
-5.66432e-05
-5.33573e-05
-5.01971e-05
-4.71553e-05
-4.42245e-05
-4.1398e-05
-3.8669e-05
-3.6031e-05
-3.34779e-05
-3.10035e-05
-2.86022e-05
-2.62681e-05
-2.39958e-05
-2.178e-05
-1.96153e-05
-1.7497e-05
-1.54192e-05
-1.33793e-05
-1.13666e-05
-9.39135e-06
-7.41045e-06
-5.51485e-06
-3.44633e-06
-1.76624e-06
0.345501
0.345383
0.345125
0.34472
0.344167
0.343469
0.342626
0.341637
0.340498
0.33921
0.33777
0.336176
0.334424
0.332511
0.330434
0.328186
0.325764
0.323164
0.320382
0.317415
0.314262
0.310919
0.307387
0.303665
0.299752
0.295648
0.291354
0.286869
0.282196
0.277336
0.27229
0.26706
0.261651
0.256066
0.250308
0.244383
0.238296
0.232054
0.225665
0.219136
0.212476
0.205694
0.198802
0.191811
0.184732
0.177579
0.170364
0.163103
0.15581
0.148499
0.141186
0.133888
0.126621
0.119399
0.11224
0.10516
0.0981734
0.0912965
0.0845439
0.0779298
0.0714679
0.0651709
0.0590508
0.0531185
0.0473842
0.0418566
0.0365438
0.0314524
0.0265881
0.0219553
0.0175572
0.0133962
0.00947314
0.00578816
0.00234017
-0.000872896
-0.00385403
-0.00660711
-0.00913684
-0.0114487
-0.0135489
-0.0154441
-0.0171417
-0.0186495
-0.0199757
-0.0211288
-0.0221176
-0.0229511
-0.0236384
-0.0241886
-0.0246107
-0.024914
-0.0251073
-0.0251993
-0.0251987
-0.0251137
-0.0249523
-0.0247222
-0.0244307
-0.0240849
-0.0236912
-0.0232561
-0.0227852
-0.022284
-0.0217576
-0.0212106
-0.0206474
-0.0200718
-0.0194876
-0.0188978
-0.0183055
-0.0177132
-0.0171233
-0.0165379
-0.0159588
-0.0153875
-0.0148255
-0.0142739
-0.0137336
-0.0132055
-0.0126904
-0.0121886
-0.0117006
-0.0112268
-0.0107672
-0.0103221
-0.00989142
-0.00947517
-0.00907325
-0.00868553
-0.0083118
-0.00795185
-0.00760541
-0.00727222
-0.00695195
-0.00664429
-0.00634891
-0.00606546
-0.00579358
-0.00553293
-0.00528313
-0.00504383
-0.00481467
-0.0045953
-0.00438536
-0.00418451
-0.0039924
-0.00380871
-0.00363311
-0.00346527
-0.0033049
-0.00315168
-0.00300534
-0.00286557
-0.00273212
-0.00260471
-0.00248308
-0.002367
-0.00225622
-0.00215052
-0.00204967
-0.00195345
-0.00186168
-0.00177414
-0.00169065
-0.00161103
-0.00153511
-0.00146272
-0.0013937
-0.0013279
-0.00126517
-0.00120537
-0.00114837
-0.00109404
-0.00104226
-0.000992904
-0.000945868
-0.000901042
-0.000858323
-0.000817615
-0.000778824
-0.00074186
-0.000706639
-0.000673078
-0.0006411
-0.000610632
-0.000581601
-0.000553942
-0.000527588
-0.000502479
-0.000478556
-0.000455763
-0.000434047
-0.000413356
-0.000393642
-0.00037486
-0.000356963
-0.000339912
-0.000323664
-0.000308183
-0.000293431
-0.000279374
-0.000265978
-0.000253212
-0.000241046
-0.00022945
-0.000218398
-0.000207863
-0.00019782
-0.000188246
-0.000179117
-0.000170413
-0.000162112
-0.000154194
-0.000146642
-0.000139437
-0.000132561
-0.000126
-0.000119736
-0.000113756
-0.000108044
-0.000102588
-9.73747e-05
-9.23915e-05
-8.76265e-05
-8.30685e-05
-7.87068e-05
-7.45309e-05
-7.05309e-05
-6.66975e-05
-6.30214e-05
-5.9494e-05
-5.61069e-05
-5.28521e-05
-4.97219e-05
-4.67089e-05
-4.38059e-05
-4.10062e-05
-3.8303e-05
-3.569e-05
-3.31611e-05
-3.07102e-05
-2.83316e-05
-2.60196e-05
-2.37688e-05
-2.1574e-05
-1.94298e-05
-1.73315e-05
-1.52734e-05
-1.32527e-05
-1.12591e-05
-9.30248e-06
-7.34031e-06
-5.46269e-06
-3.41372e-06
-1.74952e-06
0.34622
0.346102
0.345846
0.345441
0.34489
0.344194
0.343353
0.342366
0.341231
0.339946
0.338509
0.336918
0.335169
0.33326
0.331185
0.32894
0.326521
0.323922
0.321142
0.318176
0.315022
0.31168
0.308146
0.304421
0.300504
0.296394
0.292093
0.287599
0.282915
0.278041
0.27298
0.267732
0.262302
0.256693
0.250908
0.244954
0.238834
0.232557
0.226128
0.219556
0.212851
0.206021
0.199077
0.192031
0.184896
0.177683
0.170407
0.163082
0.155724
0.148347
0.140967
0.133602
0.126267
0.118978
0.111753
0.104607
0.0975577
0.0906194
0.0838077
0.0771374
0.0706222
0.0642753
0.0581089
0.0521342
0.0463614
0.0407996
0.0354567
0.0303397
0.0254542
0.0208045
0.0163941
0.0122249
0.00829807
0.00461341
0.00116974
-0.00203515
-0.00500443
-0.00774217
-0.0102533
-0.0125435
-0.0146191
-0.0164872
-0.0181554
-0.0196317
-0.0209246
-0.0220428
-0.0229955
-0.0237917
-0.024441
-0.0249526
-0.0253358
-0.0256001
-0.0257545
-0.025808
-0.0257693
-0.0256469
-0.0254489
-0.0251832
-0.0248571
-0.0244779
-0.0240522
-0.0235862
-0.023086
-0.0225568
-0.0220039
-0.0214319
-0.0208451
-0.0202475
-0.0196425
-0.0190334
-0.0184232
-0.0178143
-0.0172091
-0.0166096
-0.0160175
-0.0154345
-0.0148617
-0.0143003
-0.0137512
-0.0132152
-0.0126929
-0.0121848
-0.0116913
-0.0112124
-0.0107486
-0.0102996
-0.00986571
-0.00944667
-0.0090424
-0.00865271
-0.00827737
-0.00791613
-0.00756871
-0.00723478
-0.00691401
-0.00660606
-0.00631057
-0.00602718
-0.0057555
-0.00549517
-0.00524581
-0.00500704
-0.00477849
-0.0045598
-0.0043506
-0.00415053
-0.00395925
-0.00377641
-0.00360168
-0.00343474
-0.00327527
-0.00312296
-0.00297752
-0.00283867
-0.00270612
-0.0025796
-0.00245886
-0.00234364
-0.00223372
-0.00212885
-0.00202881
-0.0019334
-0.0018424
-0.00175562
-0.00167287
-0.00159397
-0.00151874
-0.00144702
-0.00137865
-0.00131347
-0.00125135
-0.00119214
-0.0011357
-0.00108191
-0.00103065
-0.0009818
-0.000935247
-0.000890887
-0.000848615
-0.000808337
-0.000769958
-0.000733389
-0.000698547
-0.00066535
-0.000633721
-0.000603586
-0.000574875
-0.000547522
-0.000521461
-0.000496633
-0.000472978
-0.000450442
-0.000428971
-0.000408515
-0.000389026
-0.000370457
-0.000352766
-0.00033591
-0.00031985
-0.000304548
-0.000289966
-0.000276072
-0.000262832
-0.000250215
-0.000238191
-0.000226731
-0.000215808
-0.000205396
-0.000195472
-0.00018601
-0.000176989
-0.000168387
-0.000160184
-0.00015236
-0.000144897
-0.000137777
-0.000130983
-0.000124499
-0.00011831
-0.000112401
-0.000106757
-0.000101366
-9.62149e-05
-9.12909e-05
-8.65827e-05
-8.2079e-05
-7.77692e-05
-7.36431e-05
-6.96909e-05
-6.59031e-05
-6.22708e-05
-5.87855e-05
-5.54388e-05
-5.22228e-05
-4.913e-05
-4.61529e-05
-4.32845e-05
-4.05182e-05
-3.78472e-05
-3.52654e-05
-3.27666e-05
-3.03449e-05
-2.79946e-05
-2.57101e-05
-2.34862e-05
-2.13174e-05
-1.91987e-05
-1.71254e-05
-1.50917e-05
-1.30951e-05
-1.11251e-05
-9.19182e-06
-7.25298e-06
-5.39768e-06
-3.37308e-06
-1.72862e-06
0.347082
0.346964
0.346709
0.346306
0.345757
0.345063
0.344225
0.343241
0.342109
0.340828
0.339395
0.337808
0.336063
0.334158
0.332087
0.329845
0.327429
0.324834
0.322055
0.319091
0.315938
0.312594
0.309059
0.305331
0.301409
0.297294
0.292984
0.28848
0.283782
0.278893
0.273813
0.268544
0.263089
0.257451
0.251635
0.245644
0.239486
0.233165
0.226689
0.220066
0.213306
0.206417
0.199411
0.1923
0.185095
0.17781
0.17046
0.163058
0.155621
0.148163
0.140703
0.133255
0.125838
0.118469
0.111163
0.103938
0.0968118
0.0897989
0.0829157
0.0761771
0.0695974
0.0631901
0.0569677
0.0509416
0.0451224
0.0395192
0.0341402
0.0289924
0.0240814
0.0194116
0.0149864
0.0108077
0.00687654
0.00319256
-0.000245577
-0.00344026
-0.00639487
-0.00911372
-0.011602
-0.0138656
-0.0159113
-0.0177463
-0.0193786
-0.0208165
-0.0220688
-0.0231446
-0.0240532
-0.0248042
-0.0254072
-0.025872
-0.026208
-0.0264249
-0.0265322
-0.0265389
-0.0264541
-0.0262864
-0.0260442
-0.0257354
-0.0253676
-0.0249481
-0.0244837
-0.0239806
-0.0234449
-0.0228821
-0.0222973
-0.0216952
-0.0210801
-0.0204558
-0.019826
-0.0191938
-0.0185621
-0.0179334
-0.0173098
-0.0166935
-0.016086
-0.0154888
-0.0149032
-0.0143302
-0.0137707
-0.0132253
-0.0126946
-0.012179
-0.0116787
-0.0111941
-0.0107251
-0.0102717
-0.00983394
-0.00941163
-0.0090046
-0.00861262
-0.00823542
-0.0078727
-0.00752414
-0.00718938
-0.00686807
-0.00655981
-0.00626424
-0.00598095
-0.00570955
-0.00544964
-0.00520083
-0.00496273
-0.00473494
-0.00451709
-0.00430879
-0.00410968
-0.0039194
-0.0037376
-0.00356394
-0.00339808
-0.0032397
-0.0030885
-0.00294416
-0.0028064
-0.00267493
-0.00254949
-0.00242982
-0.00231565
-0.00220675
-0.00210289
-0.00200383
-0.00190938
-0.00181931
-0.00173344
-0.00165158
-0.00157353
-0.00149913
-0.00142822
-0.00136063
-0.00129621
-0.00123481
-0.0011763
-0.00112054
-0.0010674
-0.00101676
-0.000968517
-0.000922544
-0.000878741
-0.000837005
-0.000797241
-0.000759355
-0.00072326
-0.000688872
-0.00065611
-0.000624897
-0.000595162
-0.000566834
-0.000539847
-0.000514137
-0.000489644
-0.00046631
-0.000444081
-0.000422904
-0.000402728
-0.000383508
-0.000365196
-0.00034775
-0.000331128
-0.000315292
-0.000300203
-0.000285826
-0.000272126
-0.000259073
-0.000246633
-0.000234778
-0.000223481
-0.000212713
-0.000202449
-0.000192665
-0.000183338
-0.000174445
-0.000165966
-0.00015788
-0.000150168
-0.000142812
-0.000135794
-0.000129098
-0.000122707
-0.000116607
-0.000110782
-0.00010522
-9.99063e-05
-9.4829e-05
-8.99759e-05
-8.53355e-05
-8.08968e-05
-7.66491e-05
-7.25824e-05
-6.86871e-05
-6.4954e-05
-6.13741e-05
-5.7939e-05
-5.46406e-05
-5.1471e-05
-4.84227e-05
-4.54886e-05
-4.26616e-05
-3.99351e-05
-3.73027e-05
-3.4758e-05
-3.22952e-05
-2.99084e-05
-2.75919e-05
-2.53404e-05
-2.31484e-05
-2.10109e-05
-1.89227e-05
-1.68792e-05
-1.48747e-05
-1.29068e-05
-1.09652e-05
-9.05963e-06
-7.14866e-06
-5.32001e-06
-3.32455e-06
-1.70362e-06
0.348086
0.347969
0.347715
0.347314
0.346767
0.346076
0.345242
0.344262
0.343134
0.341857
0.340429
0.338847
0.337107
0.335206
0.33314
0.330903
0.328491
0.325898
0.323123
0.32016
0.317008
0.313665
0.310128
0.306397
0.30247
0.298348
0.294028
0.289513
0.2848
0.279893
0.274791
0.269498
0.264014
0.258343
0.25249
0.246458
0.240253
0.233882
0.227351
0.220668
0.213843
0.206886
0.199807
0.192618
0.185331
0.177962
0.170523
0.163031
0.1555
0.147948
0.140392
0.132848
0.125334
0.117868
0.110467
0.103149
0.0959316
0.0888308
0.081863
0.0750438
0.068388
0.0619094
0.055621
0.0495345
0.0436606
0.0380089
0.0325875
0.0274036
0.0224629
0.0177698
0.0133275
0.00913805
0.00520214
0.00151939
-0.00191178
-0.00509399
-0.00803087
-0.010727
-0.0131879
-0.0154198
-0.0174298
-0.0192255
-0.0208151
-0.0222073
-0.0234114
-0.0244368
-0.0252933
-0.0259906
-0.0265389
-0.0269482
-0.0272284
-0.0273894
-0.0274409
-0.0273925
-0.0272533
-0.0270322
-0.0267379
-0.0263784
-0.0259615
-0.0254946
-0.0249847
-0.0244381
-0.0238609
-0.0232586
-0.0226365
-0.0219992
-0.0213509
-0.0206957
-0.0200369
-0.0193778
-0.018721
-0.0180692
-0.0174244
-0.0167885
-0.0161631
-0.0155496
-0.0149492
-0.0143628
-0.0137912
-0.0132349
-0.0126945
-0.0121703
-0.0116624
-0.011171
-0.0106962
-0.0102377
-0.0097956
-0.00936959
-0.00895945
-0.00856489
-0.00818561
-0.00782125
-0.00747143
-0.00713579
-0.00681389
-0.00650535
-0.00620974
-0.00592663
-0.0056556
-0.00539623
-0.00514811
-0.00491082
-0.00468395
-0.0044671
-0.00425988
-0.00406192
-0.00387284
-0.00369227
-0.00351986
-0.00335528
-0.0031982
-0.00304829
-0.00290525
-0.00276878
-0.00263859
-0.00251441
-0.00239598
-0.00228304
-0.00217534
-0.00207265
-0.00197475
-0.00188142
-0.00179245
-0.00170764
-0.0016268
-0.00154976
-0.00147633
-0.00140636
-0.00133967
-0.00127613
-0.00121558
-0.00115788
-0.00110291
-0.00105053
-0.00100062
-0.000953079
-0.000907781
-0.000864627
-0.000823514
-0.000784348
-0.000747036
-0.000711492
-0.000677631
-0.000645375
-0.000614648
-0.000585377
-0.000557494
-0.000530933
-0.00050563
-0.000481527
-0.000458567
-0.000436694
-0.000415858
-0.000396009
-0.0003771
-0.000359086
-0.000341925
-0.000325575
-0.000309999
-0.000295158
-0.000281018
-0.000267545
-0.000254708
-0.000242475
-0.000230817
-0.000219707
-0.000209119
-0.000199027
-0.000189407
-0.000180236
-0.000171493
-0.000163156
-0.000155206
-0.000147624
-0.000140392
-0.000133493
-0.000126909
-0.000120626
-0.000114629
-0.000108903
-0.000103435
-9.82116e-05
-9.32204e-05
-8.84497e-05
-8.3888e-05
-7.95245e-05
-7.53489e-05
-7.13513e-05
-6.75222e-05
-6.38524e-05
-6.03333e-05
-5.69566e-05
-5.37142e-05
-5.05984e-05
-4.76019e-05
-4.47176e-05
-4.19386e-05
-3.92584e-05
-3.66706e-05
-3.41692e-05
-3.17481e-05
-2.94018e-05
-2.71246e-05
-2.49113e-05
-2.27564e-05
-2.06551e-05
-1.86023e-05
-1.65934e-05
-1.46229e-05
-1.26883e-05
-1.07795e-05
-8.90622e-06
-7.0276e-06
-5.22986e-06
-3.26823e-06
-1.67459e-06
0.349232
0.349116
0.348863
0.348464
0.34792
0.347233
0.346402
0.345427
0.344304
0.343033
0.34161
0.340034
0.3383
0.336405
0.334345
0.332113
0.329706
0.327118
0.324346
0.321386
0.318236
0.314893
0.311355
0.307621
0.303689
0.299559
0.29523
0.290701
0.285972
0.281045
0.275919
0.270597
0.265081
0.259373
0.253478
0.247398
0.241141
0.234712
0.228117
0.221366
0.214467
0.20743
0.200266
0.192987
0.185607
0.17814
0.170599
0.163001
0.155363
0.147701
0.140033
0.132377
0.12475
0.117173
0.109662
0.102236
0.0949125
0.0877095
0.0806437
0.0737312
0.0669872
0.0604262
0.0540615
0.0479052
0.0419683
0.0362607
0.0307906
0.0255654
0.0205907
0.015871
0.0114096
0.0072081
0.0032673
-0.000413473
-0.00383601
-0.0070032
-0.009919
-0.0125883
-0.015017
-0.0172117
-0.0191798
-0.0209293
-0.0224691
-0.0238081
-0.024956
-0.0259227
-0.0267184
-0.0273534
-0.027838
-0.0281829
-0.0283982
-0.0284944
-0.0284814
-0.028369
-0.0281669
-0.0278841
-0.0275295
-0.0271114
-0.0266379
-0.0261165
-0.0255541
-0.0249574
-0.0243325
-0.023685
-0.02302
-0.0223423
-0.0216561
-0.0209654
-0.0202736
-0.0195837
-0.0188985
-0.0182203
-0.0175513
-0.0168932
-0.0162475
-0.0156155
-0.0149984
-0.0143968
-0.0138115
-0.0132431
-0.0126917
-0.0121578
-0.0116414
-0.0111426
-0.0106612
-0.0101971
-0.00975013
-0.00932002
-0.00890645
-0.00850908
-0.00812754
-0.00776141
-0.00741027
-0.0070737
-0.00675124
-0.00644245
-0.00614686
-0.00586403
-0.00559349
-0.0053348
-0.00508752
-0.0048512
-0.00462543
-0.00440977
-0.00420383
-0.00400721
-0.00381952
-0.00364038
-0.00346944
-0.00330634
-0.00315075
-0.00300234
-0.00286079
-0.00272581
-0.00259709
-0.00247437
-0.00235737
-0.00224584
-0.00213952
-0.00203818
-0.0019416
-0.00184955
-0.00176183
-0.00167823
-0.00159858
-0.00152268
-0.00145036
-0.00138146
-0.00131581
-0.00125327
-0.00119368
-0.00113692
-0.00108284
-0.00103133
-0.000982258
-0.000935513
-0.000890985
-0.000848569
-0.000808167
-0.000769682
-0.000733024
-0.000698107
-0.000664848
-0.000633168
-0.000602993
-0.000574251
-0.000546874
-0.000520797
-0.000495959
-0.000472299
-0.000449763
-0.000428297
-0.000407849
-0.000388371
-0.000369817
-0.000352142
-0.000335304
-0.000319264
-0.000303983
-0.000289425
-0.000275554
-0.000262339
-0.000249747
-0.000237749
-0.000226316
-0.00021542
-0.000205036
-0.000195139
-0.000185705
-0.000176712
-0.000168138
-0.000159963
-0.000152168
-0.000144734
-0.000137642
-0.000130877
-0.000124423
-0.000118263
-0.000112383
-0.000106769
-0.000101408
-9.62863e-05
-9.13929e-05
-8.67156e-05
-8.22434e-05
-7.79655e-05
-7.38718e-05
-6.99527e-05
-6.61987e-05
-6.2601e-05
-5.9151e-05
-5.58405e-05
-5.26617e-05
-4.96071e-05
-4.66694e-05
-4.38417e-05
-4.11173e-05
-3.84896e-05
-3.59526e-05
-3.35002e-05
-3.11267e-05
-2.88263e-05
-2.65938e-05
-2.44238e-05
-2.23111e-05
-2.0251e-05
-1.82383e-05
-1.62688e-05
-1.43368e-05
-1.24401e-05
-1.05686e-05
-8.73196e-06
-6.89008e-06
-5.12746e-06
-3.20426e-06
-1.64161e-06
0.350519
0.350404
0.350152
0.349756
0.349215
0.348532
0.347706
0.346736
0.345619
0.344354
0.342939
0.341369
0.339643
0.337755
0.335701
0.333476
0.331075
0.328493
0.325726
0.32277
0.319622
0.31628
0.312741
0.309005
0.305068
0.30093
0.29659
0.292047
0.287301
0.282352
0.2772
0.271847
0.266294
0.260545
0.254602
0.24847
0.242153
0.235659
0.228993
0.222163
0.21518
0.208053
0.200793
0.193412
0.185925
0.178345
0.170688
0.162971
0.155209
0.147421
0.139625
0.131841
0.124086
0.11638
0.108743
0.101193
0.0937487
0.086429
0.0792511
0.0722319
0.0653873
0.0587322
0.0522805
0.0460448
0.0400363
0.0342652
0.0287401
0.0234682
0.0184553
0.013706
0.00922325
0.00500885
0.00106319
-0.00261458
-0.00602653
-0.00917586
-0.0120669
-0.0147049
-0.017096
-0.0192475
-0.0211672
-0.0228636
-0.0243457
-0.0256234
-0.0267067
-0.0276059
-0.0283318
-0.0288952
-0.0293069
-0.0295779
-0.0297191
-0.029741
-0.0296542
-0.0294688
-0.0291948
-0.0288417
-0.0284184
-0.0279338
-0.0273958
-0.0268124
-0.0261906
-0.0255371
-0.0248581
-0.0241594
-0.023446
-0.0227228
-0.0219939
-0.0212633
-0.0205342
-0.0198098
-0.0190926
-0.018385
-0.0176889
-0.017006
-0.0163377
-0.0156852
-0.0150494
-0.014431
-0.0138306
-0.0132486
-0.0126853
-0.0121407
-0.0116149
-0.0111078
-0.0106193
-0.0101491
-0.00969687
-0.00926233
-0.00884508
-0.0084447
-0.00806076
-0.00769278
-0.0073403
-0.00700281
-0.00667983
-0.00637086
-0.0060754
-0.00579297
-0.00552306
-0.00526521
-0.00501894
-0.00478378
-0.0045593
-0.00434504
-0.00414058
-0.0039455
-0.00375942
-0.00358193
-0.00341266
-0.00325126
-0.00309737
-0.00295066
-0.00281082
-0.00267752
-0.00255047
-0.0024294
-0.00231402
-0.00220407
-0.00209931
-0.0019995
-0.0019044
-0.0018138
-0.00172749
-0.00164526
-0.00156694
-0.00149233
-0.00142126
-0.00135356
-0.00128908
-0.00122766
-0.00116916
-0.00111344
-0.00106038
-0.00100983
-0.000961697
-0.00091585
-0.000872185
-0.000830599
-0.000790992
-0.000753272
-0.000717347
-0.000683132
-0.000650547
-0.000619513
-0.000589956
-0.000561806
-0.000534996
-0.000509462
-0.000485143
-0.00046198
-0.000439919
-0.000418907
-0.000398894
-0.000379831
-0.000361673
-0.000344378
-0.000327902
-0.000312208
-0.000297258
-0.000283015
-0.000269447
-0.000256519
-0.000244203
-0.000232467
-0.000221284
-0.000210628
-0.000200472
-0.000190793
-0.000181567
-0.000172773
-0.000164389
-0.000156395
-0.000148773
-0.000141503
-0.000134569
-0.000127955
-0.000121644
-0.000115621
-0.000109872
-0.000104383
-9.91417e-05
-9.41348e-05
-8.93507e-05
-8.4778e-05
-8.04057e-05
-7.62234e-05
-7.22213e-05
-6.83898e-05
-6.47198e-05
-6.12026e-05
-5.78298e-05
-5.45934e-05
-5.14857e-05
-4.84995e-05
-4.56275e-05
-4.2863e-05
-4.01995e-05
-3.76307e-05
-3.51504e-05
-3.27528e-05
-3.04323e-05
-2.81833e-05
-2.60006e-05
-2.38791e-05
-2.18136e-05
-1.97994e-05
-1.78317e-05
-1.5906e-05
-1.40172e-05
-1.21627e-05
-1.0333e-05
-8.53725e-06
-6.73644e-06
-5.01306e-06
-3.13278e-06
-1.60477e-06
0.351947
0.351832
0.351582
0.351188
0.350651
0.349973
0.349153
0.348189
0.34708
0.345822
0.344414
0.342853
0.341135
0.339256
0.33721
0.334993
0.3326
0.330024
0.327263
0.324312
0.321168
0.317828
0.31429
0.310551
0.30661
0.302464
0.298113
0.293556
0.288791
0.283818
0.278637
0.273251
0.267658
0.261863
0.255868
0.249677
0.243295
0.236728
0.229982
0.223065
0.215988
0.208759