/*--------------------------------*- C++ -*----------------------------------*\
| =========                 |                                                 |
| \\      /  F ield         | OpenFOAM: The Open Source CFD Toolbox           |
|  \\    /   O peration     | Version:  2306                                  |
|   \\  /    A nd           | Website:  www.openfoam.com                      |
|    \\/     M anipulation  |                                                 |
\*---------------------------------------------------------------------------*/
FoamFile
{
    version     2.0;
    format      ascii;
    arch        "LSB;label=32;scalar=64";
    class       surfaceScalarField;
    location    "0.5";
    object      phi;
}
// * * * * * * * * * * * * * * * * * * * * * * * * * * * * * * * * * * * * * //

dimensions      [0 3 -1 0 0 0 0];

oriented        oriented;

internalField   nonuniform List<scalar> 
65152
(
0.00625045
-4.50621e-07
0.00625181
-1.36211e-06
0.0062541
-2.28536e-06
0.00625732
-3.22575e-06
0.00626151
-4.19065e-06
0.0062667
-5.18568e-06
0.00627292
-6.21617e-06
0.00628021
-7.29847e-06
0.00628869
-8.47367e-06
0.0062985
-9.80665e-06
0.00630986
-1.13611e-05
0.00632302
-1.31611e-05
0.00633818
-1.5164e-05
0.00635544
-1.72622e-05
0.00637476
-1.93136e-05
0.00639594
-2.11841e-05
0.00641872
-2.27805e-05
0.00644279
-2.40652e-05
0.00646784
-2.50503e-05
0.00649362
-2.5781e-05
0.00651993
-2.63162e-05
0.00654665
-2.67136e-05
0.00657367
-2.70211e-05
0.00660094
-2.7274e-05
0.00662844
-2.74955e-05
0.00665614
-2.76993e-05
0.00668403
-2.78922e-05
0.00671211
-2.80768e-05
0.00674036
-2.82527e-05
0.00676878
-2.84181e-05
0.00679735
-2.85702e-05
0.00682605
-2.87059e-05
0.00685488
-2.88215e-05
0.00688379
-2.89133e-05
0.00691277
-2.89775e-05
0.00694178
-2.90102e-05
0.00697078
-2.90077e-05
0.00699975
-2.89661e-05
0.00702863
-2.88818e-05
0.00705738
-2.8751e-05
0.00708595
-2.85703e-05
0.00711429
-2.83365e-05
0.00714234
-2.80467e-05
0.00717003
-2.76979e-05
0.00719732
-2.7288e-05
0.00722414
-2.68147e-05
0.00725041
-2.62765e-05
0.00727609
-2.56721e-05
0.00730109
-2.50008e-05
0.00732535
-2.42623e-05
0.00734881
-2.34568e-05
0.00737139
-2.25849e-05
0.00739304
-2.16479e-05
0.00741369
-2.06476e-05
0.00743327
-1.95862e-05
0.00745174
-1.84664e-05
0.00746903
-1.72913e-05
0.00748509
-1.60646e-05
0.00749988
-1.47902e-05
0.00751336
-1.34726e-05
0.00752547
-1.21164e-05
0.0075362
-1.07266e-05
0.00754551
-9.3082e-06
0.00755337
-7.86668e-06
0.00755978
-6.40745e-06
0.00756472
-4.93602e-06
0.00756818
-3.45793e-06
0.00757016
-1.97871e-06
0.00757066
-5.03793e-07
0.0075697
9.61376e-07
0.00756729
2.41164e-06
0.00756344
3.84199e-06
0.0075582
5.24756e-06
0.00755157
6.62372e-06
0.00754361
7.96608e-06
0.00753434
9.27051e-06
0.0075238
1.05332e-05
0.00751205
1.17505e-05
0.00749913
1.29193e-05
0.0074851
1.40365e-05
0.00747
1.50995e-05
0.00745389
1.61059e-05
0.00743684
1.70538e-05
0.0074189
1.79414e-05
0.00740013
1.87674e-05
0.0073806
1.95307e-05
0.00736037
2.02305e-05
0.0073395
2.08665e-05
0.00731806
2.14385e-05
0.00729612
2.19466e-05
0.00727372
2.23914e-05
0.00725095
2.27736e-05
0.00722786
2.30942e-05
0.0072045
2.33544e-05
0.00718095
2.35558e-05
0.00715725
2.37001e-05
0.00713346
2.37892e-05
0.00710963
2.38253e-05
0.00708582
2.38105e-05
0.00706207
2.37473e-05
0.00703844
2.36382e-05
0.00701495
2.34857e-05
0.00699166
2.32927e-05
0.0069686
2.30618e-05
0.0069458
2.27957e-05
0.0069233
2.24973e-05
0.00690113
2.21693e-05
0.00687932
2.18144e-05
0.00685788
2.14353e-05
0.00683685
2.10346e-05
0.00681623
2.06149e-05
0.00679606
2.01787e-05
0.00677633
1.97282e-05
0.00675706
1.92659e-05
0.00673827
1.87939e-05
0.00671995
1.83142e-05
0.00670212
1.78287e-05
0.00668479
1.73394e-05
0.00666794
1.68478e-05
0.00665158
1.63556e-05
0.00663572
1.58642e-05
0.00662034
1.5375e-05
0.00660545
1.48892e-05
0.00659105
1.44079e-05
0.00657711
1.3932e-05
0.00656365
1.34626e-05
0.00655065
1.30004e-05
0.0065381
1.25461e-05
0.006526
1.21003e-05
0.00651434
1.16636e-05
0.0065031
1.12364e-05
0.00649228
1.08191e-05
0.00648187
1.04119e-05
0.00647186
1.00152e-05
0.00646223
9.62917e-06
0.00645297
9.25387e-06
0.00644409
8.8894e-06
0.00643555
8.53582e-06
0.00642736
8.19311e-06
0.00641949
7.86123e-06
0.00641195
7.54012e-06
0.00640473
7.22968e-06
0.0063978
6.92977e-06
0.00639116
6.64024e-06
0.00638479
6.36093e-06
0.0063787
6.09165e-06
0.00637287
5.8322e-06
0.00636729
5.58236e-06
0.00636195
5.34192e-06
0.00635684
5.11063e-06
0.00635195
4.88826e-06
0.00634727
4.67458e-06
0.0063428
4.46932e-06
0.00633853
4.27225e-06
0.00633445
4.0831e-06
0.00633055
3.90165e-06
0.00632682
3.72763e-06
0.00632326
3.56079e-06
0.00631986
3.40091e-06
0.00631661
3.24772e-06
0.00631351
3.101e-06
0.00631055
2.96052e-06
0.00630772
2.82604e-06
0.00630502
2.69735e-06
0.00630245
2.57422e-06
0.00629999
2.45644e-06
0.00629765
2.3438e-06
0.00629541
2.2361e-06
0.00629328
2.13315e-06
0.00629125
2.03475e-06
0.00628931
1.94072e-06
0.00628745
1.85089e-06
0.00628569
1.76507e-06
0.00628401
1.6831e-06
0.0062824
1.60483e-06
0.00628087
1.53009e-06
0.00627941
1.45874e-06
0.00627802
1.39062e-06
0.0062767
1.32561e-06
0.00627543
1.26356e-06
0.00627423
1.20436e-06
0.00627308
1.14786e-06
0.00627199
1.09396e-06
0.00627094
1.04255e-06
0.00626995
9.93501e-07
0.006269
9.4672e-07
0.0062681
9.02104e-07
0.00626724
8.59556e-07
0.00626642
8.18982e-07
0.00626564
7.80295e-07
0.0062649
7.43407e-07
0.00626419
7.08239e-07
0.00626352
6.74711e-07
0.00626287
6.42749e-07
0.00626226
6.12281e-07
0.00626168
5.8324e-07
0.00626112
5.55558e-07
0.00626059
5.29174e-07
0.00626009
5.04028e-07
0.00625961
4.80063e-07
0.00625915
4.57223e-07
0.00625872
4.35458e-07
0.0062583
4.14716e-07
0.00625791
3.9495e-07
0.00625753
3.76115e-07
0.00625717
3.58166e-07
0.00625683
3.41064e-07
0.00625651
3.24767e-07
0.0062562
3.09238e-07
0.0062559
2.94441e-07
0.00625562
2.80342e-07
0.00625536
2.66907e-07
0.0062551
2.54105e-07
0.00625486
2.41907e-07
0.00625463
2.30283e-07
0.00625441
2.19207e-07
0.0062542
2.08652e-07
0.006254
1.98593e-07
0.00625381
1.89007e-07
0.00625363
1.79872e-07
0.00625346
1.71165e-07
0.0062533
1.62866e-07
0.00625315
1.54956e-07
0.006253
1.47415e-07
0.00625286
1.40227e-07
0.00625272
1.33373e-07
0.0062526
1.26838e-07
0.00625248
1.20606e-07
0.00625236
1.14662e-07
0.00625225
1.08992e-07
0.00625215
1.03583e-07
0.00625205
9.84225e-08
0.00625196
9.3497e-08
0.00625187
8.87954e-08
0.00625178
8.43063e-08
0.0062517
8.00193e-08
0.00625163
7.59238e-08
0.00625156
7.20103e-08
0.00625149
6.82693e-08
0.00625142
6.4692e-08
0.00625136
6.12697e-08
0.0062513
5.79944e-08
0.00625125
5.4858e-08
0.0062512
5.18534e-08
0.00625115
4.89729e-08
0.0062511
4.62101e-08
0.00625106
4.35581e-08
0.00625102
4.10106e-08
0.00625098
3.85616e-08
0.00625094
3.62043e-08
0.00625091
3.39367e-08
0.00625088
3.174e-08
0.00625085
2.96517e-08
0.00625082
2.75269e-08
0.00625079
2.57929e-08
2.31141e-08
0.00625045
-9.01823e-07
0.00625181
-2.72291e-06
0.0062541
-4.56866e-06
0.00625732
-6.44957e-06
0.00626151
-8.37924e-06
0.00626669
-1.03688e-05
0.0062729
-1.24291e-05
0.0062802
-1.45931e-05
0.00628867
-1.6943e-05
0.00629847
-1.96082e-05
0.00630982
-2.27161e-05
0.00632298
-2.63148e-05
0.00633813
-3.03191e-05
0.00635539
-3.4514e-05
0.00637469
-3.86154e-05
0.00639586
-4.23551e-05
0.00641862
-4.55471e-05
0.00644268
-4.81162e-05
0.00646771
-5.00867e-05
0.00649348
-5.15489e-05
0.00651978
-5.26205e-05
0.00654649
-5.3417e-05
0.0065735
-5.40342e-05
0.00660077
-5.45424e-05
0.00662826
-5.4988e-05
0.00665596
-5.53983e-05
0.00668386
-5.57872e-05
0.00671194
-5.61594e-05
0.0067402
-5.65146e-05
0.00676863
-5.68489e-05
0.00679722
-5.71568e-05
0.00682594
-5.74318e-05
0.00685479
-5.76667e-05
0.00688373
-5.78541e-05
0.00691274
-5.79864e-05
0.00694178
-5.80558e-05
0.00697083
-5.80545e-05
0.00699984
-5.79751e-05
0.00702877
-5.78099e-05
0.00705757
-5.75517e-05
0.00708619
-5.71936e-05
0.00711458
-5.6729e-05
0.00714269
-5.6152e-05
0.00717045
-5.54569e-05
0.0071978
-5.4639e-05
0.00722468
-5.36942e-05
0.00725102
-5.2619e-05
0.00727676
-5.1411e-05
0.00730183
-5.00687e-05
0.00732616
-4.85914e-05
0.00734968
-4.69796e-05
0.00737233
-4.52347e-05
0.00739404
-4.3359e-05
0.00741475
-4.13562e-05
0.00743439
-3.92307e-05
0.00745292
-3.69878e-05
0.00747026
-3.46341e-05
0.00748637
-3.21767e-05
0.0075012
-2.96237e-05
0.00751471
-2.69838e-05
0.00752686
-2.42665e-05
0.00753762
-2.14816e-05
0.00754695
-1.86396e-05
0.00755484
-1.57512e-05
0.00756126
-1.28272e-05
0.0075662
-9.87884e-06
0.00756966
-6.91717e-06
0.00757163
-3.9533e-06
0.00757213
-9.98013e-07
0.00757115
1.93739e-06
0.00756872
4.84298e-06
0.00756485
7.70852e-06
0.00755958
1.05243e-05
0.00755292
1.3281e-05
0.00754491
1.59698e-05
0.0075356
1.85825e-05
0.00752502
2.11114e-05
0.00751323
2.35494e-05
0.00750026
2.58898e-05
0.00748616
2.81269e-05
0.00747101
3.02552e-05
0.00745484
3.22701e-05
0.00743773
3.41676e-05
0.00741973
3.59442e-05
0.0074009
3.75973e-05
0.0073813
3.91246e-05
0.00736101
4.05247e-05
0.00734008
4.17968e-05
0.00731858
4.29406e-05
0.00729657
4.39564e-05
0.00727411
4.48452e-05
0.00725128
4.56086e-05
0.00722813
4.62485e-05
0.00720471
4.67675e-05
0.0071811
4.71686e-05
0.00715734
4.74553e-05
0.0071335
4.76315e-05
0.00710963
4.77013e-05
0.00708577
4.76693e-05
0.00706197
4.75404e-05
0.00703829
4.73196e-05
0.00701477
4.70121e-05
0.00699144
4.66234e-05
0.00696834
4.61588e-05
0.00694551
4.56239e-05
0.00692298
4.50243e-05
0.00690079
4.43656e-05
0.00687895
4.36531e-05
0.00685749
4.28922e-05
0.00683644
4.20883e-05
0.00681581
4.12465e-05
0.00679561
4.03716e-05
0.00677587
3.94685e-05
0.0067566
3.85417e-05
0.00673779
3.75956e-05
0.00671947
3.66343e-05
0.00670164
3.56616e-05
0.0066843
3.46812e-05
0.00666745
3.36965e-05
0.0066511
3.27106e-05
0.00663523
3.17265e-05
0.00661986
3.07468e-05
0.00660498
2.97741e-05
0.00659058
2.88104e-05
0.00657665
2.78578e-05
0.00656319
2.69182e-05
0.0065502
2.59931e-05
0.00653766
2.50838e-05
0.00652557
2.41917e-05
0.00651392
2.33178e-05
0.00650269
2.2463e-05
0.00649188
2.16281e-05
0.00648148
2.08136e-05
0.00647148
2.002e-05
0.00646186
1.92477e-05
0.00645261
1.8497e-05
0.00644374
1.7768e-05
0.00643521
1.70609e-05
0.00642703
1.63755e-05
0.00641918
1.57118e-05
0.00641165
1.50697e-05
0.00640443
1.44489e-05
0.00639751
1.38492e-05
0.00639088
1.32704e-05
0.00638453
1.27119e-05
0.00637845
1.21736e-05
0.00637262
1.16549e-05
0.00636705
1.11554e-05
0.00636172
1.06748e-05
0.00635662
1.02124e-05
0.00635174
9.76793e-06
0.00634707
9.3408e-06
0.00634261
8.93053e-06
0.00633834
8.53663e-06
0.00633427
8.15859e-06
0.00633037
7.79592e-06
0.00632665
7.44813e-06
0.0063231
7.1147e-06
0.00631971
6.79517e-06
0.00631646
6.48903e-06
0.00631337
6.19583e-06
0.00631042
5.91509e-06
0.00630759
5.64636e-06
0.0063049
5.38919e-06
0.00630233
5.14313e-06
0.00629988
4.90778e-06
0.00629754
4.6827e-06
0.00629531
4.4675e-06
0.00629318
4.26178e-06
0.00629115
4.06517e-06
0.00628922
3.87729e-06
0.00628737
3.69779e-06
0.00628561
3.52632e-06
0.00628393
3.36255e-06
0.00628233
3.20616e-06
0.0062808
3.05683e-06
0.00627935
2.91426e-06
0.00627796
2.77817e-06
0.00627664
2.64828e-06
0.00627537
2.52432e-06
0.00627417
2.40603e-06
0.00627303
2.29316e-06
0.00627194
2.18547e-06
0.0062709
2.08275e-06
0.0062699
1.98476e-06
0.00626896
1.8913e-06
0.00626806
1.80216e-06
0.0062672
1.71716e-06
0.00626639
1.6361e-06
0.00626561
1.55881e-06
0.00626487
1.48512e-06
0.00626416
1.41486e-06
0.00626349
1.34787e-06
0.00626284
1.28402e-06
0.00626223
1.22315e-06
0.00626165
1.16514e-06
0.0062611
1.10983e-06
0.00626057
1.05713e-06
0.00626007
1.00689e-06
0.00625959
9.59015e-07
0.00625913
9.13388e-07
0.0062587
8.69906e-07
0.00625828
8.28469e-07
0.00625789
7.88982e-07
0.00625751
7.51355e-07
0.00625716
7.15499e-07
0.00625682
6.81333e-07
0.00625649
6.48777e-07
0.00625618
6.17755e-07
0.00625589
5.88196e-07
0.00625561
5.60029e-07
0.00625534
5.33191e-07
0.00625509
5.07617e-07
0.00625485
4.83249e-07
0.00625462
4.60028e-07
0.0062544
4.37901e-07
0.00625419
4.16815e-07
0.00625399
3.96721e-07
0.00625381
3.77572e-07
0.00625363
3.59322e-07
0.00625346
3.41929e-07
0.00625329
3.25351e-07
0.00625314
3.09548e-07
0.00625299
2.94485e-07
0.00625285
2.80124e-07
0.00625272
2.66433e-07
0.00625259
2.53378e-07
0.00625247
2.40928e-07
0.00625236
2.29055e-07
0.00625225
2.17729e-07
0.00625214
2.06924e-07
0.00625205
1.96614e-07
0.00625195
1.86775e-07
0.00625186
1.77382e-07
0.00625178
1.68415e-07
0.0062517
1.59851e-07
0.00625163
1.51669e-07
0.00625155
1.43851e-07
0.00625149
1.36378e-07
0.00625142
1.29232e-07
0.00625136
1.22395e-07
0.0062513
1.15852e-07
0.00625125
1.09587e-07
0.0062512
1.03585e-07
0.00625115
9.78308e-08
0.0062511
9.23114e-08
0.00625106
8.70138e-08
0.00625102
8.19244e-08
0.00625098
7.70328e-08
0.00625094
7.23227e-08
0.00625091
6.77955e-08
0.00625088
6.34023e-08
0.00625085
5.92461e-08
0.00625082
5.4978e-08
0.00625079
5.15989e-08
4.61088e-08
0.00625045
-1.35205e-06
0.00625181
-4.08229e-06
0.00625409
-6.84955e-06
0.00625731
-9.66974e-06
0.00626149
-1.25631e-05
0.00626667
-1.55462e-05
0.00627288
-1.86353e-05
0.00628016
-2.188e-05
0.00628863
-2.54032e-05
0.00629842
-2.93992e-05
0.00630976
-3.40586e-05
0.0063229
-3.94537e-05
0.00633804
-4.54565e-05
0.00635527
-5.17448e-05
0.00637454
-5.78932e-05
0.00639569
-6.34996e-05
0.00641843
-6.82855e-05
0.00644245
-7.21384e-05
0.00646746
-7.50949e-05
0.0064932
-7.72902e-05
0.00651948
-7.89009e-05
0.00654616
-8.00999e-05
0.00657316
-8.10308e-05
0.00660041
-8.1799e-05
0.0066279
-8.24739e-05
0.0066556
-8.30965e-05
0.0066835
-8.36874e-05
0.00671159
-8.42538e-05
0.00673987
-8.47949e-05
0.00676833
-8.53051e-05
0.00679695
-8.5776e-05
0.00682572
-8.61977e-05
0.00685461
-8.65596e-05
0.0068836
-8.68503e-05
0.00691268
-8.70583e-05
0.00694179
-8.71719e-05
0.00697092
-8.71796e-05
0.00700001
-8.70697e-05
0.00702903
-8.68309e-05
0.00705793
-8.64522e-05
0.00708666
-8.59232e-05
0.00711517
-8.52339e-05
0.00714339
-8.43751e-05
0.00717127
-8.33385e-05
0.00719875
-8.21168e-05
0.00722576
-8.07036e-05
0.00725223
-7.90938e-05
0.00727811
-7.72838e-05
0.00730331
-7.5271e-05
0.00732777
-7.30546e-05
0.00735143
-7.06351e-05
0.00737421
-6.80146e-05
0.00739605
-6.51969e-05
0.00741688
-6.2187e-05
0.00743664
-5.89919e-05
0.00745527
-5.56197e-05
0.00747272
-5.20801e-05
0.00748892
-4.8384e-05
0.00750384
-4.45436e-05
0.00751743
-4.05721e-05
0.00752965
-3.64838e-05
0.00754046
-3.22936e-05
0.00754984
-2.80173e-05
0.00755776
-2.3671e-05
0.0075642
-1.92713e-05
0.00756916
-1.48349e-05
0.00757262
-1.03787e-05
0.00757459
-5.91922e-06
0.00757506
-1.47269e-06
0.00757406
2.94318e-06
0.00757158
7.31422e-06
0.00756767
1.16247e-05
0.00756233
1.58598e-05
0.00755561
2.00058e-05
0.00754753
2.40494e-05
0.00753813
2.7978e-05
0.00752746
3.17803e-05
0.00751557
3.54454e-05
0.00750249
3.89635e-05
0.0074883
4.23257e-05
0.00747303
4.5524e-05
0.00745675
4.85514e-05
0.00743951
5.14018e-05
0.00742138
5.40703e-05
0.00740243
5.65525e-05
0.00738271
5.88453e-05
0.00736229
6.09466e-05
0.00734123
6.2855e-05
0.0073196
6.45702e-05
0.00729746
6.60928e-05
0.00727488
6.74242e-05
0.00725193
6.85667e-05
0.00722865
6.95234e-05
0.00720512
7.02982e-05
0.00718139
7.08956e-05
0.00715753
7.13208e-05
0.00713358
7.15798e-05
0.0071096
7.16789e-05
0.00708565
7.1625e-05
0.00706176
7.14254e-05
0.00703799
7.10876e-05
0.00701439
7.06197e-05
0.00699098
7.00298e-05
0.00696781
6.9326e-05
0.00694492
6.85168e-05
0.00692233
6.76106e-05
0.00690008
6.66156e-05
0.0068782
6.55402e-05
0.0068567
6.43924e-05
0.0068356
6.31801e-05
0.00681494
6.19112e-05
0.00679472
6.05929e-05
0.00677495
5.92326e-05
0.00675566
5.7837e-05
0.00673684
5.64127e-05
0.00671851
5.49658e-05
0.00670067
5.35022e-05
0.00668332
5.20274e-05
0.00666647
5.05464e-05
0.00665012
4.9064e-05
0.00663426
4.75845e-05
0.0066189
4.61119e-05
0.00660402
4.465e-05
0.00658963
4.3202e-05
0.00657572
4.17709e-05
0.00656227
4.03594e-05
0.0065493
3.897e-05
0.00653678
3.76046e-05
0.0065247
3.62651e-05
0.00651307
3.49531e-05
0.00650186
3.367e-05
0.00649107
3.24168e-05
0.00648069
3.11944e-05
0.00647071
3.00036e-05
0.00646111
2.88448e-05
0.00645189
2.77186e-05
0.00644303
2.6625e-05
0.00643453
2.55643e-05
0.00642637
2.45363e-05
0.00641854
2.35409e-05
0.00641103
2.2578e-05
0.00640383
2.16472e-05
0.00639693
2.0748e-05
0.00639032
1.98801e-05
0.00638399
1.90429e-05
0.00637793
1.82359e-05
0.00637213
1.74584e-05
0.00636657
1.67098e-05
0.00636126
1.59894e-05
0.00635617
1.52964e-05
0.00635131
1.46303e-05
0.00634666
1.39902e-05
0.00634222
1.33754e-05
0.00633797
1.27852e-05
0.00633391
1.22188e-05
0.00633003
1.16754e-05
0.00632632
1.11543e-05
0.00632278
1.06548e-05
0.0063194
1.01761e-05
0.00631617
9.71747e-06
0.00631309
9.27825e-06
0.00631015
8.85771e-06
0.00630734
8.45516e-06
0.00630466
8.06995e-06
0.0063021
7.7014e-06
0.00629966
7.34888e-06
0.00629733
7.01177e-06
0.00629511
6.68945e-06
0.00629299
6.38135e-06
0.00629097
6.08689e-06
0.00628904
5.80552e-06
0.0062872
5.5367e-06
0.00628545
5.27991e-06
0.00628377
5.03466e-06
0.00628218
4.80045e-06
0.00628066
4.57683e-06
0.00627921
4.36334e-06
0.00627783
4.15956e-06
0.00627651
3.96505e-06
0.00627526
3.77943e-06
0.00627406
3.6023e-06
0.00627292
3.43329e-06
0.00627183
3.27205e-06
0.0062708
3.11824e-06
0.00626981
2.97152e-06
0.00626887
2.83158e-06
0.00626798
2.69811e-06
0.00626712
2.57084e-06
0.00626631
2.44947e-06
0.00626553
2.33375e-06
0.0062648
2.22341e-06
0.00626409
2.11821e-06
0.00626342
2.01793e-06
0.00626278
1.92233e-06
0.00626218
1.8312e-06
0.0062616
1.74433e-06
0.00626105
1.66153e-06
0.00626052
1.58262e-06
0.00626002
1.50741e-06
0.00625954
1.43573e-06
0.00625909
1.36742e-06
0.00625866
1.30232e-06
0.00625824
1.24028e-06
0.00625785
1.18117e-06
0.00625748
1.12483e-06
0.00625712
1.07115e-06
0.00625678
1.02e-06
0.00625646
9.71263e-07
0.00625615
9.2482e-07
0.00625586
8.80567e-07
0.00625558
8.38399e-07
0.00625532
7.98219e-07
0.00625507
7.59933e-07
0.00625483
7.23451e-07
0.0062546
6.88688e-07
0.00625438
6.55562e-07
0.00625417
6.23995e-07
0.00625398
5.93913e-07
0.00625379
5.65245e-07
0.00625361
5.37924e-07
0.00625344
5.11884e-07
0.00625328
4.87066e-07
0.00625312
4.63409e-07
0.00625298
4.40858e-07
0.00625284
4.19359e-07
0.00625271
3.98862e-07
0.00625258
3.79318e-07
0.00625246
3.6068e-07
0.00625235
3.42905e-07
0.00625224
3.2595e-07
0.00625214
3.09774e-07
0.00625204
2.94339e-07
0.00625194
2.79609e-07
0.00625186
2.65549e-07
0.00625177
2.52124e-07
0.00625169
2.39303e-07
0.00625162
2.27055e-07
0.00625155
2.15351e-07
0.00625148
2.04164e-07
0.00625141
1.93465e-07
0.00625135
1.83231e-07
0.0062513
1.73435e-07
0.00625124
1.64056e-07
0.00625119
1.5507e-07
0.00625114
1.46456e-07
0.0062511
1.38194e-07
0.00625105
1.30263e-07
0.00625101
1.22644e-07
0.00625097
1.15321e-07
0.00625094
1.08269e-07
0.0062509
1.01493e-07
0.00625087
9.49153e-08
0.00625084
8.86978e-08
0.00625082
8.23031e-08
0.00625079
7.72556e-08
6.9019e-08
0.00625045
-1.8015e-06
0.00625181
-5.4394e-06
0.00625408
-9.12659e-06
0.0062573
-1.28844e-05
0.00626148
-1.67399e-05
0.00626664
-2.07148e-05
0.00627284
-2.48313e-05
0.00628011
-2.91549e-05
0.00628856
-3.38497e-05
0.00629834
-3.91742e-05
0.00630966
-4.53822e-05
0.00632278
-5.25699e-05
0.00633789
-6.05667e-05
0.00635508
-6.89436e-05
0.00637433
-7.71345e-05
0.00639543
-8.46038e-05
0.00641813
-9.09812e-05
0.0064421
-9.6117e-05
0.00646707
-0.00010006
0.00649277
-0.000102991
0.00651901
-0.000105145
0.00654567
-0.000106751
0.00657264
-0.000108002
0.00659988
-0.000109038
0.00662735
-0.00010995
0.00665505
-0.000110793
0.00668296
-0.000111595
0.00671107
-0.000112365
0.00673937
-0.000113102
0.00676787
-0.000113799
0.00679654
-0.000114444
0.00682536
-0.000115023
0.00685433
-0.000115524
0.0068834
-0.000115929
0.00691257
-0.000116225
0.00694179
-0.000116394
0.00697104
-0.000116422
0.00700026
-0.000116293
0.00702942
-0.000115992
0.00705847
-0.000115503
0.00708736
-0.000114813
0.00711603
-0.000113908
0.00714443
-0.000112776
0.0071725
-0.000111405
0.00720017
-0.000109785
0.00722737
-0.000107909
0.00725405
-0.000105768
0.00728012
-0.000103359
0.00730553
-0.000100676
0.00733019
-9.77201e-05
0.00735405
-9.44908e-05
0.00737703
-9.09911e-05
0.00739906
-8.7226e-05
0.00742007
-8.32024e-05
0.00744001
-7.89295e-05
0.00745881
-7.44184e-05
0.00747641
-6.9682e-05
0.00749276
-6.47351e-05
0.00750781
-5.95941e-05
0.00752152
-5.42768e-05
0.00753383
-4.88026e-05
0.00754473
-4.31915e-05
0.00755418
-3.74647e-05
0.00756215
-3.16441e-05
0.00756863
-2.5752e-05
0.00757361
-1.98108e-05
0.00757707
-1.38433e-05
0.00757903
-7.87188e-06
0.00757947
-1.91785e-06
0.00757842
3.99415e-06
0.00757589
9.84585e-06
0.0075719
1.56157e-05
0.00756647
2.12843e-05
0.00755965
2.68327e-05
0.00755145
3.22434e-05
0.00754193
3.74996e-05
0.00753113
4.25859e-05
0.00751908
4.74879e-05
0.00750585
5.21925e-05
0.00749149
5.66878e-05
0.00747605
6.09631e-05
0.00745959
6.50091e-05
0.00744218
6.88176e-05
0.00742387
7.23819e-05
0.00740472
7.56965e-05
0.00738481
7.87571e-05
0.0073642
8.15608e-05
0.00734295
8.41059e-05
0.00732112
8.6392e-05
0.0072988
8.842e-05
0.00727603
9.01917e-05
0.00725289
9.17102e-05
0.00722943
9.29799e-05
0.00720572
9.40059e-05
0.00718182
9.47943e-05
0.00715779
9.53523e-05
0.00713368
9.56877e-05
0.00710955
9.58093e-05
0.00708545
9.57262e-05
0.00706143
9.54482e-05
0.00703753
9.49857e-05
0.0070138
9.43492e-05
0.00699028
9.35498e-05
0.00696701
9.25986e-05
0.00694402
9.15068e-05
0.00692134
9.02855e-05
0.00689901
8.89462e-05
0.00687705
8.74997e-05
0.00685549
8.5957e-05
0.00683434
8.43288e-05
0.00681363
8.26253e-05
0.00679336
8.08565e-05
0.00677356
7.90321e-05
0.00675424
7.71612e-05
0.0067354
7.52525e-05
0.00671705
7.33143e-05
0.0066992
7.13544e-05
0.00668185
6.938e-05
0.006665
6.7398e-05
0.00664864
6.54146e-05
0.00663279
6.34357e-05
0.00661744
6.14666e-05
0.00660258
5.95122e-05
0.0065882
5.75768e-05
0.00657431
5.56645e-05
0.00656089
5.37789e-05
0.00654794
5.1923e-05
0.00653544
5.00996e-05
0.00652339
4.83112e-05
0.00651179
4.65598e-05
0.00650061
4.48471e-05
0.00648985
4.31748e-05
0.0064795
4.15438e-05
0.00646955
3.99552e-05
0.00645999
3.84096e-05
0.0064508
3.69075e-05
0.00644197
3.54493e-05
0.0064335
3.4035e-05
0.00642537
3.26645e-05
0.00641758
3.13378e-05
0.0064101
3.00543e-05
0.00640294
2.88138e-05
0.00639607
2.76157e-05
0.00638949
2.64593e-05
0.00638319
2.53439e-05
0.00637715
2.42688e-05
0.00637138
2.32331e-05
0.00636585
2.2236e-05
0.00636057
2.12765e-05
0.00635551
2.03537e-05
0.00635067
1.94667e-05
0.00634605
1.86144e-05
0.00634163
1.77958e-05
0.0063374
1.701e-05
0.00633337
1.6256e-05
0.00632951
1.55326e-05
0.00632582
1.4839e-05
0.0063223
1.41741e-05
0.00631894
1.35369e-05
0.00631574
1.29266e-05
0.00631267
1.2342e-05
0.00630975
1.17824e-05
0.00630696
1.12467e-05
0.00630429
1.07341e-05
0.00630175
1.02437e-05
0.00629932
9.7746e-06
0.00629701
9.32606e-06
0.0062948
8.89722e-06
0.0062927
8.4873e-06
0.00629069
8.09555e-06
0.00628877
7.72122e-06
0.00628694
7.36359e-06
0.0062852
7.02199e-06
0.00628354
6.69573e-06
0.00628196
6.38418e-06
0.00628045
6.08672e-06
0.00627901
5.80274e-06
0.00627764
5.53167e-06
0.00627633
5.27295e-06
0.00627508
5.02606e-06
0.00627389
4.79046e-06
0.00627276
4.56567e-06
0.00627168
4.35122e-06
0.00627065
4.14664e-06
0.00626967
3.9515e-06
0.00626874
3.76539e-06
0.00626785
3.58789e-06
0.006267
3.41862e-06
0.00626619
3.25721e-06
0.00626542
3.10331e-06
0.00626469
2.95657e-06
0.00626399
2.81667e-06
0.00626333
2.68331e-06
0.00626269
2.55617e-06
0.00626209
2.43498e-06
0.00626151
2.31946e-06
0.00626097
2.20936e-06
0.00626044
2.10442e-06
0.00625995
2.0044e-06
0.00625947
1.90909e-06
0.00625902
1.81825e-06
0.00625859
1.73168e-06
0.00625819
1.64919e-06
0.0062578
1.57058e-06
0.00625743
1.49567e-06
0.00625707
1.42429e-06
0.00625674
1.35627e-06
0.00625642
1.29146e-06
0.00625611
1.2297e-06
0.00625582
1.17086e-06
0.00625554
1.11479e-06
0.00625528
1.06136e-06
0.00625503
1.01045e-06
0.00625479
9.6194e-07
0.00625456
9.15715e-07
0.00625435
8.71668e-07
0.00625414
8.29694e-07
0.00625395
7.89694e-07
0.00625376
7.51575e-07
0.00625358
7.15247e-07
0.00625341
6.80623e-07
0.00625325
6.47622e-07
0.0062531
6.16167e-07
0.00625296
5.86181e-07
0.00625282
5.57596e-07
0.00625269
5.30341e-07
0.00625256
5.04355e-07
0.00625244
4.79573e-07
0.00625233
4.55938e-07
0.00625222
4.33393e-07
0.00625212
4.11885e-07
0.00625202
3.91363e-07
0.00625193
3.71777e-07
0.00625184
3.53081e-07
0.00625176
3.35231e-07
0.00625168
3.18184e-07
0.00625161
3.01899e-07
0.00625154
2.86337e-07
0.00625147
2.71461e-07
0.0062514
2.57236e-07
0.00625134
2.43628e-07
0.00625129
2.30604e-07
0.00625123
2.18133e-07
0.00625118
2.06185e-07
0.00625113
1.94732e-07
0.00625109
1.83745e-07
0.00625104
1.732e-07
0.006251
1.6307e-07
0.00625097
1.53333e-07
0.00625093
1.43958e-07
0.0062509
1.34948e-07
0.00625087
1.26202e-07
0.00625084
1.17936e-07
0.00625081
1.09431e-07
0.00625078
1.02724e-07
9.17677e-08
0.00625045
-2.24995e-06
0.0062518
-6.79338e-06
0.00625407
-1.13984e-05
0.00625728
-1.60917e-05
0.00626145
-2.0907e-05
0.00626661
-2.58717e-05
0.00627279
-3.10132e-05
0.00628005
-3.64136e-05
0.00628847
-4.22774e-05
0.00629823
-4.89274e-05
0.00630952
-5.668e-05
0.00632261
-6.56552e-05
0.00633768
-7.564e-05
0.00635484
-8.60991e-05
0.00637403
-9.63261e-05
0.00639508
-0.000105653
0.00641772
-0.000113619
0.00644164
-0.000120036
0.00646654
-0.000124967
0.00649219
-0.000128637
0.00651838
-0.000131339
0.00654499
-0.00013336
0.00657193
-0.000134939
0.00659914
-0.000136251
0.0066266
-0.000137411
0.0066543
-0.000138486
0.00668221
-0.000139512
0.00671035
-0.000140498
0.00673869
-0.000141445
0.00676723
-0.000142342
0.00679597
-0.000143176
0.00682487
-0.000143928
0.00685393
-0.000144582
0.00688312
-0.000145118
0.00691241
-0.000145517
0.00694177
-0.000145758
0.00697117
-0.000145822
0.00700057
-0.000145689
0.00702992
-0.000145339
0.00705917
-0.000144755
0.00708827
-0.000143917
0.00711717
-0.000142808
0.00714581
-0.000141414
0.00717413
-0.000139719
0.00720205
-0.00013771
0.00722952
-0.000135377
0.00725646
-0.000132711
0.00728281
-0.000129705
0.00730849
-0.000126354
0.00733342
-0.000122658
0.00735755
-0.000118616
0.00738079
-0.000114232
0.00740308
-0.000109512
0.00742434
-0.000104466
0.00744452
-9.91044e-05
0.00746354
-9.34413e-05
0.00748135
-8.74934e-05
0.00749789
-8.12794e-05
0.00751312
-7.482e-05
0.00752698
-6.8138e-05
0.00753944
-6.12576e-05
0.00755045
-5.42045e-05
0.00755999
-4.70056e-05
0.00756803
-3.96885e-05
0.00757456
-3.22815e-05
0.00757957
-2.4813e-05
0.00758303
-1.73117e-05
0.00758497
-9.80606e-06
0.00758537
-2.32353e-06
0.00758426
5.10633e-06
0.00758165
1.24589e-05
0.00757756
1.97079e-05
0.00757201
2.68284e-05
0.00756505
3.3797e-05
0.0075567
4.05914e-05
0.00754701
4.71906e-05
0.00753602
5.35753e-05
0.00752378
5.97273e-05
0.00751034
6.56303e-05
0.00749576
7.12693e-05
0.00748009
7.6631e-05
0.0074634
8.17036e-05
0.00744574
8.6477e-05
0.00742718
9.09427e-05
0.00740778
9.50938e-05
0.00738761
9.8925e-05
0.00736674
0.000102433
0.00734523
0.000105615
0.00732315
0.000108471
0.00730057
0.000111003
0.00727755
0.000113212
0.00725416
0.000115102
0.00723046
0.00011668
0.00720651
0.000117951
0.00718239
0.000118923
0.00715813
0.000119606
0.00713381
0.000120009
0.00710948
0.000120144
0.00708518
0.000120022
0.00706097
0.000119655
0.0070369
0.000119057
0.00701301
0.000118242
0.00698934
0.000117222
0.00696592
0.000116012
0.00694281
0.000114626
0.00692001
0.000113079
0.00689757
0.000111384
0.00687552
0.000109555
0.00685387
0.000107607
0.00683264
0.000105553
0.00681186
0.000103405
0.00679155
0.000101176
0.0067717
9.88783e-05
0.00675234
9.65234e-05
0.00673347
9.41221e-05
0.0067151
9.16848e-05
0.00669723
8.92212e-05
0.00667987
8.67405e-05
0.00666302
8.42512e-05
0.00664667
8.1761e-05
0.00663083
7.92774e-05
0.00661549
7.68069e-05
0.00660064
7.43555e-05
0.00658629
7.19288e-05
0.00657243
6.95318e-05
0.00655904
6.71687e-05
0.00654612
6.48436e-05
0.00653365
6.25598e-05
0.00652165
6.03204e-05
0.00651008
5.81278e-05
0.00649894
5.59842e-05
0.00648822
5.38915e-05
0.00647792
5.1851e-05
0.00646801
4.98639e-05
0.00645849
4.7931e-05
0.00644934
4.60528e-05
0.00644056
4.42298e-05
0.00643213
4.24619e-05
0.00642405
4.07492e-05
0.0064163
3.90913e-05
0.00640886
3.74878e-05
0.00640174
3.59382e-05
0.00639491
3.44416e-05
0.00638837
3.29974e-05
0.00638211
3.16046e-05
0.00637612
3.02623e-05
0.00637038
2.89693e-05
0.00636489
2.77246e-05
0.00635964
2.6527e-05
0.00635462
2.53753e-05
0.00634982
2.42684e-05
0.00634523
2.32049e-05
0.00634084
2.21835e-05
0.00633665
2.12032e-05
0.00633264
2.02624e-05
0.00632882
1.93601e-05
0.00632516
1.84949e-05
0.00632167
1.76656e-05
0.00631833
1.6871e-05
0.00631515
1.61098e-05
0.00631211
1.53809e-05
0.00630921
1.4683e-05
0.00630644
1.40151e-05
0.0063038
1.3376e-05
0.00630128
1.27646e-05
0.00629887
1.21798e-05
0.00629658
1.16206e-05
0.00629439
1.10861e-05
0.0062923
1.05751e-05
0.00629031
1.00868e-05
0.00628841
9.62021e-06
0.0062866
9.17447e-06
0.00628488
8.74871e-06
0.00628323
8.3421e-06
0.00628166
7.95383e-06
0.00628016
7.58312e-06
0.00627874
7.22923e-06
0.00627738
6.89144e-06
0.00627608
6.56904e-06
0.00627485
6.26138e-06
0.00627367
5.96781e-06
0.00627255
5.68772e-06
0.00627148
5.42051e-06
0.00627046
5.16561e-06
0.00626949
4.92247e-06
0.00626856
4.69058e-06
0.00626768
4.46943e-06
0.00626684
4.25854e-06
0.00626604
4.05744e-06
0.00626528
3.8657e-06
0.00626455
3.68289e-06
0.00626386
3.5086e-06
0.0062632
3.34245e-06
0.00626257
3.18407e-06
0.00626197
3.03309e-06
0.0062614
2.88918e-06
0.00626086
2.75202e-06
0.00626034
2.62129e-06
0.00625985
2.4967e-06
0.00625938
2.37796e-06
0.00625894
2.26481e-06
0.00625851
2.15697e-06
0.00625811
2.05421e-06
0.00625772
1.95628e-06
0.00625735
1.86297e-06
0.006257
1.77406e-06
0.00625667
1.68933e-06
0.00625635
1.6086e-06
0.00625605
1.53167e-06
0.00625576
1.45837e-06
0.00625549
1.38853e-06
0.00625523
1.32198e-06
0.00625498
1.25857e-06
0.00625475
1.19814e-06
0.00625452
1.14057e-06
0.00625431
1.0857e-06
0.0062541
1.03342e-06
0.00625391
9.83596e-07
0.00625372
9.36116e-07
0.00625355
8.90866e-07
0.00625338
8.47739e-07
0.00625322
8.06635e-07
0.00625307
7.67455e-07
0.00625293
7.30106e-07
0.00625279
6.94501e-07
0.00625266
6.60554e-07
0.00625254
6.28186e-07
0.00625242
5.9732e-07
0.00625231
5.67881e-07
0.0062522
5.39801e-07
0.0062521
5.13012e-07
0.006252
4.8745e-07
0.00625191
4.63055e-07
0.00625183
4.39769e-07
0.00625174
4.17536e-07
0.00625167
3.96303e-07
0.00625159
3.76019e-07
0.00625152
3.56637e-07
0.00625145
3.38109e-07
0.00625139