/*--------------------------------*- C++ -*----------------------------------*\
| =========                 |                                                 |
| \\      /  F ield         | OpenFOAM: The Open Source CFD Toolbox           |
|  \\    /   O peration     | Version:  2306                                  |
|   \\  /    A nd           | Website:  www.openfoam.com                      |
|    \\/     M anipulation  |                                                 |
\*---------------------------------------------------------------------------*/
FoamFile
{
    version     2.0;
    format      ascii;
    arch        "LSB;label=32;scalar=64";
    class       volScalarField;
    location    "0.5";
    object      T;
}
// * * * * * * * * * * * * * * * * * * * * * * * * * * * * * * * * * * * * * //

dimensions      [0 0 0 1 0 0 0];

internalField   nonuniform List<scalar> 
32768
(
297.454
295.73
293.319
290.063
285.802
280.384
273.679
265.589
256.059
245.092
232.75
219.156
204.492
188.993
172.928
156.591
140.285
124.3
108.905
94.3321
80.7678
68.35
57.1646
47.2484
38.5933
31.1536
24.8537
19.5969
15.2731
11.7665
8.96186
6.74878
5.02553
3.70105
2.69596
1.94272
1.38508
0.977173
0.682286
0.471546
0.322632
0.218567
0.146627
0.097424
0.0641207
0.0418094
0.0270117
0.0172939
0.0109738
0.00690231
0.00430392
0.00266084
0.00163121
0.000991716
0.000597998
0.00035768
0.000212235
0.000124942
7.29821e-05
4.23037e-05
2.43351e-05
1.38938e-05
7.87373e-06
4.4294e-06
2.47371e-06
1.3716e-06
7.5511e-07
4.12793e-07
2.2409e-07
1.20813e-07
6.46892e-08
3.44039e-08
1.81747e-08
9.53766e-09
4.97228e-09
2.57535e-09
1.32529e-09
6.77648e-10
3.44305e-10
1.73842e-10
8.72293e-11
4.35004e-11
2.15611e-11
1.06224e-11
5.20206e-12
2.53252e-12
1.22569e-12
5.89769e-13
2.82154e-13
1.3422e-13
6.34899e-14
2.98655e-14
1.39714e-14
6.50048e-15
3.00821e-15
1.3847e-15
6.34037e-16
2.8881e-16
1.30881e-16
5.90107e-17
2.64731e-17
1.18175e-17
5.2495e-18
2.32066e-18
1.02101e-18
4.47096e-19
1.94873e-19
8.45493e-20
3.65174e-20
1.57018e-20
6.72175e-21
2.86501e-21
1.21593e-21
5.13865e-22
2.1626e-22
9.06394e-23
3.78349e-23
1.573e-23
6.51403e-24
2.68706e-24
1.10417e-24
4.52013e-25
1.84349e-25
7.49083e-26
3.03277e-26
1.22346e-26
4.9182e-27
1.97018e-27
7.86519e-28
3.12923e-28
1.24082e-28
4.90395e-29
1.93181e-29
7.58547e-30
2.96907e-30
1.1585e-30
4.50634e-31
1.74753e-31
6.75637e-32
2.60439e-32
1.00097e-32
3.83593e-33
1.4658e-33
5.58525e-34
2.12224e-34
8.04158e-35
3.03878e-35
1.1452e-35
4.30431e-36
1.61353e-36
6.03272e-37
2.24972e-37
8.36821e-38
3.10484e-38
1.14911e-38
4.24237e-39
1.56237e-39
5.7384e-40
2.09612e-40
7.36687e-41
1.44641e-41
-4.62286e-41
-2.29405e-40
-9.56705e-40
-3.91734e-39
-1.59409e-38
-6.45327e-38
-2.59903e-37
-1.04133e-36
-4.15031e-36
-1.64538e-35
-6.48812e-35
-2.54454e-34
-9.92454e-34
-3.8494e-33
-1.48466e-32
-5.69352e-32
-2.17083e-31
-8.22863e-31
-3.10066e-30
-1.16137e-29
-4.3236e-29
-1.59971e-28
-5.88193e-28
-2.14906e-27
-7.80163e-27
-2.81381e-26
-1.00817e-25
-3.58812e-25
-1.26838e-24
-4.45286e-24
-1.55237e-23
-5.37367e-23
-1.84682e-22
-6.30099e-22
-2.13392e-21
-7.17273e-21
-2.39266e-20
-7.91986e-20
-2.60103e-19
-8.47448e-19
-2.73887e-18
-8.77943e-18
-2.79091e-17
-8.79748e-17
-2.74947e-16
-8.51848e-16
-2.61604e-15
-7.96234e-15
-2.40157e-14
-7.17716e-14
-2.12499e-13
-6.23235e-13
-1.81044e-12
-5.20829e-12
-1.48366e-11
-4.18452e-11
-1.16836e-10
-3.22906e-10
-8.83275e-10
-2.39104e-09
-6.40476e-09
-1.69747e-08
-4.45087e-08
-1.15451e-07
-2.96226e-07
-7.51794e-07
-1.88713e-06
-4.6851e-06
-1.15038e-05
-2.7936e-05
-6.70965e-05
-0.000159391
-0.000374526
-0.000870549
-0.00200192
-0.00455519
-0.0102576
-0.0228641
-0.0504583
-0.110281
-0.238774
-0.512314
-1.0897
-2.2986
-4.81049
-9.9924
-20.6109
-42.2348
-86.0172
-174.197
-350.936
-703.612
-1404.54
-2792.55
-5532.07
297.454
295.73
293.318
290.062
285.8
280.383
273.677
265.586
256.056
245.088
232.745
219.15
204.486
188.985
172.92
156.583
140.276
124.292
108.897
94.3233
80.7593
68.3419
57.1571
47.2416
38.5872
31.1482
24.8491
19.5929
15.2697
11.7638
8.95965
6.74701
5.02414
3.69998
2.69515
1.9421
1.38463
0.976844
0.68205
0.471379
0.322516
0.218486
0.146573
0.0973875
0.0640966
0.0417937
0.0270016
0.0172875
0.0109698
0.00689984
0.00430242
0.00265994
0.00163067
0.000991403
0.000597818
0.000357577
0.000212177
0.000124911
7.29651e-05
4.22947e-05
2.43305e-05
1.38915e-05
7.87256e-06
4.42883e-06
2.47345e-06
1.37148e-06
7.55064e-07
4.12777e-07
2.24086e-07
1.20813e-07
6.46906e-08
3.44053e-08
1.81758e-08
9.53839e-09
4.97274e-09
2.57562e-09
1.32545e-09
6.77737e-10
3.44354e-10
1.73868e-10
8.72428e-11
4.35073e-11
2.15646e-11
1.06242e-11
5.20291e-12
2.53292e-12
1.22588e-12
5.89857e-13
2.82194e-13
1.34238e-13
6.34975e-14
2.98687e-14
1.39727e-14
6.50096e-15
3.00837e-15
1.38475e-15
6.34046e-16
2.88808e-16
1.30876e-16
5.90073e-17
2.64709e-17
1.18162e-17
5.24876e-18
2.32026e-18
1.0208e-18
4.46992e-19
1.94822e-19
8.4524e-20
3.65053e-20
1.5696e-20
6.71906e-21
2.86377e-21
1.21535e-21
5.13605e-22
2.16144e-22
9.05873e-23
3.78119e-23
1.57199e-23
6.5096e-24
2.68514e-24
1.10335e-24
4.51659e-25
1.84198e-25
7.48444e-26
3.03008e-26
1.22234e-26
4.91351e-27
1.96824e-27
7.85718e-28
3.12594e-28
1.23948e-28
4.89848e-29
1.92959e-29
7.57655e-30
2.96549e-30
1.15706e-30
4.50063e-31
1.74527e-31
6.74742e-32
2.60087e-32
9.99585e-33
3.83052e-33
1.46369e-33
5.57707e-34
2.11907e-34
8.02938e-35
3.03409e-35
1.14341e-35
4.29744e-36
1.61091e-36
6.02279e-37
2.24596e-37
8.35403e-38
3.09951e-38
1.14711e-38
4.23488e-39
1.55957e-39
5.72801e-40
2.0923e-40
7.35403e-41
1.44704e-41
-4.60084e-41
-2.28444e-40
-9.52817e-40
-3.90179e-39
-1.5879e-38
-6.42882e-38
-2.58942e-37
-1.03757e-36
-4.13569e-36
-1.63973e-35
-6.46639e-35
-2.53624e-34
-9.89299e-34
-3.83748e-33
-1.48018e-32
-5.67683e-32
-2.16464e-31
-8.20582e-31
-3.09231e-30
-1.15833e-29
-4.31262e-29
-1.59577e-28
-5.86788e-28
-2.14408e-27
-7.78413e-27
-2.80769e-26
-1.00605e-25
-3.58082e-25
-1.26589e-24
-4.4444e-24
-1.54952e-23
-5.36416e-23
-1.84367e-22
-6.29062e-22
-2.13054e-21
-7.16179e-21
-2.38915e-20
-7.90868e-20
-2.5975e-19
-8.46346e-19
-2.73545e-18
-8.76893e-18
-2.78772e-17
-8.78785e-17
-2.74659e-16
-8.50996e-16
-2.61354e-15
-7.9551e-15
-2.39949e-14
-7.17124e-14
-2.12332e-13
-6.22771e-13
-1.80916e-12
-5.20481e-12
-1.48272e-11
-4.18201e-11
-1.1677e-10
-3.22735e-10
-8.82832e-10
-2.38991e-09
-6.40192e-09
-1.69677e-08
-4.44914e-08
-1.15409e-07
-2.96125e-07
-7.51557e-07
-1.88658e-06
-4.68383e-06
-1.15009e-05
-2.79295e-05
-6.70819e-05
-0.000159359
-0.000374457
-0.000870402
-0.00200161
-0.00455454
-0.0102563
-0.0228613
-0.0504528
-0.11027
-0.238752
-0.512271
-1.08961
-2.29844
-4.81019
-9.99182
-20.6098
-42.2327
-86.0135
-174.19
-350.923
-703.59
-1404.51
-2792.49
-5531.98
297.453
295.729
293.318
290.061
285.799
280.381
273.675
265.583
256.052
245.083
232.739
219.143
204.478
188.977
172.911
156.573
140.266
124.281
108.885
94.3123
80.7486
68.3317
57.1475
47.2327
38.5792
31.1411
24.8429
19.5877
15.2653
11.7602
8.95673
6.74469
5.02233
3.69858
2.69409
1.94132
1.38405
0.976428
0.681755
0.471172
0.322374
0.218391
0.146509
0.0973459
0.0640699
0.0417768
0.0269912
0.0172812
0.010966
0.00689766
0.00430119
0.00265927
0.00163033
0.000991231
0.00059774
0.000357547
0.00021217
0.000124913
7.29702e-05
4.22999e-05
2.43349e-05
1.38948e-05
7.87491e-06
4.43042e-06
2.47449e-06
1.37214e-06
7.55473e-07
4.13025e-07
2.24235e-07
1.209e-07
6.4741e-08
3.4434e-08
1.8192e-08
9.54737e-09
4.97767e-09
2.5783e-09
1.32688e-09
6.78501e-10
3.44755e-10
1.74077e-10
8.73507e-11
4.35624e-11
2.15925e-11
1.06382e-11
5.20987e-12
2.53635e-12
1.22755e-12
5.90668e-13
2.82584e-13
1.34424e-13
6.35852e-14
2.99098e-14
1.39919e-14
6.5098e-15
3.01242e-15
1.38659e-15
6.34876e-16
2.89179e-16
1.31042e-16
5.90802e-17
2.65028e-17
1.183e-17
5.25475e-18
2.32282e-18
1.02189e-18
4.47453e-19
1.95015e-19
8.46044e-20
3.65385e-20
1.57096e-20
6.7246e-21
2.866e-21
1.21625e-21
5.1396e-22
2.16283e-22
9.06418e-23
3.78329e-23
1.57279e-23
6.51264e-24
2.68628e-24
1.10376e-24
4.51809e-25
1.84252e-25
7.48629e-26
3.0307e-26
1.22254e-26
4.9141e-27
1.96839e-27
7.85749e-28
3.12594e-28
1.23943e-28
4.8981e-29
1.92937e-29
7.57539e-30
2.96493e-30
1.15681e-30
4.49947e-31
1.74476e-31
6.74522e-32
2.59994e-32
9.99196e-33
3.82891e-33
1.46303e-33
5.57438e-34
2.11799e-34
8.02504e-35
3.03237e-35
1.14273e-35
4.29477e-36
1.60987e-36
6.01874e-37
2.24439e-37
8.34799e-38
3.09719e-38
1.14622e-38
4.23151e-39
1.5583e-39
5.7232e-40
2.09053e-40
7.34909e-41
1.45203e-41
-4.5712e-41
-2.27212e-40
-9.47855e-40
-3.88195e-39
-1.58002e-38
-6.39765e-38
-2.57716e-37
-1.03278e-36
-4.11707e-36
-1.63253e-35
-6.43873e-35
-2.52567e-34
-9.85286e-34
-3.82233e-33
-1.4745e-32
-5.65564e-32
-2.15679e-31
-8.17692e-31
-3.08173e-30
-1.15449e-29
-4.29875e-29
-1.59079e-28
-5.85015e-28
-2.13781e-27
-7.76209e-27
-2.80001e-26
-1.00339e-25
-3.57167e-25
-1.26276e-24
-4.43382e-24
-1.54596e-23
-5.3523e-23
-1.83974e-22
-6.27773e-22
-2.12634e-21
-7.14822e-21
-2.3848e-20
-7.89489e-20
-2.59316e-19
-8.4499e-19
-2.73126e-18
-8.75608e-18
-2.78381e-17
-8.77609e-17
-2.74308e-16
-8.49962e-16
-2.61052e-15
-7.94635e-15
-2.39698e-14
-7.16413e-14
-2.12133e-13
-6.22217e-13
-1.80764e-12
-5.20067e-12
-1.48161e-11
-4.17906e-11
-1.16692e-10
-3.22533e-10
-8.82315e-10
-2.3886e-09
-6.39864e-09
-1.69595e-08
-4.44715e-08
-1.15361e-07
-2.96011e-07
-7.51287e-07
-1.88595e-06
-4.68238e-06
-1.14976e-05
-2.79221e-05
-6.70658e-05
-0.000159324
-0.000374381
-0.00087024
-0.00200127
-0.00455384
-0.0102548
-0.0228584
-0.0504469
-0.110258
-0.238729
-0.512226
-1.08953
-2.29828
-4.80987
-9.99123
-20.6087
-42.2307
-86.0097
-174.183
-350.911
-703.569
-1404.47
-2792.44
-5531.89
297.453
295.729
293.317
290.06
285.798
280.379
273.672
265.58
256.048
245.079
232.733
219.136
204.47
188.968
172.9
156.562
140.254
124.268
108.872
94.2992
80.7356
68.3192
57.1357
47.2218
38.5693
31.1323
24.8352
19.5811
15.2598
11.7556
8.95305
6.74177
5.02004
3.69683
2.69276
1.94033
1.38333
0.975912
0.681391
0.47092
0.322202
0.218275
0.146434
0.0972971
0.064039
0.0417578
0.0269797
0.0172745
0.0109622
0.00689557
0.00430011
0.00265875
0.00163011
0.000991163
0.000597741
0.000357575
0.000212203
0.000124943
7.29938e-05
4.23174e-05
2.43471e-05
1.39031e-05
7.88037e-06
4.43392e-06
2.47668e-06
1.37349e-06
7.56289e-07
4.13512e-07
2.2452e-07
1.21066e-07
6.48356e-08
3.44874e-08
1.82218e-08
9.56383e-09
4.98666e-09
2.58316e-09
1.32948e-09
6.79877e-10
3.45477e-10
1.74452e-10
8.75439e-11
4.3661e-11
2.16424e-11
1.06632e-11
5.22231e-12
2.54249e-12
1.23055e-12
5.92125e-13
2.83285e-13
1.34759e-13
6.37441e-14
2.99846e-14
1.40268e-14
6.52598e-15
3.01987e-15
1.38999e-15
6.3642e-16
2.89875e-16
1.31353e-16
5.92185e-17
2.65639e-17
1.18568e-17
5.26643e-18
2.32788e-18
1.02407e-18
4.48383e-19
1.9541e-19
8.47713e-20
3.66086e-20
1.57389e-20
6.73672e-21
2.871e-21
1.2183e-21
5.14796e-22
2.16622e-22
9.07783e-23
3.78876e-23
1.57497e-23
6.52126e-24
2.68967e-24
1.10509e-24
4.52327e-25
1.84452e-25
7.494e-26
3.03365e-26
1.22366e-26
4.91835e-27
1.96998e-27
7.86342e-28
3.12814e-28
1.24024e-28
4.90104e-29
1.93044e-29
7.57921e-30
2.96628e-30
1.15728e-30
4.50111e-31
1.74531e-31
6.74709e-32
2.60055e-32
9.9939e-33
3.8295e-33
1.4632e-33
5.57481e-34
2.11807e-34
8.02507e-35
3.03227e-35
1.14265e-35
4.29433e-36
1.60965e-36
6.01773e-37
2.24394e-37
8.34607e-38
3.09639e-38
1.14589e-38
4.23017e-39
1.55776e-39
5.72108e-40
2.08974e-40
7.3475e-41
1.45763e-41
-4.54382e-41
-2.26087e-40
-9.43326e-40
-3.86384e-39
-1.57281e-38
-6.36915e-38
-2.56595e-37
-1.02839e-36
-4.10002e-36
-1.62594e-35
-6.4134e-35
-2.51599e-34
-9.81609e-34
-3.80845e-33
-1.46929e-32
-5.63622e-32
-2.14959e-31
-8.15042e-31
-3.07204e-30
-1.15097e-29
-4.28603e-29
-1.58623e-28
-5.83391e-28
-2.13206e-27
-7.74192e-27
-2.79297e-26
-1.00096e-25
-3.5633e-25
-1.25991e-24
-4.42416e-24
-1.54272e-23
-5.34147e-23
-1.83616e-22
-6.26598e-22
-2.12252e-21
-7.13589e-21
-2.38085e-20
-7.88236e-20
-2.58922e-19
-8.43761e-19
-2.72746e-18
-8.74444e-18
-2.78028e-17
-8.76549e-17
-2.73993e-16
-8.4903e-16
-2.6078e-15
-7.93849e-15
-2.39473e-14
-7.15776e-14
-2.11954e-13
-6.21722e-13
-1.80628e-12
-5.19699e-12
-1.48062e-11
-4.17644e-11
-1.16624e-10
-3.22355e-10
-8.81859e-10
-2.38744e-09
-6.39575e-09
-1.69524e-08
-4.44541e-08
-1.15319e-07
-2.95911e-07
-7.51052e-07
-1.88541e-06
-4.68114e-06
-1.14948e-05
-2.79158e-05
-6.70519e-05
-0.000159293
-0.000374316
-0.000870102
-0.00200098
-0.00455324
-0.0102536
-0.0228559
-0.0504419
-0.110248
-0.23871
-0.512189
-1.08945
-2.29814
-4.80961
-9.99074
-20.6078
-42.229
-86.0067
-174.178
-350.901
-703.552
-1404.44
-2792.39
-5531.8
297.453
295.729
293.316
290.059
285.797
280.377
273.67
265.577
256.044
245.074
232.727
219.129
204.462
188.958
172.889
156.549
140.24
124.254
108.857
94.2839
80.7204
68.3044
57.1217
47.2088
38.5574
31.1218
24.826
19.5732
15.2532
11.7502
8.94861
6.73823
5.01728
3.6947
2.69116
1.93914
1.38246
0.975293
0.680955
0.470619
0.321998
0.21814
0.146345
0.0972406
0.0640038
0.0417363
0.026967
0.0172672
0.0109582
0.00689352
0.00429914
0.00265836
0.00163001
0.000991193
0.000597818
0.000357658
0.000212275
0.000124999
7.30357e-05
4.23469e-05
2.43672e-05
1.39163e-05
7.88891e-06
4.43931e-06
2.48002e-06
1.37553e-06
7.57514e-07
4.14237e-07
2.24944e-07
1.2131e-07
6.49746e-08
3.45657e-08
1.82654e-08
9.58783e-09
4.99974e-09
2.59022e-09
1.33325e-09
6.81871e-10
3.46523e-10
1.74995e-10
8.78234e-11
4.38036e-11
2.17145e-11
1.06994e-11
5.2403e-12
2.55136e-12
1.2349e-12
5.94234e-13
2.84301e-13
1.35245e-13
6.39747e-14
3.00932e-14
1.40776e-14
6.54955e-15
3.03074e-15
1.39496e-15
6.38681e-16
2.90896e-16
1.31811e-16
5.94226e-17
2.66543e-17
1.18966e-17
5.28381e-18
2.33543e-18
1.02733e-18
4.49783e-19
1.96007e-19
8.50248e-20
3.67155e-20
1.57837e-20
6.75543e-21
2.87877e-21
1.2215e-21
5.16111e-22
2.17159e-22
9.09964e-23
3.79758e-23
1.57852e-23
6.53546e-24
2.69533e-24
1.10733e-24
4.53211e-25
1.84799e-25
7.50756e-26
3.03892e-26
1.2257e-26
4.92621e-27
1.973e-27
7.87494e-28
3.13252e-28
1.2419e-28
4.90729e-29
1.93278e-29
7.58795e-30
2.96953e-30
1.15848e-30
4.50554e-31
1.74693e-31
6.753e-32
2.60269e-32
1.00016e-32
3.83228e-33
1.46419e-33
5.57833e-34
2.11931e-34
8.02941e-35
3.03378e-35
1.14317e-35
4.29612e-36
1.61026e-36
6.01976e-37
2.24462e-37
8.34827e-38
3.09709e-38
1.14611e-38
4.23084e-39
1.55796e-39
5.72162e-40
2.0899e-40
7.34903e-41
1.46289e-41
-4.52242e-41
-2.25219e-40
-9.39829e-40
-3.84982e-39
-1.56723e-38
-6.34703e-38
-2.55724e-37
-1.02498e-36
-4.08673e-36
-1.62079e-35
-6.39359e-35
-2.50841e-34
-9.78728e-34
-3.79756e-33
-1.4652e-32
-5.62096e-32
-2.14393e-31
-8.12957e-31
-3.06441e-30
-1.14819e-29
-4.276e-29
-1.58263e-28
-5.82109e-28
-2.12753e-27
-7.72598e-27
-2.78741e-26
-9.9903e-26
-3.55668e-25
-1.25765e-24
-4.41651e-24
-1.54015e-23
-5.3329e-23
-1.83333e-22
-6.25669e-22
-2.11949e-21
-7.12612e-21
-2.37773e-20
-7.87244e-20
-2.5861e-19
-8.42789e-19
-2.72446e-18
-8.73525e-18
-2.7775e-17
-8.75711e-17
-2.73743e-16
-8.48296e-16
-2.60566e-15
-7.93229e-15
-2.39296e-14
-7.15275e-14
-2.11814e-13
-6.21334e-13
-1.80521e-12
-5.1941e-12
-1.47985e-11
-4.17439e-11
-1.1657e-10
-3.22216e-10
-8.81503e-10
-2.38654e-09
-6.3935e-09
-1.69468e-08
-4.44406e-08
-1.15286e-07
-2.95834e-07
-7.50871e-07
-1.88499e-06
-4.68018e-06
-1.14926e-05
-2.7911e-05
-6.70413e-05
-0.00015927
-0.000374266
-0.000869998
-0.00200077
-0.00455279
-0.0102527
-0.0228541
-0.0504382
-0.110241
-0.238695
-0.512161
-1.0894
-2.29804
-4.80942
-9.99039
-20.6072
-42.2278
-86.0045
-174.174
-350.894
-703.54
-1404.42
-2792.35
-5531.73
297.453
295.728
293.316
290.058
285.795
280.376
273.668
265.574
256.04
245.069
232.721
219.121
204.452
188.947
172.877
156.535
140.225
124.237
108.84
94.2662
80.7028
68.2872
57.1053
47.1935
38.5435
31.1093
24.8151
19.5638
15.2453
11.7437
8.94333
6.73403
5.014
3.69218
2.68926
1.93774
1.38144
0.97456
0.680441
0.470264
0.321758
0.217981
0.146242
0.0971751
0.0639633
0.0417119
0.0269528
0.0172593
0.010954
0.00689144
0.00429824
0.00265807
0.00163001
0.000991311
0.000597964
0.000357793
0.000212385
0.000125082
7.30953e-05
4.23881e-05
2.43948e-05
1.39344e-05
7.90048e-06
4.44658e-06
2.48451e-06
1.37826e-06
7.59145e-07
4.152e-07
2.25505e-07
1.21633e-07
6.51582e-08
3.46689e-08
1.83227e-08
9.61939e-09
5.01693e-09
2.59948e-09
1.3382e-09
6.84487e-10
3.47893e-10
1.75707e-10
8.81896e-11
4.39904e-11
2.1809e-11
1.07468e-11
5.26388e-12
2.563e-12
1.24059e-12
5.97e-13
2.85635e-13
1.35882e-13
6.42774e-14
3.02359e-14
1.41443e-14
6.58057e-15
3.04504e-15
1.40152e-15
6.41664e-16
2.92244e-16
1.32416e-16
5.96927e-17
2.6774e-17
1.19493e-17
5.3069e-18
2.34548e-18
1.03168e-18
4.51652e-19
1.96807e-19
8.53646e-20
3.68591e-20
1.58441e-20
6.7807e-21
2.88928e-21
1.22585e-21
5.17902e-22
2.17893e-22
9.12956e-23
3.80971e-23
1.58342e-23
6.55516e-24
2.70321e-24
1.11047e-24
4.54455e-25
1.8529e-25
7.52686e-26
3.04648e-26
1.22864e-26
4.93764e-27
1.97742e-27
7.89195e-28
3.13904e-28
1.24439e-28
4.91676e-29
1.93637e-29
7.60151e-30
2.97463e-30
1.16039e-30
4.51268e-31
1.74959e-31
6.76284e-32
2.60633e-32
1.0015e-32
3.83718e-33
1.46598e-33
5.58485e-34
2.12168e-34
8.03796e-35
3.03686e-35
1.14427e-35
4.30007e-36
1.61166e-36
6.02474e-37
2.24638e-37
8.35446e-38
3.09926e-38
1.14687e-38
4.23347e-39
1.55887e-39
5.72476e-40
2.09099e-40
7.35359e-41
1.46789e-41
-4.50664e-41
-2.24594e-40
-9.37304e-40
-3.83968e-39
-1.56318e-38
-6.33092e-38
-2.55088e-37
-1.02248e-36
-4.07698e-36
-1.61701e-35
-6.379e-35
-2.50282e-34
-9.76597e-34
-3.7895e-33
-1.46217e-32
-5.60962e-32
-2.13972e-31
-8.11402e-31
-3.05871e-30
-1.14612e-29
-4.2685e-29
-1.57994e-28
-5.81148e-28
-2.12412e-27
-7.71401e-27
-2.78323e-26
-9.97582e-26
-3.5517e-25
-1.25595e-24
-4.41075e-24
-1.53821e-23
-5.32645e-23
-1.83119e-22
-6.24968e-22
-2.11721e-21
-7.11877e-21
-2.37538e-20
-7.86498e-20
-2.58375e-19
-8.42058e-19
-2.7222e-18
-8.72834e-18
-2.7754e-17
-8.75082e-17
-2.73556e-16
-8.47745e-16
-2.60405e-15
-7.92766e-15
-2.39164e-14
-7.149e-14
-2.11709e-13
-6.21044e-13
-1.80442e-12
-5.19196e-12
-1.47927e-11
-4.17287e-11
-1.1653e-10
-3.22113e-10
-8.8124e-10
-2.38588e-09
-6.39185e-09
-1.69428e-08
-4.44307e-08
-1.15262e-07
-2.95777e-07
-7.50739e-07
-1.88468e-06
-4.67949e-06
-1.1491e-05
-2.79076e-05
-6.70337e-05
-0.000159254
-0.000374232
-0.000869924
-0.00200061
-0.00455247
-0.010252
-0.0228528
-0.0504357
-0.110236
-0.238686
-0.512142
-1.08937
-2.29797
-4.8093
-9.99016
-20.6068
-42.2271
-86.0031
-174.171
-350.89
-703.531
-1404.41
-2792.32
-5531.67
297.452
295.728
293.315
290.058
285.794
280.374
273.665
265.571
256.036
245.063
232.714
219.113
204.442
188.935
172.863
156.52
140.207
124.218
108.82
94.2459
80.6825
68.2673
57.0863
47.1758
38.5273
31.0948
24.8024
19.5529
15.2361
11.736
8.93716
6.72911
5.01015
3.68923
2.68704
1.93609
1.38024
0.973702
0.679839
0.46985
0.321479
0.217796
0.146122
0.0970994
0.0639166
0.0416839
0.0269366
0.0172503
0.0109493
0.0068892
0.00429733
0.00265784
0.00163009
0.000991501
0.000598171
0.000357975
0.000212529
0.00012519
7.31715e-05
4.24404e-05
2.44298e-05
1.39572e-05
7.91501e-06
4.45569e-06
2.49012e-06
1.38166e-06
7.61178e-07
4.16398e-07
2.26202e-07
1.22034e-07
6.53862e-08
3.4797e-08
1.8394e-08
9.65855e-09
5.03824e-09
2.61097e-09
1.34433e-09
6.8773e-10
3.49592e-10
1.76589e-10
8.86434e-11
4.4222e-11
2.19261e-11
1.08055e-11
5.29311e-12
2.57742e-12
1.24765e-12
6.00431e-13
2.87288e-13
1.36674e-13
6.46532e-14
3.0413e-14
1.42272e-14
6.6191e-15
3.06282e-15
1.40967e-15
6.45374e-16
2.93922e-16
1.3317e-16
6.00292e-17
2.69232e-17
1.20151e-17
5.33572e-18
2.35803e-18
1.03711e-18
4.53991e-19
1.97808e-19
8.57907e-20
3.70395e-20
1.59201e-20
6.81249e-21
2.90252e-21
1.23134e-21
5.20166e-22
2.18822e-22
9.16751e-23
3.82514e-23
1.58966e-23
6.58029e-24
2.71329e-24
1.1145e-24
4.56054e-25
1.85923e-25
7.55182e-26
3.05627e-26
1.23247e-26
4.95256e-27
1.98321e-27
7.91432e-28
3.14765e-28
1.24769e-28
4.9294e-29
1.94118e-29
7.61977e-30
2.98154e-30
1.163e-30
4.52246e-31
1.75325e-31
6.77651e-32
2.61141e-32
1.00339e-32
3.84415e-33
1.46855e-33
5.59429e-34
2.12514e-34
8.05059e-35
3.04146e-35
1.14594e-35
4.3061e-36
1.61384e-36
6.03258e-37
2.24919e-37
8.36452e-38
3.10285e-38
1.14814e-38
4.23799e-39
1.56046e-39
5.7304e-40
2.09299e-40
7.36111e-41
1.4727e-41
-4.49594e-41
-2.24187e-40
-9.3566e-40
-3.83303e-39
-1.5605e-38
-6.32024e-38
-2.54664e-37
-1.02081e-36
-4.07041e-36
-1.61445e-35
-6.36909e-35
-2.49901e-34
-9.75139e-34
-3.78396e-33
-1.46008e-32
-5.60178e-32
-2.1368e-31
-8.10322e-31
-3.05474e-30
-1.14467e-29
-4.26325e-29
-1.57805e-28
-5.80474e-28
-2.12173e-27
-7.70559e-27
-2.78029e-26
-9.96561e-26
-3.54819e-25
-1.25475e-24
-4.40668e-24
-1.53684e-23
-5.32188e-23
-1.82968e-22
-6.24472e-22
-2.11559e-21
-7.11355e-21
-2.37371e-20
-7.85969e-20
-2.58209e-19
-8.41539e-19
-2.7206e-18
-8.72344e-18
-2.77392e-17
-8.74637e-17
-2.73424e-16
-8.47356e-16
-2.60292e-15
-7.92439e-15
-2.39071e-14
-7.14637e-14
-2.11636e-13
-6.20841e-13
-1.80387e-12
-5.19046e-12
-1.47887e-11
-4.17181e-11
-1.16503e-10
-3.22042e-10
-8.8106e-10
-2.38543e-09
-6.39072e-09
-1.694e-08
-4.4424e-08
-1.15246e-07
-2.9574e-07
-7.50651e-07
-1.88448e-06
-4.67903e-06
-1.149e-05
-2.79053e-05
-6.70288e-05
-0.000159243
-0.000374209
-0.000869878
-0.00200052
-0.00455228
-0.0102516
-0.022852
-0.0504342
-0.110233
-0.23868
-0.512132
-1.08935
-2.29793
-4.80923
-9.99003
-20.6065
-42.2266
-86.0023
-174.17
-350.887
-703.525
-1404.39
-2792.29
-5531.61
297.452
295.728
293.315
290.057
285.793
280.372
273.663
265.567
256.032
245.058
232.707
219.104
204.431
188.922
172.847
156.502
140.188
124.197
108.798
94.2227
80.6592
68.2446
57.0645
47.1554
38.5086
31.0781
24.7877
19.5403
15.2255
11.7272
8.93001
6.72342
5.0057
3.68581
2.68445
1.93417
1.37885
0.972707
0.679141
0.46937
0.321154
0.217581
0.145983
0.0970116
0.0638625
0.0416516
0.026918
0.01724
0.010944
0.00688668
0.00429633
0.00265761
0.00163021
0.000991743
0.000598426
0.000358196
0.000212704
0.000125319
7.32633e-05
4.25033e-05
2.44717e-05
1.39845e-05
7.93242e-06
4.46658e-06
2.49683e-06
1.38572e-06
7.63609e-07
4.17831e-07
2.27036e-07
1.22513e-07
6.56586e-08
3.49501e-08
1.8479e-08
9.70535e-09
5.06372e-09
2.6247e-09
1.35166e-09
6.91605e-10
3.51623e-10
1.77643e-10
8.9186e-11
4.44988e-11
2.20662e-11
1.08757e-11
5.32806e-12
2.59467e-12
1.2561e-12
6.04535e-13
2.89267e-13
1.3762e-13
6.51029e-14
3.0625e-14
1.43265e-14
6.66523e-15
3.08412e-15
1.41943e-15
6.49819e-16
2.95932e-16
1.34073e-16
6.04325e-17
2.71022e-17
1.2094e-17
5.37031e-18
2.3731e-18
1.04364e-18
4.56801e-19
1.99011e-19
8.63031e-20
3.72565e-20
1.60115e-20
6.8508e-21
2.91849e-21
1.23797e-21
5.22901e-22
2.19945e-22
9.21342e-23
3.84382e-23
1.59723e-23
6.61081e-24
2.72554e-24
1.11939e-24
4.58004e-25
1.86696e-25
7.58233e-26
3.06827e-26
1.23717e-26
4.9709e-27
1.99034e-27
7.94194e-28
3.15831e-28
1.25179e-28
4.9451e-29
1.94718e-29
7.64261e-30
2.9902e-30
1.16627e-30
4.53481e-31
1.75789e-31
6.79389e-32
2.6179e-32
1.0058e-32
3.85312e-33
1.47187e-33
5.60654e-34
2.12965e-34
8.06714e-35
3.04751e-35
1.14815e-35
4.31415e-36
1.61676e-36
6.04316e-37
2.25301e-37
8.37828e-38
3.10779e-38
1.14992e-38
4.24433e-39
1.56272e-39
5.73843e-40
2.09584e-40
7.37147e-41
1.47743e-41
-4.48976e-41
-2.23976e-40
-9.34803e-40
-3.82951e-39
-1.55906e-38
-6.31441e-38
-2.54429e-37
-1.01987e-36
-4.06668e-36
-1.61298e-35
-6.36334e-35
-2.49677e-34
-9.74278e-34
-3.78066e-33
-1.45882e-32
-5.59704e-32
-2.13503e-31
-8.09662e-31
-3.0523e-30
-1.14378e-29
-4.25999e-29
-1.57687e-28
-5.80051e-28
-2.12023e-27
-7.70027e-27
-2.77843e-26
-9.95912e-26
-3.54594e-25
-1.25398e-24
-4.40407e-24
-1.53596e-23
-5.31894e-23
-1.82871e-22
-6.24152e-22
-2.11455e-21
-7.11019e-21
-2.37263e-20
-7.85627e-20
-2.58101e-19
-8.41205e-19
-2.71956e-18
-8.72028e-18
-2.77296e-17
-8.7435e-17
-2.73339e-16
-8.47106e-16
-2.60219e-15
-7.9223e-15
-2.39011e-14
-7.1447e-14
-2.11589e-13
-6.20712e-13
-1.80352e-12
-5.18952e-12
-1.47862e-11
-4.17115e-11
-1.16486e-10
-3.21998e-10
-8.80949e-10
-2.38515e-09
-6.39004e-09
-1.69383e-08
-4.442e-08
-1.15237e-07
-2.95717e-07
-7.506e-07
-1.88437e-06
-4.67877e-06
-1.14894e-05
-2.79041e-05
-6.70261e-05
-0.000159238
-0.000374198
-0.000869854
-0.00200047
-0.00455218
-0.0102514
-0.0228516
-0.0504335
-0.110232
-0.238678
-0.512127
-1.08934
-2.29792
-4.8092
-9.98998
-20.6064
-42.2264
-86.0019
-174.169
-350.885
-703.522
-1404.38
-2792.27
-5531.57
297.452
295.727
293.314
290.056
285.792
280.371
273.661
265.564
256.027
245.051
232.699
219.094
204.419
188.907
172.829
156.482
140.165
124.173
108.772
94.1964
80.6327
68.2186
57.0396
47.1321
38.4873
31.059
24.7709
19.5258
15.2133
11.7171
8.9218
6.71687
5.00057
3.68187
2.68148
1.93197
1.37724
0.971558
0.678334
0.468814
0.320779
0.217333
0.145822
0.0969098
0.0637998
0.0416141
0.0268963
0.017228
0.0109377
0.00688371
0.00429515
0.00265733
0.00163033
0.000992017
0.000598717
0.000358451
0.000212905
0.000125469
7.33694e-05
4.25761e-05
2.45202e-05
1.40161e-05
7.9526e-06
4.47923e-06
2.50462e-06
1.39045e-06
7.66433e-07
4.19497e-07
2.28006e-07
1.23071e-07
6.59756e-08
3.51283e-08
1.85781e-08
9.75983e-09
5.09338e-09
2.64069e-09
1.3602e-09
6.96122e-10
3.53989e-10
1.78872e-10
8.98186e-11
4.48216e-11
2.22295e-11
1.09577e-11
5.36883e-12
2.6148e-12
1.26596e-12
6.09324e-13
2.91576e-13
1.38726e-13
6.56278e-14
3.08725e-14
1.44423e-14
6.71908e-15
3.10898e-15
1.43083e-15
6.55008e-16
2.9828e-16
1.35128e-16
6.09036e-17
2.73112e-17
1.21862e-17
5.41071e-18
2.3907e-18
1.05126e-18
4.60086e-19
2.00418e-19
8.69021e-20
3.75103e-20
1.61184e-20
6.89562e-21
2.93718e-21
1.24572e-21
5.26103e-22
2.21261e-22
9.26725e-23
3.86574e-23
1.60611e-23
6.64665e-24
2.73993e-24
1.12515e-24
4.60299e-25
1.87606e-25
7.61831e-26
3.08244e-26
1.24273e-26
4.99259e-27
1.99878e-27
7.97469e-28
3.17097e-28
1.25666e-28
4.96381e-29
1.95433e-29
7.66989e-30
3.00057e-30
1.1702e-30
4.54964e-31
1.76348e-31
6.81486e-32
2.62575e-32
1.00873e-32
3.86402e-33
1.47591e-33
5.62151e-34
2.13517e-34
8.08746e-35
3.05497e-35
1.15088e-35
4.32413e-36
1.62039e-36
6.05636e-37
2.25779e-37
8.39558e-38
3.11403e-38
1.15216e-38
4.25239e-39
1.56561e-39
5.74875e-40
2.09952e-40
7.38456e-41
1.48216e-41
-4.48757e-41
-2.2394e-40
-9.34644e-40
-3.82875e-39
-1.55871e-38
-6.31284e-38
-2.5436e-37
-1.01957e-36
-4.06545e-36
-1.61247e-35
-6.36124e-35
-2.49592e-34
-9.73939e-34
-3.77932e-33
-1.4583e-32
-5.59501e-32
-2.13425e-31
-8.09365e-31
-3.05119e-30
-1.14336e-29
-4.25845e-29
-1.57631e-28
-5.79846e-28
-2.11949e-27
-7.69763e-27
-2.77749e-26
-9.95583e-26
-3.5448e-25
-1.25359e-24
-4.40272e-24
-1.53551e-23
-5.31741e-23
-1.82819e-22
-6.23983e-22
-2.114e-21
-7.1084e-21
-2.37206e-20
-7.85445e-20
-2.58044e-19
-8.41026e-19
-2.71901e-18
-8.7186e-18
-2.77245e-17
-8.74198e-17
-2.73294e-16
-8.46973e-16
-2.60181e-15
-7.9212e-15
-2.3898e-14
-7.14382e-14
-2.11565e-13
-6.20646e-13
-1.80334e-12
-5.18904e-12
-1.4785e-11
-4.17083e-11
-1.16477e-10
-3.21977e-10
-8.80896e-10
-2.38502e-09
-6.38973e-09
-1.69376e-08
-4.44183e-08
-1.15233e-07
-2.95708e-07
-7.5058e-07
-1.88432e-06
-4.67867e-06
-1.14893e-05
-2.79037e-05
-6.70254e-05
-0.000159236
-0.000374195
-0.000869849
-0.00200046
-0.00455217
-0.0102514
-0.0228516
-0.0504335
-0.110232
-0.238678
-0.512128
-1.08934
-2.29792
-4.80921
-9.98999
-20.6064
-42.2264
-86.0019
-174.169
-350.884
-703.519
-1404.38
-2792.26
-5531.53
297.452
295.727
293.314
290.055
285.791
280.369
273.658
265.56
256.022
245.044
232.69
219.082
204.405
188.89
172.81
156.459
140.14
124.145
108.743
94.1665
80.6028
68.1892
57.0114
47.1056
38.463
31.0372
24.7518
19.5093
15.1993
11.7056
8.91243
6.7094
4.99471
3.67736
2.67807
1.92944
1.3754
0.970239
0.677407
0.468175
0.320347
0.217046
0.145637
0.0967919
0.0637269
0.0415703
0.0268709
0.0172139
0.0109303
0.00688014
0.00429367
0.00265693
0.00163043
0.0009923
0.000599032
0.000358731
0.000213129
0.000125635
7.34883e-05
4.26579e-05
2.4575e-05
1.40519e-05
7.97545e-06
4.49356e-06
2.51346e-06
1.39582e-06
7.69645e-07
4.21393e-07
2.29111e-07
1.23707e-07
6.63373e-08
3.53316e-08
1.86912e-08
9.82209e-09
5.1273e-09
2.65899e-09
1.36997e-09
7.0129e-10
3.56698e-10
1.80279e-10
9.05431e-11
4.51913e-11
2.24166e-11
1.10516e-11
5.41556e-12
2.63787e-12
1.27725e-12
6.14814e-13
2.94223e-13
1.39992e-13
6.62295e-14
3.11563e-14
1.45752e-14
6.78082e-15
3.13747e-15
1.44389e-15
6.60956e-16
3.0097e-16
1.36337e-16
6.14434e-17
2.75507e-17
1.22918e-17
5.457e-18
2.41087e-18
1.06e-18
4.63848e-19
2.02029e-19
8.75883e-20
3.78009e-20
1.62409e-20
6.94696e-21
2.9586e-21
1.25461e-21
5.29773e-22
2.2277e-22
9.32895e-23
3.89086e-23
1.61629e-23
6.68775e-24
2.75645e-24
1.13176e-24
4.62933e-25
1.88652e-25
7.65966e-26
3.09872e-26
1.24912e-26
5.01757e-27
2.00851e-27
8.01244e-28
3.18557e-28
1.26229e-28
4.98543e-29
1.96261e-29
7.70148e-30
3.01259e-30
1.17476e-30
4.56687e-31
1.76997e-31
6.83927e-32
2.6349e-32
1.01215e-32
3.87676e-33
1.48065e-33
5.63906e-34
2.14166e-34
8.11139e-35
3.06377e-35
1.15411e-35
4.33594e-36
1.62471e-36
6.07206e-37
2.2635e-37
8.41625e-38
3.12151e-38
1.15486e-38
4.26209e-39
1.56909e-39
5.76123e-40
2.10398e-40
7.40025e-41
1.48694e-41
-4.48886e-41
-2.24056e-40
-9.35096e-40
-3.83041e-39
-1.55932e-38
-6.315e-38
-2.54437e-37
-1.01984e-36
-4.06638e-36
-1.61279e-35
-6.3623e-35
-2.49627e-34
-9.7405e-34
-3.77967e-33
-1.4584e-32
-5.5953e-32
-2.13432e-31
-8.09382e-31
-3.05121e-30
-1.14335e-29
-4.25838e-29
-1.57627e-28
-5.79826e-28
-2.1194e-27
-7.69727e-27
-2.77735e-26
-9.95527e-26
-3.54459e-25
-1.25351e-24
-4.40244e-24
-1.53541e-23
-5.31706e-23
-1.82807e-22
-6.23942e-22
-2.11386e-21
-7.10794e-21
-2.37191e-20
-7.85397e-20
-2.58029e-19
-8.40978e-19
-2.71886e-18
-8.71815e-18
-2.77231e-17
-8.74157e-17
-2.73282e-16
-8.46939e-16
-2.60171e-15
-7.92092e-15
-2.38972e-14
-7.14362e-14
-2.11559e-13
-6.20632e-13
-1.8033e-12
-5.18895e-12
-1.47847e-11
-4.17078e-11
-1.16476e-10
-3.21975e-10
-8.80891e-10
-2.38501e-09
-6.38972e-09
-1.69376e-08
-4.44184e-08
-1.15233e-07
-2.9571e-07
-7.50585e-07
-1.88434e-06
-4.67872e-06
-1.14894e-05
-2.7904e-05
-6.70261e-05
-0.000159238
-0.000374199
-0.00086986
-0.00200049
-0.00455223
-0.0102516
-0.0228519
-0.0504341
-0.110233
-0.23868
-0.512133
-1.08935
-2.29794
-4.80925
-9.99006
-20.6066
-42.2266
-86.0022
-174.169
-350.885
-703.519
-1404.37
-2792.25
-5531.49
297.452
295.727
293.313
290.054
285.789
280.367
273.655
265.556
256.016
245.037
232.68
219.07
204.389
188.871
172.788
156.434
140.112
124.115
108.711
94.133
80.5689
68.1559
56.9795
47.0757
38.4356
31.0126
24.7302
19.4907
15.1836