/*--------------------------------*- C++ -*----------------------------------*\
| =========                 |                                                 |
| \\      /  F ield         | OpenFOAM: The Open Source CFD Toolbox           |
|  \\    /   O peration     | Version:  2306                                  |
|   \\  /    A nd           | Website:  www.openfoam.com                      |
|    \\/     M anipulation  |                                                 |
\*---------------------------------------------------------------------------*/
FoamFile
{
    version     2.0;
    format      ascii;
    arch        "LSB;label=32;scalar=64";
    class       volVectorField;
    location    "0.5";
    object      U;
}
// * * * * * * * * * * * * * * * * * * * * * * * * * * * * * * * * * * * * * //

dimensions      [0 1 -1 0 0 0 0];

internalField   nonuniform List<vector> 
32768
(
(1.00001 -3.59797e-05 0)
(1.00015 -0.000108801 0)
(1.00044 -0.000182657 0)
(1.00087 -0.0002579 0)
(1.00147 -0.000335093 0)
(1.00222 -0.000414695 0)
(1.00313 -0.00049714 0)
(1.00421 -0.000583733 0)
(1.00546 -0.00067776 0)
(1.00692 -0.000784411 0)
(1.0086 -0.00090878 0)
(1.01055 -0.0010528 0)
(1.01281 -0.00121306 0)
(1.01541 -0.00138094 0)
(1.01834 -0.00154509 0)
(1.02159 -0.00169475 0)
(1.02512 -0.00182248 0)
(1.02888 -0.00192527 0)
(1.03282 -0.00200408 0)
(1.03689 -0.00206252 0)
(1.04107 -0.00210532 0)
(1.04531 -0.00213709 0)
(1.04961 -0.00216166 0)
(1.05396 -0.00218185 0)
(1.05834 -0.00219953 0)
(1.06276 -0.00221579 0)
(1.06721 -0.00223117 0)
(1.07168 -0.00224588 0)
(1.07619 -0.0022599 0)
(1.08072 -0.00227308 0)
(1.08528 -0.0022852 0)
(1.08987 -0.00229599 0)
(1.09447 -0.00230518 0)
(1.09909 -0.00231246 0)
(1.10372 -0.00231753 0)
(1.10836 -0.0023201 0)
(1.113 -0.00231984 0)
(1.11764 -0.00231645 0)
(1.12227 -0.00230964 0)
(1.12688 -0.00229913 0)
(1.13147 -0.00228463 0)
(1.13603 -0.00226588 0)
(1.14054 -0.00224265 0)
(1.145 -0.00221472 0)
(1.1494 -0.00218189 0)
(1.15373 -0.00214401 0)
(1.15798 -0.00210094 0)
(1.16214 -0.00205258 0)
(1.1662 -0.00199888 0)
(1.17014 -0.00193981 0)
(1.17396 -0.00187539 0)
(1.17765 -0.00180567 0)
(1.18119 -0.00173075 0)
(1.18457 -0.00165077 0)
(1.1878 -0.00156591 0)
(1.19084 -0.00147639 0)
(1.19371 -0.00138245 0)
(1.19638 -0.00128439 0)
(1.19885 -0.00118253 0)
(1.20111 -0.00107721 0)
(1.20316 -0.000968808 0)
(1.20499 -0.000857718 0)
(1.20659 -0.000744351 0)
(1.20797 -0.000629132 0)
(1.20911 -0.000512498 0)
(1.21002 -0.000394888 0)
(1.21069 -0.000276745 0)
(1.21112 -0.00015851 0)
(1.21132 -4.06163e-05 0)
(1.21129 7.64994e-05 0)
(1.21102 0.000192425 0)
(1.21051 0.000306761 0)
(1.20979 0.00041912 0)
(1.20884 0.00052913 0)
(1.20767 0.000636441 0)
(1.20629 0.000740724 0)
(1.2047 0.000841672 0)
(1.20292 0.000938999 0)
(1.20094 0.00103244 0)
(1.19878 0.00112177 0)
(1.19645 0.00120677 0)
(1.19395 0.00128725 0)
(1.1913 0.00136305 0)
(1.1885 0.00143404 0)
(1.18556 0.0015001 0)
(1.18249 0.00156115 0)
(1.17931 0.00161713 0)
(1.17602 0.00166801 0)
(1.17263 0.00171377 0)
(1.16916 0.00175443 0)
(1.16561 0.00179003 0)
(1.16199 0.00182063 0)
(1.15832 0.0018463 0)
(1.1546 0.00186715 0)
(1.15084 0.0018833 0)
(1.14706 0.00189488 0)
(1.14326 0.00190206 0)
(1.13945 0.00190498 0)
(1.13564 0.00190385 0)
(1.13183 0.00189884 0)
(1.12804 0.00189016 0)
(1.12427 0.00187802 0)
(1.12052 0.00186264 0)
(1.11681 0.00184422 0)
(1.11314 0.00182299 0)
(1.10952 0.00179917 0)
(1.10594 0.00177298 0)
(1.10242 0.00174464 0)
(1.09896 0.00171436 0)
(1.09556 0.00168236 0)
(1.09223 0.00164883 0)
(1.08897 0.00161398 0)
(1.08577 0.00157799 0)
(1.08265 0.00154105 0)
(1.07961 0.00150333 0)
(1.07664 0.00146499 0)
(1.07375 0.00142619 0)
(1.07093 0.00138708 0)
(1.0682 0.00134778 0)
(1.06554 0.00130843 0)
(1.06296 0.00126915 0)
(1.06047 0.00123004 0)
(1.05804 0.00119119 0)
(1.0557 0.00115271 0)
(1.05343 0.00111466 0)
(1.05124 0.00107712 0)
(1.04913 0.00104016 0)
(1.04708 0.00100383 0)
(1.04511 0.000968177 0)
(1.04321 0.000933249 0)
(1.04138 0.00089908 0)
(1.03961 0.0008657 0)
(1.03792 0.000833135 0)
(1.03628 0.000801404 0)
(1.03471 0.000770522 0)
(1.0332 0.0007405 0)
(1.03175 0.000711344 0)
(1.03036 0.000683058 0)
(1.02902 0.000655641 0)
(1.02773 0.00062909 0)
(1.0265 0.0006034 0)
(1.02532 0.000578563 0)
(1.02419 0.000554567 0)
(1.0231 0.000531403 0)
(1.02206 0.000509055 0)
(1.02107 0.000487509 0)
(1.02012 0.000466749 0)
(1.0192 0.000446758 0)
(1.01833 0.000427519 0)
(1.01749 0.000409012 0)
(1.01669 0.000391218 0)
(1.01593 0.000374119 0)
(1.0152 0.000357694 0)
(1.0145 0.000341923 0)
(1.01383 0.000326788 0)
(1.01319 0.000312267 0)
(1.01258 0.00029834 0)
(1.012 0.00028499 0)
(1.01144 0.000272194 0)
(1.01091 0.000259935 0)
(1.0104 0.000248194 0)
(1.00992 0.000236951 0)
(1.00946 0.000226189 0)
(1.00901 0.000215889 0)
(1.00859 0.000206035 0)
(1.00819 0.000196608 0)
(1.00781 0.000187594 0)
(1.00744 0.000178974 0)
(1.00709 0.000170735 0)
(1.00676 0.00016286 0)
(1.00644 0.000155334 0)
(1.00614 0.000148144 0)
(1.00585 0.000141276 0)
(1.00557 0.000134716 0)
(1.00531 0.000128451 0)
(1.00506 0.000122469 0)
(1.00482 0.000116758 0)
(1.00459 0.000111306 0)
(1.00437 0.000106103 0)
(1.00417 0.000101137 0)
(1.00397 9.63979e-05 0)
(1.00378 9.18762e-05 0)
(1.0036 8.75623e-05 0)
(1.00343 8.34469e-05 0)
(1.00327 7.95213e-05 0)
(1.00311 7.5777e-05 0)
(1.00297 7.2206e-05 0)
(1.00283 6.88004e-05 0)
(1.00269 6.55529e-05 0)
(1.00256 6.24563e-05 0)
(1.00244 5.95038e-05 0)
(1.00233 5.6689e-05 0)
(1.00222 5.40053e-05 0)
(1.00211 5.14471e-05 0)
(1.00201 4.90084e-05 0)
(1.00191 4.66839e-05 0)
(1.00182 4.44682e-05 0)
(1.00174 4.23564e-05 0)
(1.00165 4.03437e-05 0)
(1.00157 3.84255e-05 0)
(1.0015 3.65974e-05 0)
(1.00143 3.48552e-05 0)
(1.00136 3.3195e-05 0)
(1.0013 3.16129e-05 0)
(1.00123 3.01053e-05 0)
(1.00118 2.86687e-05 0)
(1.00112 2.72997e-05 0)
(1.00107 2.59953e-05 0)
(1.00102 2.47523e-05 0)
(1.00097 2.3568e-05 0)
(1.00092 2.24394e-05 0)
(1.00088 2.13641e-05 0)
(1.00084 2.03394e-05 0)
(1.0008 1.9363e-05 0)
(1.00076 1.84326e-05 0)
(1.00072 1.7546e-05 0)
(1.00069 1.67011e-05 0)
(1.00066 1.5896e-05 0)
(1.00063 1.51287e-05 0)
(1.0006 1.43975e-05 0)
(1.00057 1.37006e-05 0)
(1.00054 1.30363e-05 0)
(1.00052 1.24031e-05 0)
(1.00049 1.17996e-05 0)
(1.00047 1.12242e-05 0)
(1.00045 1.06756e-05 0)
(1.00043 1.01525e-05 0)
(1.00041 9.65365e-06 0)
(1.00039 9.17788e-06 0)
(1.00037 8.72409e-06 0)
(1.00035 8.29113e-06 0)
(1.00034 7.87805e-06 0)
(1.00032 7.48378e-06 0)
(1.00031 7.10746e-06 0)
(1.00029 6.74813e-06 0)
(1.00028 6.40499e-06 0)
(1.00027 6.07716e-06 0)
(1.00025 5.76393e-06 0)
(1.00024 5.46447e-06 0)
(1.00023 5.17815e-06 0)
(1.00022 4.9042e-06 0)
(1.00021 4.64205e-06 0)
(1.0002 4.39099e-06 0)
(1.0002 4.1505e-06 0)
(1.00019 3.91993e-06 0)
(1.00018 3.69879e-06 0)
(1.00017 3.4865e-06 0)
(1.00017 3.2826e-06 0)
(1.00016 3.08657e-06 0)
(1.00015 2.8979e-06 0)
(1.00015 2.71637e-06 0)
(1.00014 2.54059e-06 0)
(1.00014 2.37338e-06 0)
(1.00013 2.20344e-06 0)
(1.00013 2.06473e-06 0)
(1.00012 1.84914e-06 0)
(1.00001 -0.000108107 0)
(1.00015 -0.000326632 0)
(1.00044 -0.000548178 0)
(1.00087 -0.000773918 0)
(1.00147 -0.00100551 0)
(1.00222 -0.0012443 0)
(1.00313 -0.0014916 0)
(1.0042 -0.00175134 0)
(1.00546 -0.00203338 0)
(1.00691 -0.00235329 0)
(1.0086 -0.00272633 0)
(1.01055 -0.00315831 0)
(1.01281 -0.00363898 0)
(1.0154 -0.00414253 0)
(1.01833 -0.00463486 0)
(1.02157 -0.00508375 0)
(1.0251 -0.00546688 0)
(1.02886 -0.00577521 0)
(1.0328 -0.00601166 0)
(1.03687 -0.00618705 0)
(1.04104 -0.00631552 0)
(1.04529 -0.00641094 0)
(1.04959 -0.00648481 0)
(1.05393 -0.00654556 0)
(1.05831 -0.00659879 0)
(1.06273 -0.00664776 0)
(1.06718 -0.00669413 0)
(1.07166 -0.00673849 0)
(1.07616 -0.00678079 0)
(1.0807 -0.00682056 0)
(1.08526 -0.00685716 0)
(1.08985 -0.0068898 0)
(1.09445 -0.00691763 0)
(1.09908 -0.00693974 0)
(1.10371 -0.00695523 0)
(1.10836 -0.00696318 0)
(1.11301 -0.00696266 0)
(1.11765 -0.00695276 0)
(1.12229 -0.00693258 0)
(1.12691 -0.00690125 0)
(1.13151 -0.00685796 0)
(1.13607 -0.00680191 0)
(1.14059 -0.00673239 0)
(1.14506 -0.00664874 0)
(1.14947 -0.00655038 0)
(1.15381 -0.00643682 0)
(1.15808 -0.00630767 0)
(1.16224 -0.00616262 0)
(1.16631 -0.0060015 0)
(1.17027 -0.00582424 0)
(1.1741 -0.00563088 0)
(1.17779 -0.00542159 0)
(1.18134 -0.00519667 0)
(1.18474 -0.00495654 0)
(1.18797 -0.00470173 0)
(1.19103 -0.0044329 0)
(1.1939 -0.0041508 0)
(1.19658 -0.0038563 0)
(1.19905 -0.00355036 0)
(1.20132 -0.00323404 0)
(1.20338 -0.00290844 0)
(1.20521 -0.00257477 0)
(1.20682 -0.00223426 0)
(1.2082 -0.00188819 0)
(1.20934 -0.00153787 0)
(1.21025 -0.00118462 0)
(1.21093 -0.000829775 0)
(1.21136 -0.000474662 0)
(1.21156 -0.000120584 0)
(1.21152 0.000231152 0)
(1.21125 0.000579304 0)
(1.21074 0.00092267 0)
(1.21001 0.00126008 0)
(1.20905 0.00159043 0)
(1.20788 0.00191267 0)
(1.20649 0.00222579 0)
(1.2049 0.00252889 0)
(1.20311 0.0028211 0)
(1.20113 0.00310164 0)
(1.19896 0.00336981 0)
(1.19662 0.00362495 0)
(1.19411 0.00386653 0)
(1.19144 0.00409404 0)
(1.18863 0.00430708 0)
(1.18568 0.00450532 0)
(1.18261 0.00468851 0)
(1.17941 0.00485647 0)
(1.17611 0.0050091 0)
(1.17272 0.00514635 0)
(1.16923 0.00526829 0)
(1.16567 0.00537501 0)
(1.16205 0.00546671 0)
(1.15837 0.00554361 0)
(1.15464 0.00560604 0)
(1.15087 0.00565434 0)
(1.14708 0.00568893 0)
(1.14327 0.00571027 0)
(1.13945 0.00571887 0)
(1.13563 0.00571528 0)
(1.13182 0.00570006 0)
(1.12802 0.00567382 0)
(1.12424 0.0056372 0)
(1.12049 0.00559082 0)
(1.11677 0.00553535 0)
(1.1131 0.00547145 0)
(1.10947 0.00539978 0)
(1.10589 0.00532101 0)
(1.10236 0.00523578 0)
(1.0989 0.00514475 0)
(1.0955 0.00504854 0)
(1.09216 0.00494778 0)
(1.0889 0.00484304 0)
(1.0857 0.0047349 0)
(1.08258 0.00462391 0)
(1.07953 0.00451059 0)
(1.07656 0.00439543 0)
(1.07367 0.00427889 0)
(1.07086 0.00416142 0)
(1.06812 0.00404342 0)
(1.06546 0.00392527 0)
(1.06289 0.00380732 0)
(1.06039 0.00368989 0)
(1.05797 0.00357327 0)
(1.05563 0.00345774 0)
(1.05336 0.00334353 0)
(1.05117 0.00323086 0)
(1.04905 0.00311992 0)
(1.04701 0.00301088 0)
(1.04504 0.00290388 0)
(1.04314 0.00279906 0)
(1.04131 0.00269653 0)
(1.03955 0.00259637 0)
(1.03785 0.00249865 0)
(1.03622 0.00240344 0)
(1.03465 0.00231079 0)
(1.03314 0.00222071 0)
(1.03169 0.00213324 0)
(1.0303 0.00204839 0)
(1.02897 0.00196614 0)
(1.02768 0.00188649 0)
(1.02645 0.00180943 0)
(1.02527 0.00173492 0)
(1.02414 0.00166295 0)
(1.02306 0.00159347 0)
(1.02202 0.00152644 0)
(1.02103 0.00146181 0)
(1.02008 0.00139955 0)
(1.01916 0.00133959 0)
(1.01829 0.00128189 0)
(1.01746 0.00122639 0)
(1.01666 0.00117302 0)
(1.0159 0.00112174 0)
(1.01517 0.00107249 0)
(1.01447 0.00102519 0)
(1.0138 0.000979805 0)
(1.01316 0.00093626 0)
(1.01256 0.000894499 0)
(1.01197 0.000854464 0)
(1.01142 0.000816095 0)
(1.01089 0.000779336 0)
(1.01038 0.000744128 0)
(1.0099 0.000710417 0)
(1.00944 0.000678146 0)
(1.00899 0.000647263 0)
(1.00857 0.000617716 0)
(1.00817 0.000589452 0)
(1.00779 0.000562422 0)
(1.00742 0.000536579 0)
(1.00708 0.000511873 0)
(1.00674 0.000488261 0)
(1.00643 0.000465698 0)
(1.00612 0.000444141 0)
(1.00583 0.000423547 0)
(1.00556 0.000403879 0)
(1.0053 0.000385096 0)
(1.00505 0.000367161 0)
(1.00481 0.000350039 0)
(1.00458 0.000333694 0)
(1.00436 0.000318093 0)
(1.00416 0.000303204 0)
(1.00396 0.000288997 0)
(1.00377 0.000275441 0)
(1.00359 0.000262507 0)
(1.00342 0.000250169 0)
(1.00326 0.0002384 0)
(1.00311 0.000227174 0)
(1.00296 0.000216468 0)
(1.00282 0.000206258 0)
(1.00269 0.000196522 0)
(1.00256 0.000187239 0)
(1.00244 0.000178387 0)
(1.00232 0.000169948 0)
(1.00221 0.000161903 0)
(1.00211 0.000154233 0)
(1.002 0.000146922 0)
(1.00191 0.000139953 0)
(1.00182 0.000133311 0)
(1.00173 0.00012698 0)
(1.00165 0.000120946 0)
(1.00157 0.000115195 0)
(1.0015 0.000109715 0)
(1.00143 0.000104492 0)
(1.00136 9.95146e-05 0)
(1.00129 9.47716e-05 0)
(1.00123 9.02519e-05 0)
(1.00117 8.5945e-05 0)
(1.00112 8.18411e-05 0)
(1.00106 7.79305e-05 0)
(1.00101 7.42042e-05 0)
(1.00097 7.06536e-05 0)
(1.00092 6.72704e-05 0)
(1.00088 6.40466e-05 0)
(1.00083 6.09747e-05 0)
(1.00079 5.80476e-05 0)
(1.00076 5.52584e-05 0)
(1.00072 5.26005e-05 0)
(1.00069 5.00677e-05 0)
(1.00065 4.76541e-05 0)
(1.00062 4.53539e-05 0)
(1.00059 4.31617e-05 0)
(1.00057 4.10724e-05 0)
(1.00054 3.9081e-05 0)
(1.00051 3.71829e-05 0)
(1.00049 3.53735e-05 0)
(1.00047 3.36485e-05 0)
(1.00045 3.20039e-05 0)
(1.00042 3.04357e-05 0)
(1.0004 2.89403e-05 0)
(1.00039 2.7514e-05 0)
(1.00037 2.61536e-05 0)
(1.00035 2.48557e-05 0)
(1.00034 2.36173e-05 0)
(1.00032 2.24354e-05 0)
(1.00031 2.13072e-05 0)
(1.00029 2.023e-05 0)
(1.00028 1.92012e-05 0)
(1.00027 1.82185e-05 0)
(1.00025 1.72794e-05 0)
(1.00024 1.63818e-05 0)
(1.00023 1.55233e-05 0)
(1.00022 1.47021e-05 0)
(1.00021 1.39162e-05 0)
(1.0002 1.31636e-05 0)
(1.0002 1.24426e-05 0)
(1.00019 1.17514e-05 0)
(1.00018 1.10884e-05 0)
(1.00017 1.04521e-05 0)
(1.00017 9.84076e-06 0)
(1.00016 9.25315e-06 0)
(1.00015 8.68742e-06 0)
(1.00015 8.14349e-06 0)
(1.00014 7.61603e-06 0)
(1.00014 7.11607e-06 0)
(1.00013 6.6045e-06 0)
(1.00013 6.19492e-06 0)
(1.00012 5.54053e-06 0)
(1.00001 -0.000180287 0)
(1.00015 -0.000544438 0)
(1.00044 -0.000913544 0)
(1.00087 -0.00128969 0)
(1.00147 -0.00167559 0)
(1.00221 -0.00207346 0)
(1.00312 -0.00248548 0)
(1.0042 -0.00291824 0)
(1.00545 -0.00338815 0)
(1.00691 -0.00392113 0)
(1.00859 -0.00454262 0)
(1.01054 -0.00526226 0)
(1.01279 -0.00606299 0)
(1.01538 -0.00690181 0)
(1.01831 -0.00772197 0)
(1.02155 -0.00846979 0)
(1.02507 -0.00910812 0)
(1.02883 -0.00962192 0)
(1.03276 -0.0100161 0)
(1.03683 -0.0103086 0)
(1.041 -0.0105231 0)
(1.04524 -0.0106826 0)
(1.04953 -0.0108062 0)
(1.05388 -0.0109081 0)
(1.05826 -0.0109975 0)
(1.06267 -0.0110799 0)
(1.06712 -0.011158 0)
(1.0716 -0.0112328 0)
(1.07611 -0.0113041 0)
(1.08065 -0.0113714 0)
(1.08522 -0.0114333 0)
(1.08981 -0.0114887 0)
(1.09442 -0.0115361 0)
(1.09905 -0.0115739 0)
(1.1037 -0.0116008 0)
(1.10835 -0.011615 0)
(1.11302 -0.0116152 0)
(1.11767 -0.0115996 0)
(1.12233 -0.011567 0)
(1.12696 -0.0115156 0)
(1.13157 -0.0114443 0)
(1.13615 -0.0113517 0)
(1.14069 -0.0112365 0)
(1.14518 -0.0110977 0)
(1.14962 -0.0109343 0)
(1.15398 -0.0107455 0)
(1.15826 -0.0105305 0)
(1.16245 -0.0102889 0)
(1.16654 -0.0100205 0)
(1.17051 -0.00972493 0)
(1.17437 -0.00940244 0)
(1.17808 -0.00905327 0)
(1.18166 -0.00867792 0)
(1.18507 -0.00827708 0)
(1.18832 -0.00785165 0)
(1.1914 -0.00740271 0)
(1.19428 -0.00693155 0)
(1.19698 -0.00643962 0)
(1.19947 -0.00592854 0)
(1.20175 -0.00540006 0)
(1.20382 -0.00485607 0)
(1.20566 -0.00429855 0)
(1.20728 -0.00372959 0)
(1.20866 -0.00315133 0)
(1.20981 -0.00256597 0)
(1.21073 -0.00197573 0)
(1.2114 -0.00138284 0)
(1.21184 -0.000789519 0)
(1.21203 -0.000197957 0)
(1.21199 0.000389679 0)
(1.21171 0.000971297 0)
(1.2112 0.00154488 0)
(1.21046 0.00210847 0)
(1.20949 0.00266023 0)
(1.2083 0.00319839 0)
(1.20691 0.0037213 0)
(1.2053 0.00422741 0)
(1.20349 0.0047153 0)
(1.20149 0.00518365 0)
(1.19931 0.0056313 0)
(1.19695 0.00605716 0)
(1.19442 0.00646031 0)
(1.19174 0.00683994 0)
(1.18891 0.00719538 0)
(1.18594 0.00752605 0)
(1.18284 0.00783156 0)
(1.17963 0.00811159 0)
(1.17631 0.00836598 0)
(1.17289 0.00859469 0)
(1.16939 0.00879778 0)
(1.16581 0.00897544 0)
(1.16216 0.00912798 0)
(1.15846 0.0092558 0)
(1.15471 0.00935942 0)
(1.15093 0.00943945 0)
(1.14712 0.00949658 0)
(1.14329 0.00953158 0)
(1.13946 0.0095453 0)
(1.13562 0.00953865 0)
(1.13179 0.0095126 0)
(1.12798 0.00946817 0)
(1.12418 0.00940639 0)
(1.12042 0.00932836 0)
(1.11669 0.00923516 0)
(1.11301 0.0091279 0)
(1.10937 0.00900771 0)
(1.10578 0.00887568 0)
(1.10225 0.00873291 0)
(1.09878 0.00858049 0)
(1.09537 0.00841945 0)
(1.09203 0.00825083 0)
(1.08876 0.00807563 0)
(1.08556 0.00789478 0)
(1.08243 0.00770921 0)
(1.07938 0.00751979 0)
(1.07641 0.00732733 0)
(1.07351 0.00713261 0)
(1.0707 0.00693637 0)
(1.06796 0.00673927 0)
(1.06531 0.00654196 0)
(1.06273 0.00634501 0)
(1.06023 0.00614896 0)
(1.05781 0.0059543 0)
(1.05547 0.00576147 0)
(1.05321 0.00557088 0)
(1.05102 0.00538287 0)
(1.04891 0.00519778 0)
(1.04687 0.00501588 0)
(1.0449 0.00483741 0)
(1.043 0.00466259 0)
(1.04118 0.00449159 0)
(1.03942 0.00432457 0)
(1.03772 0.00416165 0)
(1.0361 0.00400292 0)
(1.03453 0.00384845 0)
(1.03303 0.00369831 0)
(1.03158 0.00355251 0)
(1.03019 0.00341108 0)
(1.02886 0.00327401 0)
(1.02758 0.00314128 0)
(1.02635 0.00301287 0)
(1.02518 0.00288873 0)
(1.02405 0.00276881 0)
(1.02297 0.00265305 0)
(1.02193 0.00254138 0)
(1.02094 0.00243373 0)
(1.01999 0.00233002 0)
(1.01909 0.00223015 0)
(1.01822 0.00213404 0)
(1.01739 0.0020416 0)
(1.01659 0.00195272 0)
(1.01583 0.00186732 0)
(1.0151 0.00178529 0)
(1.01441 0.00170654 0)
(1.01374 0.00163096 0)
(1.01311 0.00155845 0)
(1.0125 0.00148891 0)
(1.01192 0.00142225 0)
(1.01137 0.00135837 0)
(1.01084 0.00129717 0)
(1.01034 0.00123855 0)
(1.00985 0.00118242 0)
(1.00939 0.0011287 0)
(1.00895 0.00107729 0)
(1.00854 0.0010281 0)
(1.00814 0.000981047 0)
(1.00775 0.000936052 0)
(1.00739 0.000893031 0)
(1.00704 0.000851907 0)
(1.00671 0.000812602 0)
(1.0064 0.000775045 0)
(1.0061 0.000739162 0)
(1.00581 0.000704885 0)
(1.00553 0.000672147 0)
(1.00527 0.000640883 0)
(1.00502 0.000611032 0)
(1.00479 0.000582533 0)
(1.00456 0.000555329 0)
(1.00434 0.000529364 0)
(1.00414 0.000504584 0)
(1.00394 0.000480938 0)
(1.00376 0.000458376 0)
(1.00358 0.000436851 0)
(1.00341 0.000416316 0)
(1.00325 0.000396729 0)
(1.00309 0.000378047 0)
(1.00295 0.000360229 0)
(1.00281 0.000343238 0)
(1.00267 0.000327035 0)
(1.00255 0.000311585 0)
(1.00242 0.000296854 0)
(1.00231 0.00028281 0)
(1.0022 0.000269421 0)
(1.0021 0.000256658 0)
(1.002 0.000244491 0)
(1.0019 0.000232894 0)
(1.00181 0.00022184 0)
(1.00172 0.000211304 0)
(1.00164 0.000201262 0)
(1.00156 0.000191693 0)
(1.00149 0.000182572 0)
(1.00142 0.000173881 0)
(1.00135 0.000165598 0)
(1.00129 0.000157705 0)
(1.00123 0.000150184 0)
(1.00117 0.000143017 0)
(1.00111 0.000136188 0)
(1.00106 0.00012968 0)
(1.00101 0.000123479 0)
(1.00096 0.000117571 0)
(1.00092 0.000111941 0)
(1.00087 0.000106576 0)
(1.00083 0.000101464 0)
(1.00079 9.65935e-05 0)
(1.00075 9.19521e-05 0)
(1.00072 8.75292e-05 0)
(1.00068 8.33145e-05 0)
(1.00065 7.92981e-05 0)
(1.00062 7.54704e-05 0)
(1.00059 7.18226e-05 0)
(1.00056 6.83459e-05 0)
(1.00054 6.50321e-05 0)
(1.00051 6.18736e-05 0)
(1.00049 5.88626e-05 0)
(1.00046 5.59922e-05 0)
(1.00044 5.32554e-05 0)
(1.00042 5.0646e-05 0)
(1.0004 4.81575e-05 0)
(1.00038 4.57842e-05 0)
(1.00037 4.35203e-05 0)
(1.00035 4.13606e-05 0)
(1.00033 3.92998e-05 0)
(1.00032 3.73331e-05 0)
(1.0003 3.54557e-05 0)
(1.00029 3.36633e-05 0)
(1.00028 3.19514e-05 0)
(1.00026 3.03161e-05 0)
(1.00025 2.87534e-05 0)
(1.00024 2.72597e-05 0)
(1.00023 2.58313e-05 0)
(1.00022 2.44648e-05 0)
(1.00021 2.31569e-05 0)
(1.0002 2.19046e-05 0)
(1.00019 2.07048e-05 0)
(1.00019 1.95547e-05 0)
(1.00018 1.84515e-05 0)
(1.00017 1.73925e-05 0)
(1.00017 1.63753e-05 0)
(1.00016 1.53975e-05 0)
(1.00015 1.4456e-05 0)
(1.00015 1.35512e-05 0)
(1.00014 1.2673e-05 0)
(1.00014 1.18426e-05 0)
(1.00013 1.0989e-05 0)
(1.00013 1.03143e-05 0)
(1.00012 9.21613e-06 0)
(1.00001 -0.000252271 0)
(1.00015 -0.000761772 0)
(1.00043 -0.0012782 0)
(1.00087 -0.00180452 0)
(1.00146 -0.00234451 0)
(1.00221 -0.00290123 0)
(1.00312 -0.00347776 0)
(1.00419 -0.00408332 0)
(1.00545 -0.00474085 0)
(1.0069 -0.00548661 0)
(1.00857 -0.00635616 0)
(1.01052 -0.00736296 0)
(1.01277 -0.00848316 0)
(1.01535 -0.00965662 0)
(1.01827 -0.010804 0)
(1.02151 -0.0118502 0)
(1.02503 -0.0127434 0)
(1.02877 -0.0134626 0)
(1.0327 -0.0140146 0)
(1.03676 -0.0144246 0)
(1.04092 -0.0147256 0)
(1.04516 -0.0149498 0)
(1.04945 -0.0151241 0)
(1.05379 -0.015268 0)
(1.05817 -0.0153947 0)
(1.06258 -0.0155116 0)
(1.06703 -0.0156226 0)
(1.07151 -0.0157291 0)
(1.07603 -0.0158309 0)
(1.08057 -0.015927 0)
(1.08514 -0.0160157 0)
(1.08974 -0.0160954 0)
(1.09437 -0.0161638 0)
(1.09901 -0.016219 0)
(1.10367 -0.0162587 0)
(1.10835 -0.0162808 0)
(1.11302 -0.0162831 0)
(1.1177 -0.0162635 0)
(1.12238 -0.0162197 0)
(1.12703 -0.0161498 0)
(1.13167 -0.0160518 0)
(1.13628 -0.0159238 0)
(1.14085 -0.0157641 0)
(1.14537 -0.0155711 0)
(1.14983 -0.0153435 0)
(1.15422 -0.01508 0)
(1.15853 -0.0147798 0)
(1.16276 -0.014442 0)
(1.16688 -0.0140663 0)
(1.17088 -0.0136524 0)
(1.17477 -0.0132006 0)
(1.17852 -0.012711 0)
(1.18212 -0.0121846 0)
(1.18557 -0.0116222 0)
(1.18885 -0.011025 0)
(1.19195 -0.0103947 0)
(1.19486 -0.0097331 0)
(1.19758 -0.00904216 0)
(1.2001 -0.0083242 0)
(1.2024 -0.00758171 0)
(1.20448 -0.00681735 0)
(1.20634 -0.00603394 0)
(1.20797 -0.00523441 0)
(1.20936 -0.0044218 0)
(1.21052 -0.0035992 0)
(1.21144 -0.00276976 0)
(1.21211 -0.00193663 0)
(1.21255 -0.00110293 0)
(1.21274 -0.000271771 0)
(1.21269 0.000553841 0)
(1.2124 0.00137095 0)
(1.21188 0.00217668 0)
(1.21113 0.00296831 0)
(1.21015 0.00374322 0)
(1.20894 0.00449895 0)
(1.20752 0.00523317 0)
(1.2059 0.00594372 0)
(1.20407 0.00662859 0)
(1.20204 0.00728595 0)
(1.19983 0.00791413 0)
(1.19745 0.00851165 0)
(1.19489 0.00907719 0)
(1.19218 0.00960962 0)
(1.18932 0.010108 0)
(1.18632 0.0105715 0)
(1.18319 0.0109997 0)
(1.17995 0.011392 0)
(1.1766 0.0117482 0)
(1.17315 0.0120683 0)
(1.16961 0.0123523 0)
(1.166 0.0126006 0)
(1.16233 0.0128136 0)
(1.1586 0.0129919 0)
(1.15482 0.0131361 0)
(1.15101 0.0132472 0)
(1.14718 0.0133261 0)
(1.14332 0.0133739 0)
(1.13946 0.0133918 0)
(1.1356 0.0133812 0)
(1.13175 0.0133433 0)
(1.12791 0.0132797 0)
(1.1241 0.0131917 0)
(1.12032 0.0130809 0)
(1.11657 0.0129489 0)
(1.11287 0.0127972 0)
(1.10922 0.0126274 0)
(1.10562 0.012441 0)
(1.10207 0.0122396 0)
(1.09859 0.0120248 0)
(1.09517 0.0117979 0)
(1.09182 0.0115604 0)
(1.08854 0.0113138 0)
(1.08534 0.0110594 0)
(1.08221 0.0107983 0)
(1.07915 0.010532 0)
(1.07618 0.0102615 0)
(1.07328 0.00998785 0)
(1.07046 0.00971216 0)
(1.06773 0.00943535 0)
(1.06507 0.00915829 0)
(1.0625 0.00888182 0)
(1.06 0.00860666 0)
(1.05758 0.00833351 0)
(1.05524 0.00806299 0)
(1.05298 0.00779566 0)
(1.0508 0.007532 0)
(1.04869 0.00727248 0)
(1.04665 0.00701747 0)
(1.04469 0.00676732 0)
(1.0428 0.00652231 0)
(1.04097 0.00628271 0)
(1.03922 0.00604871 0)
(1.03753 0.00582048 0)
(1.03591 0.00559815 0)
(1.03435 0.00538183 0)
(1.03285 0.00517158 0)
(1.03141 0.00496744 0)
(1.03002 0.00476944 0)
(1.0287 0.00457756 0)
(1.02742 0.00439179 0)
(1.0262 0.00421207 0)
(1.02503 0.00403834 0)
(1.02391 0.00387054 0)
(1.02283 0.00370857 0)
(1.0218 0.00355234 0)
(1.02082 0.00340174 0)
(1.01987 0.00325666 0)
(1.01897 0.00311697 0)
(1.0181 0.00298255 0)
(1.01728 0.00285326 0)
(1.01649 0.00272897 0)
(1.01573 0.00260955 0)
(1.01501 0.00249485 0)
(1.01431 0.00238473 0)
(1.01365 0.00227905 0)
(1.01302 0.00217768 0)
(1.01242 0.00208047 0)
(1.01184 0.00198728 0)
(1.01129 0.00189798 0)
(1.01077 0.00181243 0)
(1.01027 0.00173049 0)
(1.00979 0.00165205 0)
(1.00933 0.00157696 0)
(1.00889 0.0015051 0)
(1.00848 0.00143635 0)
(1.00808 0.0013706 0)
(1.0077 0.00130772 0)
(1.00734 0.0012476 0)
(1.007 0.00119013 0)
(1.00667 0.00113521 0)
(1.00635 0.00108273 0)
(1.00605 0.00103259 0)
(1.00577 0.000984692 0)
(1.0055 0.000938949 0)
(1.00524 0.000895267 0)
(1.00499 0.000853559 0)
(1.00475 0.000813742 0)
(1.00453 0.000775733 0)
(1.00431 0.000739457 0)
(1.00411 0.000704837 0)
(1.00392 0.000671801 0)
(1.00373 0.000640281 0)
(1.00355 0.00061021 0)
(1.00338 0.000581523 0)
(1.00322 0.00055416 0)
(1.00307 0.000528061 0)
(1.00293 0.00050317 0)
(1.00279 0.000479434 0)
(1.00265 0.000456799 0)
(1.00253 0.000435217 0)
(1.00241 0.00041464 0)
(1.00229 0.000395021 0)
(1.00218 0.000376318 0)
(1.00208 0.000358489 0)
(1.00198 0.000341494 0)
(1.00189 0.000325294 0)
(1.0018 0.000309854 0)
(1.00171 0.000295137 0)
(1.00163 0.000281111 0)
(1.00155 0.000267744 0)
(1.00148 0.000255004 0)
(1.00141 0.000242864 0)
(1.00134 0.000231295 0)
(1.00128 0.00022027 0)
(1.00122 0.000209765 0)
(1.00116 0.000199754 0)
(1.0011 0.000190215 0)
(1.00105 0.000181126 0)
(1.001 0.000172465 0)
(1.00095 0.000164212 0)
(1.00091 0.000156348 0)
(1.00087 0.000148855 0)
(1.00082 0.000141715 0)
(1.00079 0.000134912 0)
(1.00075 0.000128429 0)
(1.00071 0.000122252 0)
(1.00068 0.000116365 0)
(1.00065 0.000110755 0)
(1.00062 0.000105409 0)
(1.00059 0.000100314 0)
(1.00056 9.54579e-05 0)
(1.00053 9.08295e-05 0)
(1.00051 8.64179e-05 0)
(1.00048 8.22125e-05 0)
(1.00046 7.82033e-05 0)
(1.00044 7.4381e-05 0)
(1.00042 7.07363e-05 0)
(1.0004 6.72607e-05 0)
(1.00038 6.39459e-05 0)
(1.00036 6.0784e-05 0)
(1.00035 5.77675e-05 0)
(1.00033 5.48892e-05 0)
(1.00032 5.21423e-05 0)
(1.0003 4.95202e-05 0)
(1.00029 4.70167e-05 0)
(1.00028 4.46258e-05 0)
(1.00026 4.23418e-05 0)
(1.00025 4.01592e-05 0)
(1.00024 3.80729e-05 0)
(1.00023 3.60779e-05 0)
(1.00022 3.41693e-05 0)
(1.00021 3.23426e-05 0)
(1.0002 3.05936e-05 0)
(1.00019 2.89178e-05 0)
(1.00019 2.73115e-05 0)
(1.00018 2.57706e-05 0)
(1.00017 2.42917e-05 0)
(1.00016 2.28709e-05 0)
(1.00016 2.15053e-05 0)
(1.00015 2.01903e-05 0)
(1.00015 1.89266e-05 0)
(1.00014 1.77e-05 0)
(1.00014 1.65407e-05 0)
(1.00013 1.53479e-05 0)
(1.00013 1.44071e-05 0)
(1.00012 1.28707e-05 0)
(1.00001 -0.000324097 0)
(1.00015 -0.00097866 0)
(1.00043 -0.00164213 0)
(1.00087 -0.00231832 0)
(1.00146 -0.00301209 0)
(1.0022 -0.00372737 0)
(1.00311 -0.00446811 0)
(1.00418 -0.00524615 0)
(1.00543 -0.00609097 0)
(1.00688 -0.00704908 0)
(1.00855 -0.00816613 0)
(1.0105 -0.0094594 0)
(1.01274 -0.0108982 0)
(1.01532 -0.0124054 0)
(1.01823 -0.0138792 0)
(1.02146 -0.0152231 0)
(1.02497 -0.0163707 0)
(1.0287 -0.0172951 0)
(1.03262 -0.018005 0)
(1.03667 -0.0185329 0)
(1.04083 -0.0189212 0)
(1.04506 -0.0192111 0)
(1.04934 -0.0194372 0)
(1.05368 -0.0196246 0)
(1.05805 -0.0197899 0)
(1.06246 -0.0199429 0)
(1.06691 -0.0200886 0)
(1.0714 -0.0202286 0)
(1.07591 -0.0203627 0)
(1.08047 -0.0204896 0)
(1.08505 -0.0206072 0)
(1.08966 -0.0207131 0)
(1.0943 -0.0208048 0)
(1.09896 -0.0208794 0)
(1.10364 -0.0209343 0)
(1.10833 -0.0209664 0)
(1.11303 -0.0209731 0)
(1.11774 -0.0209514 0)
(1.12244 -0.0208986 0)
(1.12713 -0.0208121 0)
(1.1318 -0.0206892 0)
(1.13644 -0.0205276 0)
(1.14105 -0.0203249 0)
(1.14561 -0.0200791 0)
(1.15011 -0.0197884 0)
(1.15454 -0.0194513 0)
(1.1589 -0.0190664 0)
(1.16316 -0.0186329 0)
(1.16733 -0.0181501 0)
(1.17138 -0.0176178 0)
(1.17531 -0.0170362 0)
(1.1791 -0.0164056 0)
(1.18274 -0.0157271 0)
(1.18623 -0.0150018 0)
(1.18955 -0.0142314 0)
(1.19269 -0.013418 0)
(1.19564 -0.0125638 0)
(1.19839 -0.0116716 0)
(1.20093 -0.0107443 0)
(1.20326 -0.00978513 0)
(1.20537 -0.00879761 0)
(1.20725 -0.00778537 0)
(1.20889 -0.00675225 0)
(1.2103 -0.0057022 0)
(1.21147 -0.00463925 0)
(1.21239 -0.00356747 0)
(1.21307 -0.00249096 0)
(1.2135 -0.0014138 0)
(1.21369 -0.000339991 0)
(1.21363 0.00072653 0)
(1.21333 0.00178194 0)
(1.2128 0.00282255 0)
(1.21202 0.00384481 0)
(1.21102 0.00484535 0)
(1.2098 0.00582096 0)
(1.20835 0.00676866 0)
(1.20669 0.00768564 0)
(1.20483 0.00856933 0)
(1.20278 0.00941735 0)
(1.20053 0.0102276 0)
(1.19811 0.010998 0)
(1.19552 0.0117271 0)
(1.19277 0.0124133 0)
(1.18987 0.0130554 0)
(1.18683 0.0136524 0)
(1.18366 0.0142035 0)
(1.18038 0.0147083 0)
(1.17698 0.0151664 0)
(1.17349 0.0155778 0)
(1.16992 0.0159425 0)
(1.16627 0.0162611 0)
(1.16255 0.0165339 0)
(1.15878 0.0167619 0)
(1.15497 0.0169459 0)
(1.15112 0.017087 0)
(1.14725 0.0171866 0)
(1.14336 0.0172461 0)
(1.13946 0.0172669 0)
(1.13557 0.0172509 0)
(1.13169 0.0171998 0)
(1.12783 0.0171154 0)
(1.12399 0.0169997 0)
(1.12018 0.0168547 0)
(1.11641 0.0166823 0)
(1.11269 0.0164846 0)
(1.10901 0.0162636 0)
(1.10539 0.0160213 0)
(1.10183 0.0157598 0)
(1.09834 0.015481 0)
(1.0949 0.0151869 0)
(1.09154 0.0148792 0)
(1.08825 0.0145599 0)
(1.08504 0.0142305 0)
(1.0819 0.0138928 0)
(1.07884 0.0135484 0)
(1.07587 0.0131987 0)
(1.07297 0.0128452 0)
(1.07015 0.0124891 0)
(1.06741 0.0121317 0)
(1.06475 0.0117741 0)
(1.06218 0.0114173 0)
(1.05969 0.0110624 0)
(1.05727 0.0107101 0)
(1.05494 0.0103614 0)
(1.05268 0.0100168 0)
(1.0505 0.00967704 0)
(1.04839 0.00934269 0)
(1.04636 0.00901424 0)
(1.04441 0.00869211 0)
(1.04252 0.00837667 0)
(1.0407 0.00806825 0)
(1.03896 0.0077671 0)
(1.03728 0.00747343 0)
(1.03566 0.00718741 0)
(1.0341 0.00690916 0)
(1.03261 0.00663876 0)
(1.03118 0.00637626 0)
(1.0298 0.00612169 0)
(1.02848 0.00587504 0)
(1.02721 0.00563625 0)
(1.026 0.00540528 0)
(1.02484 0.00518205 0)
(1.02372 0.00496645 0)
(1.02265 0.00475837 0)
(1.02163 0.00455768 0)
(1.02065 0.00436425 0)
(1.01971 0.00417792 0)
(1.01881 0.00399853 0)
(1.01795 0.00382593 0)
(1.01713 0.00365993 0)
(1.01635 0.00350036 0)
(1.0156 0.00334706 0)
(1.01488 0.00319982 0)
(1.01419 0.00305848 0)
(1.01354 0.00292285 0)
(1.01291 0.00279275 0)
(1.01231 0.00266801 0)
(1.01174 0.00254843 0)
(1.01119 0.00243384 0)
(1.01067 0.00232407 0)
(1.01018 0.00221895 0)
(1.0097 0.00211831 0)
(1.00925 0.00202198 0)
(1.00881 0.00192981 0)
(1.0084 0.00184162 0)
(1.00801 0.00175728 0)
(1.00763 0.00167663 0)
(1.00727 0.00159952 0)
(1.00693 0.00152581 0)
(1.00661 0.00145537 0)
(1.00629 0.00138807 0)
(1.006 0.00132377 0)
(1.00571 0.00126235 0)
(1.00545 0.00120369 0)
(1.00519 0.00114768 0)
(1.00494 0.0010942 0)
(1.00471 0.00104314 0)
(1.00449 0.000994408 0)
(1.00427 0.000947895 0)
(1.00407 0.000903506 0)
(1.00388 0.000861151 0)
(1.00369 0.000820739 0)
(1.00352 0.000782185 0)
(1.00335 0.000745407 0)
(1.00319 0.000710327 0)
(1.00304 0.000676868 0)
(1.0029 0.000644958 0)
(1.00276 0.000614529 0)
(1.00263 0.000585512 0)
(1.0025 0.000557845 0)
(1.00238 0.000531466 0)
(1.00227 0.000506318 0)
(1.00216 0.000482343 0)
(1.00206 0.000459488 0)
(1.00196 0.000437703 0)
(1.00187 0.000416937 0)
(1.00178 0.000397145 0)
(1.0017 0.00037828 0)
(1.00161 0.000360301 0)
(1.00154 0.000343167 0)
(1.00146 0.000326838 0)
(1.0014 0.000311277 0)
(1.00133 0.000296448 0)
(1.00127 0.000282317 0)
(1.00121 0.000268851 0)
(1.00115 0.00025602 0)
(1.00109 0.000243793 0)
(1.00104 0.000232143 0)
(1.00099 0.000221042 0)
(1.00094 0.000210464 0)
(1.0009 0.000200385 0)
(1.00086 0.000190781 0)
(1.00082 0.00018163 0)
(1.00078 0.00017291 0)
(1.00074 0.000164601 0)
(1.00071 0.000156683 0)
(1.00067 0.000149138 0)
(1.00064 0.000141948 0)
(1.00061 0.000135096 0)
(1.00058 0.000128566 0)
(1.00055 0.000122343 0)
(1.00053 0.000116411 0)
(1.0005 0.000110756 0)
(1.00048 0.000105366 0)
(1.00046 0.000100228 0)