/*--------------------------------*- C++ -*----------------------------------*\
| =========                 |                                                 |
| \\      /  F ield         | OpenFOAM: The Open Source CFD Toolbox           |
|  \\    /   O peration     | Version:  2306                                  |
|   \\  /    A nd           | Website:  www.openfoam.com                      |
|    \\/     M anipulation  |                                                 |
\*---------------------------------------------------------------------------*/
FoamFile
{
    version     2.0;
    format      ascii;
    arch        "LSB;label=32;scalar=64";
    class       volScalarField;
    location    "0.025";
    object      G;
}
// * * * * * * * * * * * * * * * * * * * * * * * * * * * * * * * * * * * * * //

dimensions      [1 0 -3 0 0 0 0];

internalField   nonuniform List<scalar> 
100
(
9757.09
11169.1
12121.8
12795.4
13150.6
13150.7
12795.5
12121.7
11169.1
9757.36
11169.1
12726.8
13794.1
14567.2
14967.4
14967.5
14567.3
13794
12726.6
11169.1
12121.8
13794.1
15000.9
15873.2
16318.8
16318.9
15873.3
15000.8
13794
12121.7
12795.4
14567.2
15873.2
16820.1
17303.2
17303.3
16820.3
15873.3
14567.3
12795.5
13150.6
14967.4
16318.8
17303.2
17805.6
17805.7
17303.3
16318.9
14967.5
13150.7
13150.7
14967.5
16318.9
17303.3
17805.7
17805.6
17303.2
16318.8
14967.4
13150.6
12795.5
14567.3
15873.3
16820.3
17303.3
17303.2
16820.1
15873.2
14567.2
12795.4
12121.7
13794
15000.8
15873.3
16318.9
16318.8
15873.2
15000.9
13794.1
12121.8
11169.1
12726.6
13794
14567.3
14967.5
14967.4
14567.2
13794.1
12726.8
11169.1
9757.36
11169.1
12121.7
12795.5
13150.7
13150.6
12795.4
12121.8
11169.1
9757.09
)
;

boundaryField
{
    fixedWall_Bottom
    {
        type            calculated;
        value           nonuniform List<scalar> 10(8467.73 9645.4 10524.6 11153.8 11480.7 11480.8 11153.9 10524.6 9645.4 8467.95);
    }
    fixedWall_Right
    {
        type            calculated;
        value           nonuniform List<scalar> 10(8467.95 9645.4 10524.6 11153.9 11480.8 11480.7 11153.8 10524.6 9645.4 8467.73);
    }
    fixedWall_Left
    {
        type            calculated;
        value           nonuniform List<scalar> 10(8467.73 9645.4 10524.6 11153.8 11480.7 11480.8 11153.9 10524.6 9645.4 8467.95);
    }
    fixedWall_Top
    {
        type            calculated;
        value           nonuniform List<scalar> 10(8467.95 9645.4 10524.6 11153.9 11480.8 11480.7 11153.8 10524.6 9645.4 8467.73);
    }
    frontAndBack
    {
        type            empty;
    }
}


// ************************************************************************* //
