/*--------------------------------*- C++ -*----------------------------------*\
| =========                 |                                                 |
| \\      /  F ield         | OpenFOAM: The Open Source CFD Toolbox           |
|  \\    /   O peration     | Version:  2112                                  |
|   \\  /    A nd           | Website:  www.openfoam.com                      |
|    \\/     M anipulation  |                                                 |
\*---------------------------------------------------------------------------*/
FoamFile
{
    version     2.0;
    format      ascii;
    arch        "LSB;label=32;scalar=64";
    class       volScalarField;
    location    "0.12";
    object      G;
}
// * * * * * * * * * * * * * * * * * * * * * * * * * * * * * * * * * * * * * //

dimensions      [1 0 -3 0 0 0 0];

internalField   nonuniform List<scalar> 
900
(
142480
164430
172944
177779
181337
184226
186627
188639
190329
191732
192874
193770
194433
194871
195089
195089
194871
194433
193770
192873
191732
190329
188639
186627
184226
181337
177778
172944
164429
142479
126622
149248
162546
170860
176644
181020
184482
187287
189581
191449
192945
194106
194958
195518
195796
195796
195518
194958
194106
192944
191449
189581
187287
184482
181020
176644
170860
162546
149248
126622
122744
141468
155116
164979
172261
177839
182236
185774
188645
190967
192817
194247
195294
195980
196319
196319
195980
195294
194247
192817
190967
188644
185774
182236
177839
172261
164979
155115
141468
122744
121483
137306
149914
159974
167909
174204
179249
183334
186654
189339
191475
193126
194332
195121
195512
195512
195121
194332
193126
191475
189338
186654
183334
179249
174204
167909
159974
149914
137306
121483
120899
134834
146294
155968
163994
170593
176005
180448
184087
187043
189401
191226
192560
193434
193867
193867
193434
192560
191226
189401
187043
184087
180448
176005
170593
163994
155968
146294
134834
120899
120177
132855
143376
152532
160394
167049
172634
177293
181152
184309
186842
188807
190248
191194
191662
191662
191194
190248
188807
186842
184309
181152
177293
172634
167049
160394
152532
143376
132855
120177
119381
131168
140949
149601
157192
163755
169364
174114
178090
181370
184016
186078
187594
188590
189084
189084
188590
187594
186078
184016
181370
178090
174114
169364
163755
157192
149601
140949
131168
119381
118575
129659
138833
147015
154291
160671
166203
170944
174954
178287
180992
183110
184671
185699
186210
186210
185699
184671
183110
180992
178287
174954
170944
166203
160671
154291
147014
138833
129659
118575
117685
128179
136843
144597
151556
157717
163115
167788
171773
175109
177832
179973
181557
182602
183121
183121
182602
181557
179973
177832
175109
171773
167788
163115
157717
151556
144597
136843
128179
117685
116662
126662
134893
142266
148923
154855
160090
164656
168576
171878
174586
176723
178308
179357
179879
179879
179357
178308
176723
174586
171878
168576
164656
160090
154855
148923
142266
134893
126662
116662
115528
125103
132959
139986
146359
152059
157116
161550
165377
168615
171282
173393
174964
176005
176523
176523
176005
174964
173393
171282
168615
165377
161550
157116
152059
146359
139986
132959
125103
115528
114301
123496
131016
137725
143828
149300
154171
158458
162174
165329
167936
170006
171550
172574
173084
173084
172574
171550
170006
167936
165329
162174
158458
154171
149300
143828
137725
131016
123496
114301
112977
121822
129042
135453
141302
146553
151237
155372
158965
162025
164560
166577
168083
169084
169583
169583
169084
168083
166577
164560
162025
158965
155372
151237
146553
141302
135453
129042
121822
112977
111552
120076
127022
133155
138764
143803
148302
152281
155746
158702
161156
163112
164575
165547
166033
166033
165547
164575
163112
161156
158702
155746
152281
148302
143803
138764
133156
127022
120076
111552
110033
118256
124950
130822
136201
141037
145354
149177
152511
155359
157726
159616
161030
161971
162442
162442
161971
161030
159616
157726
155359
152511
149177
145354
141037
136201
130822
124950
118256
110033
108426
116362
122822
128443
133603
138243
142382
146050
149253
151991
154268
156088
157451
158358
158812
158812
158358
157451
156088
154268
151991
149253
146050
142382
138243
133603
128443
122822
116362
108426
106733
114392
120633
126012
130961
135411
139378
142893
145964
148591
150778
152525
153835
154708
155144
155144
154708
153835
152525
150778
148591
145964
142893
139378
135412
130961
126012
120633
114392
106733
104954
112345
118377
123523
128267
132535
136332
139697
142638
145154
147248
148923
150179
151016
151434
151434
151016
150179
148923
147248
145154
142638
139697
136332
132535
128267
123524
118377
112345
104954
103092
110219
116053
120972
125514
129604
133237
136453
139264
141670
143673
145274
146475
147276
147676
147676
147276
146475
145274
143673
141670
139264
136453
133237
129604
125514
120972
116053
110219
103092
101148
108014
113656
118351
122694
126611
130082
133151
135834
138131
140042
141570
142717
143481
143863
143863
143481
142717
141571
140042
138131
135834
133151
130082
126611
122694
118352
113656
108014
101148
99120.7
105726
111182
115656
119800
123546
126857
129780
132338
134525
136345
137801
138893
139620
139984
139984
139620
138893
137801
136345
134525
132338
129780
126857
123547
119800
115656
111182
105726
99120.9
97009.3
103351
108623
112878
116822
120399
123552
126330
128761
130841
132570
133953
134990
135681
136027
136027
135681
134990
133953
132570
130841
128761
126330
123552
120399
116822
112878
108623
103351
97009.5
94812.8
100885
105973
110008
113749
117157
120153
122785
125089
127062
128700
130010
130993
131648
131975
131975
131648
130993
130010
128700
127062
125089
122785
120153
117157
113749
110008
105973
100886
94812.9
92526.3
98321.8
103223
107035
110567
113803
116643
119128
121305
123169
124718
125955
126883
127502
127811
127811
127502
126883
125955
124718
123169
121305
119128
116643
113803
110567
107035
103223
98322
92526.5
90136.2
95644.1
100353
103939
107255
110316
112998
115336
117383
119140
120598
121762
122636
123218
123509
123509
123218
122636
121762
120598
119140
117384
115336
112998
110317
107255
103939
100353
95644.3
90136.4
87627.6
92829.4
97335.2
100688
103779
106660
109183
111370
113288
114936
116304
117395
118213
118760
119033
119033
118760
118213
117395
116304
114936
113288
111370
109183
106660
103779
100688
97335.4
92829.6
87627.8
85014
89878
94160.9
97265.4
100118
102809
105170
107204
108987
110526
111802
112819
113582
114092
114347
114347
114092
113582
112819
111802
110526
108987
107204
105170
102809
100118
97265.6
94161
89878.2
85014.2
82226.8
86703.7
90732.8
93569.8
96162.7
98649
100840
102715
104357
105779
106961
107900
108605
109077
109313
109313
109077
108605
107900
106961
105779
104357
102715
100840
98649.1
96162.8
93569.9
90732.9
86703.9
82227.1
79238.4
83285.4
87030
89597.1
91939.1
94229.2
96259.3
97984.7
99494
100809
101904
102772
103423
103860
104079
104079
103860
103423
102772
101904
100809
99494.1
97984.8
96259.4
94229.3
91939.2
89597.3
87030.2
83285.7
79238.7
75073.4
78432.2
81792.3
84006
85993
88007.4
89828.3
91355.5
92678.5
93842.3
94818.8
95590.1
96165.7
96553
96748.9
96748.9
96553
96165.7
95590.2
94818.9
93842.4
92678.6
91355.6
89828.4
88007.5
85993.2
84006.2
81792.6
78432.5
75073.7
)
;

boundaryField
{
    fixedWall_Bottom
    {
        type            calculated;
        value           nonuniform List<scalar> 
30
(
167498
171848
175082
177779
180136
182213
184021
185588
186934
188073
189011
189755
190309
190676
190860
190860
190676
190309
189755
189011
188073
186934
185587
184021
182212
180136
177779
175082
171848
167497
)
;
    }
    fixedWall_Right
    {
        type            calculated;
        value           nonuniform List<scalar> 
30
(
111329
111951
112800
113333
113704
113616
113282
112831
112227
111443
110515
109471
108313
107043
105670
104202
102644
100997
99265.6
97451.2
95554.2
93574.1
91511
89361.5
87113.4
84754.5
82301.7
79698.6
76935.2
73182.3
)
;
    }
    fixedWall_Left
    {
        type            calculated;
        value           nonuniform List<scalar> 
30
(
111329
111952
112800
113333
113704
113616
113282
112832
112227
111443
110515
109471
108313
107043
105670
104202
102644
100997
99265.4
97451.1
95554
93573.9
91510.8
89361.3
87113.2
84754.3
82301.6
79698.4
76934.9
73182
)
;
    }
    fixedWall_Top
    {
        type            calculated;
        value           nonuniform List<scalar> 
30
(
73344
76353.5
79521.4
81601.2
83481.1
85403.1
87144.6
88604.3
89869.9
90985
91921.4
92661
93213
93584.6
93772.7
93772.7
93584.6
93213
92661.1
91921.5
90985.1
89870
88604.4
87144.7
85403.3
83481.2
81601.4
79521.6
76353.8
73344.3
)
;
    }
    frontAndBack
    {
        type            empty;
    }
}


// ************************************************************************* //
