/*--------------------------------*- C++ -*----------------------------------*\
| =========                 |                                                 |
| \\      /  F ield         | OpenFOAM: The Open Source CFD Toolbox           |
|  \\    /   O peration     | Version:  2112                                  |
|   \\  /    A nd           | Website:  www.openfoam.com                      |
|    \\/     M anipulation  |                                                 |
\*---------------------------------------------------------------------------*/
FoamFile
{
    version     2.0;
    format      ascii;
    arch        "LSB;label=32;scalar=64";
    class       volScalarField;
    location    "0.12";
    object      qin;
}
// * * * * * * * * * * * * * * * * * * * * * * * * * * * * * * * * * * * * * //

dimensions      [1 0 -3 0 0 0 0];

internalField   uniform 0;

boundaryField
{
    fixedWall_Bottom
    {
        type            calculated;
        value           nonuniform List<scalar> 
30
(
25932.8
29197.6
31477.9
33399
35067.4
36537.4
37814.5
38918.3
39866.1
40666.9
41325.7
41847.5
42235.9
42493.7
42622.3
42622.3
42493.7
42235.9
41847.4
41325.7
40666.8
39866
38918.2
37814.5
36537.3
35067.3
33398.9
31477.8
29197.5
25932.7
)
;
    }
    fixedWall_Right
    {
        type            calculated;
        value           nonuniform List<scalar> 
30
(
57991.6
58885.7
59476.2
59907.6
60179.5
60092.4
59810.2
59440.4
58955.5
58337.4
57615.3
56813.2
55933.9
54978.9
53956.1
52872.6
51731.3
50534.2
49283.3
47980
46623.9
45213.8
43749.2
42226.4
40635
38964.4
37227.3
35375.9
33413.4
30633.3
)
;
    }
    fixedWall_Left
    {
        type            calculated;
        value           nonuniform List<scalar> 
30
(
57991.7
58885.8
59476.3
59907.7
60179.5
60092.5
59810.3
59440.4
58955.5
58337.4
57615.3
56813.2
55933.9
54978.9
53956.1
52872.6
51731.3
50534.1
49283.2
47979.9
46623.8
45213.7
43749.1
42226.3
40634.9
38964.3
37227.2
35375.8
33413.3
30633.2
)
;
    }
    fixedWall_Top
    {
        type            calculated;
        value           nonuniform List<scalar> 
30
(
43896
46662.7
49232.2
51019.5
52624.9
54259.8
55743.7
56996.9
58086.1
59045.2
59851.5
60489.9
60966.9
61288
61450.4
61450.4
61288
60966.9
60490
59851.5
59045.3
58086.2
56996.9
55743.8
54259.8
52625
51019.5
49232.3
46662.9
43896.1
)
;
    }
    frontAndBack
    {
        type            empty;
    }
}


// ************************************************************************* //
