/*--------------------------------*- C++ -*----------------------------------*\
| =========                 |                                                 |
| \\      /  F ield         | OpenFOAM: The Open Source CFD Toolbox           |
|  \\    /   O peration     | Version:  2112                                  |
|   \\  /    A nd           | Website:  www.openfoam.com                      |
|    \\/     M anipulation  |                                                 |
\*---------------------------------------------------------------------------*/
FoamFile
{
    version     2.0;
    format      ascii;
    arch        "LSB;label=32;scalar=64";
    class       volScalarField;
    location    "0.12";
    object      qr;
}
// * * * * * * * * * * * * * * * * * * * * * * * * * * * * * * * * * * * * * //

dimensions      [1 0 -3 0 0 0 0];

internalField   uniform 0;

boundaryField
{
    fixedWall_Bottom
    {
        type            calculated;
        value           nonuniform List<scalar> 
30
(
-30771.3
-27506.4
-25226.2
-23305.1
-21636.7
-20166.7
-18889.6
-17785.8
-16838
-16037.2
-15378.4
-14856.6
-14468.1
-14210.3
-14081.8
-14081.8
-14210.4
-14468.2
-14856.7
-15378.4
-16037.3
-16838.1
-17785.9
-18889.6
-20166.8
-21636.8
-23305.2
-25226.3
-27506.6
-30771.4
)
;
    }
    fixedWall_Right
    {
        type            calculated;
        value           nonuniform List<scalar> 
30
(
57991.6
58885.7
59476.2
59907.6
60179.5
60092.4
59810.2
59440.4
58955.5
58337.4
57615.3
56813.2
55933.9
54978.9
53956.1
52872.6
51731.3
50534.2
49283.3
47980
46623.9
45213.8
43749.2
42226.4
40635
38964.4
37227.3
35375.9
33413.4
30633.3
)
;
    }
    fixedWall_Left
    {
        type            calculated;
        value           nonuniform List<scalar> 
30
(
57991.7
58885.8
59476.3
59907.7
60179.5
60092.5
59810.3
59440.4
58955.5
58337.4
57615.3
56813.2
55933.9
54978.9
53956.1
52872.6
51731.3
50534.1
49283.2
47979.9
46623.8
45213.7
43749.1
42226.3
40634.9
38964.3
37227.2
35375.8
33413.3
30633.2
)
;
    }
    fixedWall_Top
    {
        type            calculated;
        value           nonuniform List<scalar> 
30
(
43896
46662.7
49232.2
51019.5
52624.9
54259.8
55743.7
56996.9
58086.1
59045.2
59851.5
60489.9
60966.9
61288
61450.4
61450.4
61288
60966.9
60490
59851.5
59045.3
58086.2
56996.9
55743.8
54259.8
52625
51019.5
49232.3
46662.9
43896.1
)
;
    }
    frontAndBack
    {
        type            empty;
    }
}


// ************************************************************************* //
