/*--------------------------------*- C++ -*----------------------------------*\
| =========                 |                                                 |
| \\      /  F ield         | OpenFOAM: The Open Source CFD Toolbox           |
|  \\    /   O peration     | Version:  2306                                  |
|   \\  /    A nd           | Website:  www.openfoam.com                      |
|    \\/     M anipulation  |                                                 |
\*---------------------------------------------------------------------------*/
FoamFile
{
    version     2.0;
    format      ascii;
    arch        "LSB;label=32;scalar=64";
    class       volScalarField;
    location    "0.045";
    object      G;
}
// * * * * * * * * * * * * * * * * * * * * * * * * * * * * * * * * * * * * * //

dimensions      [1 0 -3 0 0 0 0];

internalField   nonuniform List<scalar> 
100
(
10048
11099.6
11804.9
12162.1
12331.2
12331.1
12162
11804.9
11099.6
10048
11099.6
12358.6
13187.6
13604.4
13793.2
13793.2
13604.4
13187.6
12358.6
11099.6
11804.9
13187.6
14110.5
14574.9
14782.1
14782.1
14574.9
14110.6
13187.6
11804.9
12162.1
13604.4
14574.9
15066.1
15284.2
15284.2
15066
14574.9
13604.4
12162
12331.2
13793.2
14782.1
15284.2
15506.7
15506.7
15284.2
14782.1
13793.2
12331.1
12331.1
13793.2
14782.1
15284.2
15506.7
15506.7
15284.2
14782.1
13793.2
12331.2
12162
13604.4
14574.9
15066
15284.2
15284.2
15066.1
14574.9
13604.4
12162.1
11804.9
13187.6
14110.6
14574.9
14782.1
14782.1
14574.9
14110.5
13187.6
11804.9
11099.6
12358.6
13187.6
13604.4
13793.2
13793.2
13604.4
13187.6
12358.6
11099.6
10048
11099.6
11804.9
12162
12331.1
12331.2
12162.1
11804.9
11099.6
10048
)
;

boundaryField
{
    fixedWall_Bottom
    {
        type            calculated;
        value           nonuniform List<scalar> 10(8780.46 9599.67 10202.6 10510.2 10658 10658 10510.2 10202.6 9599.7 8780.48);
    }
    fixedWall_Right
    {
        type            calculated;
        value           nonuniform List<scalar> 10(8780.48 9599.7 10202.6 10510.2 10658 10658 10510.2 10202.6 9599.67 8780.46);
    }
    fixedWall_Left
    {
        type            calculated;
        value           nonuniform List<scalar> 10(8780.46 9599.67 10202.6 10510.2 10658 10658 10510.2 10202.6 9599.7 8780.48);
    }
    fixedWall_Top
    {
        type            calculated;
        value           nonuniform List<scalar> 10(8780.48 9599.7 10202.6 10510.2 10658 10658 10510.2 10202.6 9599.67 8780.46);
    }
    frontAndBack
    {
        type            empty;
    }
}


// ************************************************************************* //
