/*--------------------------------*- C++ -*----------------------------------*\
| =========                 |                                                 |
| \\      /  F ield         | OpenFOAM: The Open Source CFD Toolbox           |
|  \\    /   O peration     | Version:  2306                                  |
|   \\  /    A nd           | Website:  www.openfoam.com                      |
|    \\/     M anipulation  |                                                 |
\*---------------------------------------------------------------------------*/
FoamFile
{
    version     2.0;
    format      ascii;
    arch        "LSB;label=32;scalar=64";
    class       volScalarField;
    location    "0.045";
    object      ILambda_0_0;
}
// * * * * * * * * * * * * * * * * * * * * * * * * * * * * * * * * * * * * * //

dimensions      [1 0 -3 0 0 0 0];

internalField   nonuniform List<scalar> 
100
(
109.778
116.292
114.514
114.563
114.603
114.605
114.604
114.603
114.603
114.603
303.929
353.023
344.076
342.452
342.483
342.529
342.539
342.539
342.539
342.539
471.571
593.705
577.531
572.26
572.098
572.173
572.184
572.188
572.19
572.19
612.79
826.905
806.833
796.613
796.129
796.266
796.261
796.26
796.263
796.264
728.545
1045.86
1026.92
1010.07
1008.89
1009.26
1009.27
1009.25
1009.25
1009.25
823.629
1255.53
1244.81
1218.96
1215.99
1216.73
1216.89
1216.86
1216.85
1216.85
902.67
1460.62
1468.13
1431.34
1424.64
1425.7
1426.16
1426.16
1426.13
1426.12
969.04
1665.63
1706.38
1658.97
1646.13
1646.97
1647.88
1647.96
1647.92
1647.91
1018.45
1839.16
1915.96
1858.48
1838.25
1838.51
1839.99
1840.22
1840.18
1840.15
1081.11
2123.21
2302.4
2243.7
2208.54
2204.89
2206.75
2207.35
2207.36
2207.32
)
;

boundaryField
{
    fixedWall_Bottom
    {
        type            greyDiffusiveRadiation;
        refValue        uniform 0;
        refGradient     uniform 0;
        valueFraction   uniform 1;
        source          uniform 0;
        value           uniform 0;
    }
    fixedWall_Right
    {
        type            greyDiffusiveRadiation;
        refValue        uniform 0;
        refGradient     uniform 0;
        valueFraction   uniform 0;
        source          uniform 0;
        value           nonuniform List<scalar> 10(114.603 342.539 572.19 796.264 1009.25 1216.85 1426.12 1647.91 1840.15 2207.32);
    }
    fixedWall_Left
    {
        type            greyDiffusiveRadiation;
        refValue        uniform 0;
        refGradient     uniform 0;
        valueFraction   uniform 1;
        source          uniform 0;
        value           uniform 0;
    }
    fixedWall_Top
    {
        type            greyDiffusiveRadiation;
        refValue        uniform 0;
        refGradient     uniform 0;
        valueFraction   uniform 0;
        source          uniform 0;
        value           nonuniform List<scalar> 10(1081.11 2123.21 2302.4 2243.7 2208.54 2204.89 2206.75 2207.35 2207.36 2207.32);
    }
    frontAndBack
    {
        type            empty;
    }
}


// ************************************************************************* //
