/*--------------------------------*- C++ -*----------------------------------*\
| =========                 |                                                 |
| \\      /  F ield         | OpenFOAM: The Open Source CFD Toolbox           |
|  \\    /   O peration     | Version:  2306                                  |
|   \\  /    A nd           | Website:  www.openfoam.com                      |
|    \\/     M anipulation  |                                                 |
\*---------------------------------------------------------------------------*/
FoamFile
{
    version     2.0;
    format      ascii;
    arch        "LSB;label=32;scalar=64";
    class       volScalarField;
    location    "0.045";
    object      ILambda_23_0;
}
// * * * * * * * * * * * * * * * * * * * * * * * * * * * * * * * * * * * * * //

dimensions      [1 0 -3 0 0 0 0];

internalField   nonuniform List<scalar> 
100
(
2207.32
1840.15
1647.91
1426.12
1216.85
1009.25
796.264
572.19
342.539
114.603
2207.36
1840.18
1647.92
1426.13
1216.85
1009.25
796.263
572.19
342.539
114.603
2207.35
1840.22
1647.96
1426.16
1216.86
1009.25
796.26
572.188
342.539
114.603
2206.75
1839.99
1647.88
1426.16
1216.89
1009.27
796.261
572.184
342.539
114.604
2204.89
1838.51
1646.97
1425.7
1216.73
1009.26
796.266
572.173
342.529
114.605
2208.54
1838.25
1646.13
1424.64
1215.99
1008.89
796.129
572.098
342.483
114.603
2243.7
1858.48
1658.97
1431.34
1218.96
1010.07
796.613
572.26
342.452
114.563
2302.4
1915.96
1706.38
1468.13
1244.81
1026.92
806.833
577.531
344.076
114.514
2123.21
1839.16
1665.63
1460.62
1255.53
1045.86
826.905
593.705
353.023
116.292
1081.11
1018.45
969.04
902.67
823.629
728.545
612.79
471.571
303.929
109.778
)
;

boundaryField
{
    fixedWall_Bottom
    {
        type            greyDiffusiveRadiation;
        refValue        uniform 0;
        refGradient     uniform 0;
        valueFraction   uniform 0;
        source          uniform 0;
        value           nonuniform List<scalar> 10(2207.32 1840.15 1647.91 1426.12 1216.85 1009.25 796.264 572.19 342.539 114.603);
    }
    fixedWall_Right
    {
        type            greyDiffusiveRadiation;
        refValue        uniform 0;
        refGradient     uniform 0;
        valueFraction   uniform 1;
        source          uniform 0;
        value           uniform 0;
    }
    fixedWall_Left
    {
        type            greyDiffusiveRadiation;
        refValue        uniform 0;
        refGradient     uniform 0;
        valueFraction   uniform 0;
        source          uniform 0;
        value           nonuniform List<scalar> 10(2207.32 2207.36 2207.35 2206.75 2204.89 2208.54 2243.7 2302.4 2123.21 1081.11);
    }
    fixedWall_Top
    {
        type            greyDiffusiveRadiation;
        refValue        uniform 0;
        refGradient     uniform 0;
        valueFraction   uniform 1;
        source          uniform 0;
        value           uniform 0;
    }
    frontAndBack
    {
        type            empty;
    }
}


// ************************************************************************* //
