/*--------------------------------*- C++ -*----------------------------------*\
| =========                 |                                                 |
| \\      /  F ield         | OpenFOAM: The Open Source CFD Toolbox           |
|  \\    /   O peration     | Version:  2306                                  |
|   \\  /    A nd           | Website:  www.openfoam.com                      |
|    \\/     M anipulation  |                                                 |
\*---------------------------------------------------------------------------*/
FoamFile
{
    version     2.0;
    format      ascii;
    arch        "LSB;label=32;scalar=64";
    class       volScalarField;
    location    "0.045";
    object      qr;
}
// * * * * * * * * * * * * * * * * * * * * * * * * * * * * * * * * * * * * * //

dimensions      [1 0 -3 0 0 0 0];

internalField   uniform 0;

boundaryField
{
    fixedWall_Bottom
    {
        type            calculated;
        value           nonuniform List<scalar> 10(4599.54 5319.8 5758.49 6011.7 6141.38 6141.37 6011.67 5758.49 5319.83 4599.57);
    }
    fixedWall_Right
    {
        type            calculated;
        value           nonuniform List<scalar> 10(4599.57 5319.83 5758.49 6011.67 6141.37 6141.38 6011.7 5758.49 5319.8 4599.54);
    }
    fixedWall_Left
    {
        type            calculated;
        value           nonuniform List<scalar> 10(4599.54 5319.8 5758.49 6011.7 6141.38 6141.37 6011.67 5758.49 5319.83 4599.57);
    }
    fixedWall_Top
    {
        type            calculated;
        value           nonuniform List<scalar> 10(4599.57 5319.83 5758.49 6011.67 6141.37 6141.38 6011.7 5758.49 5319.8 4599.54);
    }
    frontAndBack
    {
        type            empty;
    }
}


// ************************************************************************* //
