/*--------------------------------*- C++ -*----------------------------------*\
| =========                 |                                                 |
| \\      /  F ield         | OpenFOAM: The Open Source CFD Toolbox           |
|  \\    /   O peration     | Version:  2112                                  |
|   \\  /    A nd           | Website:  www.openfoam.com                      |
|    \\/     M anipulation  |                                                 |
\*---------------------------------------------------------------------------*/
FoamFile
{
    version     2.0;
    format      ascii;
    arch        "LSB;label=32;scalar=64";
    class       volScalarField;
    location    "0.03";
    object      G;
}
// * * * * * * * * * * * * * * * * * * * * * * * * * * * * * * * * * * * * * //

dimensions      [1 0 -3 0 0 0 0];

internalField   nonuniform List<scalar> 
900
(
84929.7
101668
106529
108383
109373
110016
110469
110799
111045
111230
111369
111472
111544
111590
111612
111612
111590
111544
111472
111369
111230
111045
110799
110468
110016
109373
108383
106529
101668
84929.6
66620.8
83277.3
92319.6
97149.4
99962.6
101771
103022
103925
104594
105095
105468
105742
105935
106058
106117
106117
106058
105935
105742
105468
105095
104594
103925
103022
101771
99962.7
97149.5
92319.7
83277.4
66620.9
60107.9
72522.1
81555.3
87580.5
91582.9
94332
96297.7
97748.1
98839.5
99667.2
100292
100755
101082
101292
101394
101394
101292
101082
100755
100292
99667.4
98839.7
97748.4
96298
94332.3
91583.2
87580.9
81555.7
72522.4
60108.3
57101
66451.4
74249.4
80239.8
84667.2
87925.1
90351.4
92184.7
93584.1
94655.2
95468.9
96073.7
96502.4
96777.1
96911.2
96911.2
96777.1
96502.4
96073.7
95468.9
94655.1
93583.9
92184.4
90350.9
87924.5
84666.6
80239.2
74248.8
66450.9
57100.4
54958.6
62360.7
68907.3
74377.9
78748.8
82164.1
84818.2
86882
88488.2
89734.5
90690.6
91406.3
91916.4
92244.4
92404.9
92404.8
92244.2
91916.2
91406
90690.2
89734
88487.7
86881.4
84817.6
82163.4
78747.8
74376.8
68906.3
62359.7
54957.7
52946.1
59075.1
64632.1
69512.1
73630.2
77007.9
79738.8
81928
83671.4
85047.5
86117.1
86925.6
87505.9
87880.9
88064.9
88064.9
87880.9
87505.9
86925.6
86117.3
85047.8
83671.9
81928.8
79740
77009.4
73631.6
69513.2
64633.1
59076.2
52947.2
51074.1
56322.6
61124.5
65468.5
69271.9
72504.4
75202.7
77423.9
79230.4
80679.6
81820.1
82690.1
83318.8
83726.9
83927.8
83927.9
83727.3
83319.3
82690.8
81821
80680.7
79231.6
77425.4
75204.7
72507
69274.8
65471.2
61127
56325.2
51076.7
49351.1
53943.4
58150.6
62026.5
65506.3
68539.5
71134.7
73318.7
75128.6
76603.1
77777.8
78682.7
79341.3
79771.1
79983.2
79983.3
79771.2
79341.5
78682.8
77777.8
76602.9
75128
73317.8
71133.6
68538.8
65506.2
62026.3
58150.3
53943.1
49350.8
47686.7
51766.6
55494.7
58969.2
62147.4
64969.3
67430.9
69541.4
71319.8
72789.6
73974.8
74896.5
75572.5
76015.7
76235.1
76234.8
76015.1
75571.4
74895
73972.8
72787.3
71316.8
69537.3
67425.8
64964
62142.7
58964.8
55490.2
51762
47682.2
46020.2
49695.3
53035.8
56171.5
59083.3
61704.7
64026.2
66047.3
67774.5
69220.1
70398.2
71322.4
72004.6
72454.1
72677
72676.7
72453.1
72003.2
71320.7
70396.4
69218.5
67772.8
66044.6
64022
61699.7
59078.8
56167.6
53031.8
49691.2
46016.2
44343
47695.9
50720.1
53569.6
56249.6
58687.8
60872.5
62798
64462.8
65871
67029.2
67944.9
68624.8
69074.7
69298.6
69298.7
69075
68625.3
67945.9
67031.1
65874.1
64467
62801.8
60874.8
58689.1
56251.2
53571.8
50722.2
47697.8
44345
42660.2
45751.8
48514.8
51119.9
53598.7
55872.4
57928.2
59758.5
61356.3
62720
63850.7
64750.6
65422.5
65869.1
66092.1
66092.9
65871.2
65425.8
64754.9
63856.3
62727.6
61365.9
59768.5
57936.9
55879.9
53606.5
51128.4
48523.1
45759.9
42668.3
40971.8
43848.1
46393.7
48789
51093.5
53221.8
55159.7
56899.5
58430.6
59747.1
60846
61725.7
62385.5
62825.6
63046
63047
62828.2
62389.1
61729.5
60850.4
59753.5
58439.6
56909.6
55168.7
53229.5
51101.5
48797.7
46402.2
43856.3
40980
39274.4
41972
44336.8
46551
48705.1
50706.2
52537.9
54193.7
55660.5
56929.2
57993.9
58850.1
59494.5
59925.3
60141.3
60141.7
59926.1
59494.3
58847.9
57990.7
56927.4
55661.7
54196.6
52539.8
50706.9
48706.1
46552.6
44338.2
41973.1
39275.7
37564.8
40113.1
42327.6
44384.9
46408.8
48298.8
50034.9
51613
53018.4
54239.5
55268.4
56098.6
56725.1
57144.4
57354.6
57354
57142
56719
56087.9
55254.7
54226.5
53008.6
51604.9
50025.9
48288.7
46399
44375.8
42318.2
40103.6
37555.5
35840.6
38263.2
40352.8
42272.7
44182.4
45975.1
47624.7
49130.5
50477.3
51651.3
52643.4
53445.9
54052.6
54459.3
54663.2
54662.1
54454.9
54042.5
53428.9
52621.9
51630
50459.1
49113.9
47607
45956.3
44164.1
42254.9
40334.8
38245.2
35822.8
34101.9
36417.3
38403.1
40201
42009.3
43715.8
45286.4
46724.3
48014.8
49142.3
50097.1
50870.9
51457.1
51850.8
52048.6
52048
51847.2
51447.3
50853.5
50074.8
49120.1
47995.3
46706
45266.7
43695.1
41989
40181.2
38383
36397.3
34082.2
32352.3
34574.7
36474.2
38162.7
39878.8
41508.2
43005.8
44379.1
45615.2
46696.9
47614
48358.6
48923.9
49304.8
49497.2
49498
49304.9
48919.3
48347.2
47598.4
46681.7
45602.4
44367
42992.1
41493.5
39864.6
38148.7
36460
34560.6
32338.6
30599.3
32739.2
34566.8
36155.8
37786.3
39345.4
40774.9
42085.9
43268.7
44305.1
45184.4
45899.5
46443.8
46811.7
46998.9
47001.4
46816.8
46446.8
45898
45180.5
44302.4
43268.4
42085.8
40773.4
39343.1
37784.4
36154
34564.8
32737.2
30597.8
28852.8
30917.4
32684.9
34182.5
35731.4
37225.2
38590.4
39840.4
40970.5
41961.7
42802.9
43487.8
44010.4
44364.9
44546.4
44550.4
44374.5
44020.9
43496.7
42811.7
41972.9
40984.2
39854.3
38603.2
37237.6
35744.2
34195.5
32697.8
30930.3
28866.1
27123.6
29117.4
30834
32246.8
33716
35147.8
36451.6
37641.3
38718.2
39663.8
40466.2
41119.9
41619.6
41959.7
42134.5
42139.3
41972.1
41635.4
41136.9
40485.4
39686.5
38743.5
37666.9
36476.6
35172.9
33741.9
32272.9
30860.2
29143.7
27150.3
25422
27347.1
29019.6
30353.2
31743.4
33114.4
34358.8
35488.2
36511
37410
38172.4
38793.5
39269
39593.1
39759.9
39764.8
39606.2
39287.2
38815.2
38197.9
37439.6
36542.9
35520.4
34390.8
33147
31776.9
30387.4
29054.1
27381.8
25457.4
23756.8
25613.2
27246.4
28505.8
29816.2
31126.4
32312.6
33381.3
34348.5
35199.4
35920.6
36507.7
36957.4
37264.2
37422
37426.3
37276.2
36975.4
36530.6
35948.2
35230.8
34381.4
33414.1
32345.1
31159.6
29850.5
28540.9
27282.2
25649.6
23794
22135.5
23921.6
25517.9
26707.4
27936.9
29184.8
30313.2
31320.8
32230.6
33032.1
33711
34263.1
34685.9
34974.2
35122.1
35125.5
34984.1
34701.8
34284.7
33737.5
33061.4
32260.1
31348.8
30340.2
29212
27964.9
26736.2
25547.6
23952.1
22167.1
20563.6
22276.7
23836.8
24960.3
26107.6
27290.8
28361.3
29307.7
30158.8
30909.6
31545.8
32062.3
32457.4
32726.6
32864.1
32866.5
32734
32470.5
32081.2
31569.1
30934.5
30182
29327.7
28378.7
27307
26123.7
24976.9
23854.2
22294.9
20583.2
19044.4
20680.8
22203.4
23264.6
24328.5
25444
26456.3
27341.7
28133.6
28833.1
29426.4
29907.5
30274.7
30524.3
30651.4
30652.8
30529.4
30284.8
29923.1
29445.9
28852.9
28149.8
27352.5
26462.4
25446.8
24329.7
23265.2
22204.4
20682.5
19047.5
17587.8
19144.3
20627.6
21630.1
22610.8
23656.1
24610.2
25436.1
26169.4
26818
27369.1
27815.3
28155.1
28385.4
28502.1
28502.8
28388.5
28162.5
27827.9
27385
26833
26179.3
25438.6
24605.6
23645.7
22596.5
21613.7
20610.5
19127.4
17571.9
16159.2
17628.2
19065.3
20010.2
20906.2
21876.7
22770.6
23537.1
24211.8
24809.1
25317.8
25729.4
26041.7
26252.7
26359.1
26359.2
26254.3
26047
25739.4
25330.7
24820.5
24217.2
23533.6
22757.7
21855.5
20878.7
19978.5
19031.3
17593.4
16124.7
14957.3
16353.1
17753.8
18653.7
19478.2
20384.1
21227.9
21945.8
22571.4
23125.1
23598
23980.4
24269.4
24463.8
24561.5
24561.3
24464.4
24273.1
23988.2
23608.3
23133.5
22573.3
21937.8
21208.8
20354.4
19439.6
18608.7
17704.8
16302
14905.4
13003.6
14247.8
15552.3
16369.3
17072.1
17857.9
18606.9
19240.8
19784.7
20264.7
20676.4
21009.4
21259.9
21427.1
21510.6
21510.1
21426.7
21261.8
21015.1
20684.6
20272
19786.6
19233.4
18587.8
17826.7
17029.6
16317.5
15493.7
14184.7
12937.5
)
;

boundaryField
{
    fixedWall_Bottom
    {
        type            calculated;
        value           uniform 113408;
    }
    fixedWall_Right
    {
        type            calculated;
        value           nonuniform List<scalar> 
30
(
56577.6
55044.9
53419.6
52297.7
51179.5
49850.3
48474.4
47124.9
45752.3
44325.8
42852.9
41343.6
39798.9
38219.4
36608.9
34973.6
33320.1
31655
29985.4
28318.5
26662
25023.3
23409.8
21828.6
20286.7
18789.2
17348.3
15933.1
14739.3
12809.5
)
;
    }
    fixedWall_Left
    {
        type            calculated;
        value           nonuniform List<scalar> 
30
(
56577.6
55044.8
53419.2
52298.3
51180.5
49849.1
48471.9
47125.2
45756.8
44329.8
42850.9
41335.5
39790.6
38218.1
36618.3
34991.4
33339.9
31668.8
29987
28305.2
26635.3
24988
23372.7
21797
20267
18786.1
17364.1
15967.5
14791.2
12875.7
)
;
    }
    fixedWall_Top
    {
        type            calculated;
        value           nonuniform List<scalar> 
30
(
13003.6
14247.8
15552.3
16369.3
17072.1
17857.9
18606.9
19240.8
19784.7
20264.7
20676.4
21009.4
21259.9
21427.1
21510.6
21510.1
21426.7
21261.8
21015.1
20684.6
20272
19786.6
19233.4
18587.8
17826.7
17029.6
16317.5
15493.7
14184.7
12937.5
)
;
    }
    frontAndBack
    {
        type            empty;
    }
}


// ************************************************************************* //
