/*--------------------------------*- C++ -*----------------------------------*\
| =========                 |                                                 |
| \\      /  F ield         | OpenFOAM: The Open Source CFD Toolbox           |
|  \\    /   O peration     | Version:  2112                                  |
|   \\  /    A nd           | Website:  www.openfoam.com                      |
|    \\/     M anipulation  |                                                 |
\*---------------------------------------------------------------------------*/
FoamFile
{
    version     2.0;
    format      ascii;
    arch        "LSB;label=32;scalar=64";
    class       volScalarField;
    location    "0.03";
    object      qr;
}
// * * * * * * * * * * * * * * * * * * * * * * * * * * * * * * * * * * * * * //

dimensions      [1 0 -3 0 0 0 0];

internalField   uniform 0;

boundaryField
{
    fixedWall_Bottom
    {
        type            calculated;
        value           uniform -56704.1;
    }
    fixedWall_Right
    {
        type            calculated;
        value           nonuniform List<scalar> 
30
(
28246.1
27026.1
25743.3
24836.2
23920.8
22847.8
21739.3
20647.3
19541.4
18406.6
17254.7
16099.9
14951.4
13817.7
12708.2
11632.3
10598
9611.89
8679.06
7803.15
6986.47
6230.07
5533.9
4896.96
4317.49
3793.02
3321.48
2894.51
2541.39
2065.93
)
;
    }
    fixedWall_Left
    {
        type            calculated;
        value           nonuniform List<scalar> 
30
(
28246.1
27025.9
25743.3
24836.8
23920.9
22846.4
21738.6
20649.2
19544.3
18406.6
17250.7
16094.9
14949.9
13822.2
12717.7
11643.1
10605.6
9612.66
8671.57
7788.33
6967.12
6210.02
5517.09
4886.72
4316.09
3801.44
3339.54
2920.93
2574.81
2102.98
)
;
    }
    fixedWall_Top
    {
        type            calculated;
        value           nonuniform List<scalar> 
30
(
8267.52
9186.65
10133
10731.5
11239.7
11793.1
12314.6
12753.5
13125.4
13448.4
13722.1
13942
14106.9
14217
14272.4
14272.6
14218.2
14109.6
13946.2
13726.4
13450.3
13122
12742.5
12295.2
11765.4
11204.6
10690.5
10087.7
9138.59
8217.5
)
;
    }
    frontAndBack
    {
        type            empty;
    }
}


// ************************************************************************* //
