/*--------------------------------*- C++ -*----------------------------------*\
| =========                 |                                                 |
| \\      /  F ield         | OpenFOAM: The Open Source CFD Toolbox           |
|  \\    /   O peration     | Version:  2306                                  |
|   \\  /    A nd           | Website:  www.openfoam.com                      |
|    \\/     M anipulation  |                                                 |
\*---------------------------------------------------------------------------*/
FoamFile
{
    version     2.0;
    format      ascii;
    arch        "LSB;label=32;scalar=64";
    class       volScalarField;
    location    "5";
    object      Keff;
}
// * * * * * * * * * * * * * * * * * * * * * * * * * * * * * * * * * * * * * //

dimensions      [1 1 -3 -1 0 0 0];

internalField   nonuniform List<scalar> 
32768
(
67.2037
67.2017
67.1976
67.1914
67.1831
67.1726
67.1601
67.1455
67.1287
67.1098
67.0887
67.0655
67.0401
67.0124
66.9825
66.9504
66.916
66.8793
66.8403
66.7989
66.7552
66.7091
66.6606
66.6097
66.5563
66.5006
66.4424
66.3817
66.3186
66.253
66.185
66.1146
66.0417
65.9664
65.8888
65.8089
65.7266
65.6421
65.5554
65.4666
65.3756
65.2827
65.1879
65.0912
64.9928
64.8928
64.7912
64.6881
64.5838
64.4783
64.3717
64.2641
64.1557
64.0467
63.937
63.827
63.7167
63.6063
63.4958
63.3855
63.2754
63.1657
63.0565
62.948
62.8402
62.7332
62.6273
62.5225
62.4188
62.3165
62.2155
62.116
62.0181
61.9219
61.8274
61.7348
61.644
61.5552
61.4684
61.3837
61.3012
61.221
61.143
61.0674
60.9943
60.9236
60.8555
60.79
60.7272
60.6671
60.6099
60.5555
60.504
60.4556
60.4102
60.368
60.3289
60.2932
60.2607
60.2317
60.2061
60.184
60.1654
60.1505
60.1393
60.1317
60.1279
60.1279
60.1317
60.1394
60.1509
60.1663
60.1856
60.2088
60.2359
60.2669
60.3017
60.3403
60.3828
60.429
60.4789
60.5324
60.5896
60.6503
60.7145
60.782
60.8528
60.9267
61.0038
61.0838
61.1667
61.2523
61.3406
61.4313
61.5244
61.6197
61.717
61.8163
61.9173
62.02
62.1241
62.2295
62.3362
62.4438
62.5522
62.6614
62.7711
62.8811
62.9914
63.1018
63.2121
63.3223
63.432
63.5414
63.6501
63.758
63.8651
63.9713
64.0763
64.1802
64.2828
64.384
64.4838
64.582
64.6787
64.7736
64.8668
64.9581
65.0476
65.1352
65.2209
65.3045
65.3861
65.4656
65.5429
65.618
65.6909
65.7615
65.8298
65.8956
65.959
66.0198
66.0781
66.1338
66.1868
66.2373
66.285
66.3302
66.3728
66.4129
66.4505
66.4858
66.5189
66.55
66.579
66.6063
66.6319
66.6559
66.6786
66.7
66.7202
66.7394
66.7577
66.7751
66.7917
66.8077
66.8229
66.8376
66.8518
66.8654
66.8786
66.8913
66.9036
66.9154
66.9269
66.9379
66.9486
66.959
66.969
66.9786
66.988
66.997
67.0057
67.0142
67.0223
67.0301
67.0377
67.0451
67.0521
67.059
67.0656
67.0719
67.0781
67.084
67.0898
67.0953
67.1007
67.1059
67.1109
67.1157
67.1204
67.125
67.1294
67.1337
67.1378
67.1418
67.1458
67.1496
67.1533
67.1569
67.1604
67.1639
67.1672
67.1708
67.1733
67.1785
67.2037
67.2017
67.1976
67.1914
67.1831
67.1726
67.1601
67.1455
67.1287
67.1098
67.0888
67.0656
67.0401
67.0125
66.9826
66.9505
66.9161
66.8794
66.8404
66.799
66.7553
66.7092
66.6607
66.6097
66.5564
66.5006
66.4424
66.3817
66.3185
66.2529
66.1849
66.1144
66.0415
65.9661
65.8884
65.8084
65.7261
65.6415
65.5547
65.4657
65.3747
65.2817
65.1867
65.0899
64.9914
64.8912
64.7895
64.6863
64.5818
64.4761
64.3694
64.2617
64.1531
64.0439
63.9342
63.824
63.7135
63.6029
63.4923
63.3818
63.2716
63.1618
63.0525
62.9438
62.8359
62.7289
62.6228
62.5179
62.4141
62.3117
62.2106
62.1111
62.0131
61.9168
61.8223
61.7295
61.6387
61.5498
61.463
61.3783
61.2957
61.2154
61.1374
61.0618
60.9885
60.9178
60.8497
60.7841
60.7212
60.6611
60.6038
60.5494
60.4979
60.4494
60.404
60.3617
60.3226
60.2868
60.2543
60.2252
60.1995
60.1774
60.1588
60.1438
60.1325
60.125
60.1211
60.1211
60.1249
60.1325
60.144
60.1594
60.1787
60.2019
60.229
60.26
60.2948
60.3335
60.376
60.4222
60.4722
60.5258
60.5831
60.6438
60.708
60.7756
60.8465
60.9206
60.9978
61.0779
61.1609
61.2466
61.335
61.4259
61.5191
61.6145
61.712
61.8114
61.9126
62.0154
62.1197
62.2253
62.3321
62.4399
62.5485
62.6578
62.7677
62.8779
62.9884
63.0989
63.2094
63.3197
63.4297
63.5391
63.648
63.7561
63.8634
63.9697
64.0749
64.1789
64.2816
64.383
64.4828
64.5812
64.6779
64.7729
64.8662
64.9577
65.0473
65.1349
65.2206
65.3043
65.386
65.4655
65.5429
65.6181
65.691
65.7616
65.8299
65.8958
65.9592
66.0201
66.0784
66.1341
66.1872
66.2376
66.2854
66.3306
66.3732
66.4133
66.451
66.4863
66.5194
66.5504
66.5795
66.6068
66.6324
66.6564
66.6791
66.7004
66.7207
66.7399
66.7581
66.7755
66.7922
66.8081
66.8234
66.8381
66.8522
66.8658
66.879
66.8917
66.9039
66.9158
66.9272
66.9383
66.949
66.9593
66.9693
66.979
66.9883
66.9973
67.006
67.0144
67.0226
67.0304
67.038
67.0453
67.0524
67.0592
67.0658
67.0722
67.0783
67.0842
67.09
67.0955
67.1009
67.106
67.1111
67.1159
67.1206
67.1251
67.1295
67.1338
67.1379
67.142
67.1459
67.1497
67.1534
67.157
67.1605
67.164
67.1673
67.1709
67.1734
67.1786
67.2037
67.2017
67.1976
67.1914
67.1831
67.1727
67.1602
67.1456
67.1288
67.1099
67.0889
67.0657
67.0403
67.0126
66.9828
66.9506
66.9163
66.8796
66.8405
66.7992
66.7554
66.7093
66.6608
66.6099
66.5565
66.5007
66.4424
66.3816
66.3184
66.2527
66.1846
66.114
66.041
65.9655
65.8877
65.8075
65.725
65.6402
65.5533
65.4641
65.3729
65.2796
65.1844
65.0874
64.9886
64.8881
64.7861
64.6826
64.5779
64.4719
64.3648
64.2568
64.1479
64.0384
63.9284
63.8179
63.7071
63.5962
63.4853
63.3746
63.2641
63.154
63.0444
62.9355
62.8274
62.7201
62.6139
62.5087
62.4048
62.3021
62.2009
62.1012
62.0031
61.9066
61.8119
61.7191
61.6281
61.5391
61.4522
61.3673
61.2847
61.2043
61.1262
61.0504
60.9771
60.9063
60.838
60.7724
60.7094
60.6492
60.5917
60.5372
60.4856
60.437
60.3914
60.349
60.3099
60.2739
60.2413
60.2121
60.1864
60.1641
60.1455
60.1304
60.1191
60.1114
60.1075
60.1074
60.1112
60.1188
60.1303
60.1457
60.165
60.1882
60.2153
60.2463
60.2812
60.3199
60.3624
60.4088
60.4588
60.5126
60.5699
60.6308
60.6952
60.763
60.834
60.9083
60.9857
61.066
61.1493
61.2353
61.3239
61.415
61.5085
61.6042
61.702
61.8017
61.9032
62.0063
62.1109
62.2169
62.324
62.4321
62.5411
62.6507
62.7609
62.8715
62.9823
63.0932
63.204
63.3146
63.4249
63.5347
63.6439
63.7523
63.8598
63.9664
64.0719
64.1762
64.2792
64.3808
64.4809
64.5795
64.6764
64.7716
64.8651
64.9568
65.0465
65.1343
65.2202
65.304
65.3858
65.4654
65.5429
65.6182
65.6912
65.7619
65.8303
65.8962
65.9597
66.0206
66.079
66.1348
66.1879
66.2384
66.2862
66.3314
66.374
66.4142
66.4519
66.4872
66.5204
66.5514
66.5805
66.6077
66.6333
66.6574
66.68
66.7014
66.7216
66.7408
66.759
66.7764
66.7931
66.809
66.8242
66.8389
66.8531
66.8667
66.8798
66.8925
66.9047
66.9165
66.928
66.939
66.9497
66.96
66.97
66.9796
66.9889
66.9979
67.0066
67.015
67.0231
67.031
67.0385
67.0458
67.0529
67.0597
67.0662
67.0726
67.0787
67.0846
67.0904
67.0959
67.1012
67.1064
67.1114
67.1162
67.1209
67.1254
67.1298
67.134
67.1382
67.1422
67.1461
67.1499
67.1536
67.1572
67.1607
67.1642
67.1674
67.171
67.1735
67.1786
67.2037
67.2017
67.1976
67.1914
67.1831
67.1727
67.1602
67.1456
67.1289
67.11
67.089
67.0658
67.0404
67.0128
66.983
66.9509
66.9165
66.8798
66.8408
66.7995
66.7557
66.7096
66.661
66.6101
66.5566
66.5008
66.4424
66.3816
66.3183
66.2525
66.1842
66.1134
66.0403
65.9646
65.8866
65.8062
65.7234
65.6384
65.5511
65.4617
65.3701
65.2765
65.181
65.0835
64.9843
64.8835
64.781
64.6771
64.5719
64.4655
64.358
64.2495
64.1402
64.0302
63.9197
63.8087
63.6975
63.5862
63.4749
63.3637
63.2528
63.1423
63.0324
62.9231
62.8146
62.707
62.6004
62.4949
62.3907
62.2878
62.1864
62.0864
61.988
61.8914
61.7965
61.7034
61.6122
61.5231
61.436
61.351
61.2681
61.1876
61.1093
61.0334
60.9599
60.8889
60.8205
60.7547
60.6916
60.6312
60.5736
60.5189
60.4671
60.4184
60.3727
60.3301
60.2908
60.2547
60.2219
60.1926
60.1667
60.1443
60.1255
60.1103
60.0988
60.0911
60.0871
60.0869
60.0906
60.0982
60.1096
60.125
60.1443
60.1675
60.1946
60.2257
60.2606
60.2994
60.3421
60.3886
60.4388
60.4927
60.5502
60.6114
60.676
60.744
60.8153
60.8899
60.9675
61.0482
61.1318
61.2181
61.3071
61.3987
61.4925
61.5887
61.6869
61.7871
61.889
61.9927
62.0978
62.2042
62.3118
62.4204
62.5299
62.64
62.7508
62.8619
62.9732
63.0846
63.1959
63.307
63.4178
63.5281
63.6377
63.7466
63.8546
63.9616
64.0675
64.1722
64.2756
64.3776
64.478
64.5769
64.6742
64.7697
64.8635
64.9554
65.0454
65.1335
65.2195
65.3036
65.3855
65.4653
65.543
65.6184
65.6915
65.7624
65.8308
65.8969
65.9604
66.0215
66.0799
66.1357
66.1889
66.2395
66.2874
66.3326
66.3753
66.4155
66.4532
66.4886
66.5218
66.5528
66.5819
66.6092
66.6348
66.6588
66.6815
66.7028
66.723
66.7422
66.7604
66.7778
66.7944
66.8103
66.8255
66.8402
66.8543
66.8679
66.881
66.8937
66.9059
66.9177
66.9291
66.9401
66.9507
66.961
66.971
66.9806
66.9899
66.9988
67.0075
67.0159
67.024
67.0318
67.0393
67.0466
67.0536
67.0604
67.0669
67.0733
67.0794
67.0853
67.0909
67.0964
67.1018
67.1069
67.1119
67.1167
67.1213
67.1258
67.1302
67.1344
67.1385
67.1425
67.1464
67.1502
67.1538
67.1574
67.1609
67.1644
67.1676
67.1712
67.1737
67.1788
67.2037
67.2017
67.1976
67.1914
67.1832
67.1728
67.1603
67.1457
67.129
67.1102
67.0892
67.0661
67.0407
67.0131
66.9833
66.9512
66.9169
66.8802
66.8412
66.7998
66.7561
66.7099
66.6614
66.6104
66.5569
66.5009
66.4425
66.3815
66.3181
66.2521
66.1837
66.1128
66.0393
65.9635
65.8852
65.8044
65.7214
65.636
65.5483
65.4585
65.3665
65.2724
65.1764
65.0784
64.9787
64.8773
64.7743
64.6698
64.564
64.457
64.3488
64.2397
64.1298
64.0192
63.9081
63.7965
63.6847
63.5728
63.4609
63.3492
63.2377
63.1267
63.0162
62.9065
62.7975
62.6895
62.5825
62.4766
62.372
62.2687
62.1669
62.0666
61.968
61.871
61.7758
61.6825
61.5911
61.5017
61.4143
61.3291
61.2461
61.1653
61.0868
61.0107
60.937
60.8659
60.7972
60.7312
60.6679
60.6073
60.5495
60.4946
60.4426
60.3936
60.3477
60.3049
60.2653
60.229
60.1961
60.1665
60.1404
60.1178
60.0989
60.0835
60.0719
60.064
60.0599
60.0596
60.0632
60.0707
60.0821
60.0974
60.1167
60.1399
60.1671
60.1982
60.2332
60.2722
60.315
60.3616
60.412
60.4662
60.524
60.5854
60.6503
60.7186
60.7903
60.8652
60.9433
61.0244
61.1085
61.1953
61.2848
61.3769
61.4713
61.568
61.6668
61.7676
61.8702
61.9744
62.0802
62.1873
62.2955
62.4048
62.515
62.6258
62.7372
62.849
62.961
63.0731
63.1851
63.2969
63.4083
63.5192
63.6295
63.739
63.8476
63.9552
64.0617
64.1669
64.2708
64.3733
64.4742
64.5736
64.6713
64.7672
64.8614
64.9536
65.044
65.1323
65.2187
65.303
65.3852
65.4652
65.5431
65.6187
65.692
65.763
65.8316
65.8978
65.9614
66.0226
66.0811
66.1371
66.1904
66.241
66.289
66.3343
66.3771
66.4173
66.455
66.4905
66.5237
66.5547
66.5838
66.6111
66.6367
66.6608
66.6834
66.7047
66.7249
66.7441
66.7623
66.7796
66.7962
66.8121
66.8273
66.8419
66.856
66.8695
66.8826
66.8952
66.9074
66.9192
66.9305
66.9415
66.9521
66.9624
66.9723
66.9819
66.9911
67.0001
67.0087
67.017
67.0251
67.0329
67.0404
67.0476
67.0546
67.0613
67.0678
67.0741
67.0802
67.0861
67.0917
67.0972
67.1025
67.1076
67.1125
67.1173
67.1219
67.1264
67.1307
67.1349
67.139
67.143
67.1468
67.1506
67.1542
67.1578
67.1612
67.1647
67.1679
67.1714
67.1739
67.179
67.2037
67.2017
67.1977
67.1915
67.1832
67.1729
67.1604
67.1459
67.1292
67.1104
67.0895
67.0664
67.041
67.0135
66.9837
66.9517
66.9173
66.8807
66.8417
66.8003
66.7566
66.7104
66.6618
66.6108
66.5572
66.5012
66.4426
66.3815
66.3179
66.2518
66.1831
66.1119
66.0383
65.9621
65.8834
65.8023
65.7189
65.633
65.5449
65.4545
65.362
65.2674
65.1707
65.0721
64.9717
64.8696
64.7659
64.6607
64.5542
64.4464
64.3375
64.2276
64.1169
64.0055
63.8936
63.7813
63.6687
63.5561
63.4434
63.331
63.2189
63.1072
62.9961
62.8857
62.7761
62.6675
62.56
62.4536
62.3485
62.2448
62.1426
62.0419
61.9429
61.8455
61.75
61.6564
61.5647
61.475
61.3873
61.3018
61.2185
61.1375
61.0588
60.9824
60.9085
60.837
60.7682
60.7019
60.6383
60.5774
60.5194
60.4642
60.4119
60.3627
60.3165
60.2734
60.2336
60.197
60.1638
60.134
60.1076
60.0848
60.0656
60.05
60.0382
60.0301
60.0258
60.0254
60.0289
60.0363
60.0476
60.0629
60.0822
60.1054
60.1326
60.1638
60.199
60.2381
60.2811
60.3279
60.3786
60.433
60.4911
60.5528
60.6181
60.6869
60.759
60.8344
60.913
60.9947
61.0793
61.1668
61.2569
61.3496
61.4447
61.5421
61.6417
61.7432
61.8466
61.9516
62.0582
62.1661
62.2752
62.3853
62.4964
62.6081
62.7203
62.833
62.9458
63.0588
63.1716
63.2842
63.3965
63.5082
63.6192
63.7295
63.8389
63.9472
64.0544
64.1603
64.2649
64.368
64.4695
64.5694
64.6677
64.7641
64.8587
64.9515
65.0422
65.131
65.2177
65.3023
65.3848
65.4651
65.5432
65.6191
65.6926
65.7638
65.8326
65.8989
65.9627
66.024
66.0827
66.1388
66.1922
66.2429
66.291
66.3364
66.3792
66.4195
66.4573
66.4928
66.526
66.5571
66.5863
66.6136
66.6391
66.6632
66.6858
66.7071
66.7273
66.7464
66.7646
66.7819
66.7985
66.8143
66.8295
66.8441
66.8581
66.8716
66.8846
66.8972
66.9093
66.9211
66.9324
66.9433
66.9539
66.9641
66.974
66.9835
66.9927
67.0016
67.0102
67.0185
67.0265
67.0342
67.0417
67.0489
67.0558
67.0625
67.069
67.0752
67.0813
67.0871
67.0927
67.0981
67.1034
67.1084
67.1133
67.1181
67.1227
67.1271
67.1314
67.1356
67.1396
67.1435
67.1473
67.1511
67.1547
67.1582
67.1616
67.165
67.1682
67.1717
67.1742
67.1792
67.2037
67.2017
67.1977
67.1915
67.1833
67.1729
67.1605
67.1461
67.1294
67.1107
67.0898
67.0667
67.0415
67.014
66.9842
66.9522
66.9179
66.8813
66.8423
66.801
66.7572
66.7111
66.6624
66.6113
66.5577
66.5015
66.4428
66.3816
66.3178
66.2514
66.1825
66.1111
66.037
65.9605
65.8814
65.7999
65.7159
65.6296
65.5409
65.4499
65.3567
65.2613
65.164
65.0646
64.9634
64.8605
64.7559
64.6499
64.5424
64.4337
64.3238
64.213
64.1014
63.9891
63.8762
63.763
63.6495
63.536
63.4225
63.3092
63.1962
63.0837
62.9719
62.8607
62.7505
62.6412
62.533
62.4261
62.3204
62.2161
62.1134
62.0122
61.9127
61.815
61.7191
61.625
61.533
61.4429
61.3549
61.2691
61.1855
61.1042
61.0251
60.9485
60.8742
60.8025
60.7333
60.6667
60.6028
60.5417
60.4833
60.4278
60.3752
60.3256
60.2791
60.2357
60.1955
60.1586
60.1251
60.0949
60.0683
60.0452
60.0257
60.0099
59.9978
59.9895
59.985
59.9844
59.9877
59.995
60.0062
60.0215
60.0407
60.064
60.0913
60.1226
60.1579
60.1971
60.2403
60.2874
60.3384
60.3931
60.4516
60.5138
60.5795
60.6488
60.7214
60.7974
60.8767
60.959
61.0443
61.1325
61.2234
61.3168
61.4128
61.5111
61.6115
61.714
61.8183
61.9243
62.0318
62.1407
62.2508
62.362
62.474
62.5867
62.7
62.8137
62.9276
63.0416
63.1554
63.2691
63.3823
63.495
63.607
63.7182
63.8285
63.9377
64.0457
64.1524
64.2578
64.3616
64.4639
64.5645
64.6634
64.7605
64.8557
64.9489
65.0402
65.1294
65.2166
65.3016
65.3844
65.4651
65.5435
65.6196
65.6934
65.7648
65.8338
65.9003
65.9644
66.0258
66.0847
66.1409
66.1944
66.2452
66.2934
66.3389
66.3819
66.4222
66.4601
66.4956
66.5289
66.56
66.5892
66.6165
66.6421
66.6661
66.6887
66.71
66.7302
66.7492
66.7674
66.7847
66.8012
66.8169
66.8321
66.8466
66.8606
66.8741
66.8871
66.8996
66.9117
66.9233
66.9346
66.9455
66.956
66.9662
66.976
66.9855
66.9946
67.0034
67.012
67.0202
67.0282
67.0358
67.0432
67.0504
67.0573
67.0639
67.0703
67.0765
67.0825
67.0883
67.0939
67.0992
67.1044
67.1095
67.1143
67.119
67.1235
67.1279
67.1322
67.1363
67.1403
67.1442
67.148
67.1517
67.1552
67.1587
67.1621
67.1655
67.1686
67.1721
67.1745
67.1794
67.2037
67.2017
67.1977
67.1916
67.1833
67.1731
67.1607
67.1463
67.1297
67.111
67.0902
67.0672
67.042
67.0145
66.9849
66.9529
66.9187
66.8821
66.8431
66.8018
66.7581
66.7118
66.6632
66.612
66.5583
66.502
66.4432
66.3818
66.3178
66.2512
66.1819
66.1101
66.0357
65.9588
65.8792
65.7972
65.7126
65.6257
65.5363
65.4446
65.3506
65.2545
65.1562
65.056
64.9539
64.8499
64.7444
64.6372
64.5287
64.4189
64.308
64.1961
64.0833
63.9699
63.856
63.7416
63.6271
63.5125
63.398
63.2837
63.1697
63.0563
62.9436
62.8316
62.7205
62.6104
62.5015
62.3939
62.2875
62.1827
62.0793
61.9776
61.8776
61.7794
61.683
61.5885
61.496
61.4056
61.3172
61.231
61.147
61.0653
60.9859
60.9089
60.8344
60.7623
60.6927
60.6258
60.5615
60.5
60.4413
60.3854
60.3324
60.2824
60.2355
60.1917
60.1512
60.1139
60.0799
60.0494
60.0224
59.999
59.9791
59.963
59.9506
59.9421
59.9374
59.9366
59.9397
59.9468
59.958
59.9732
59.9924
60.0157
60.043
60.0744
60.1098
60.1493
60.1927
60.2401
60.2914
60.3466
60.4055
60.4681
60.5344
60.6042
60.6776
60.7542
60.8342
60.9172
61.0034
61.0924
61.1842
61.2786
61.3755
61.4748
61.5763
61.6798
61.7852
61.8923
62.001
62.111
62.2223
62.3347
62.4479
62.5619
62.6764
62.7913
62.9064
63.0215
63.1366
63.2514
63.3658
63.4796
63.5928
63.7051
63.8164
63.9266
64.0357
64.1434
64.2496
64.3544
64.4575
64.5589
64.6586
64.7563
64.8522
64.9461
65.0379
65.1277
65.2153
65.3008
65.3841
65.4651
65.5439
65.6203
65.6944
65.7661
65.8353
65.9021
65.9663
66.028
66.087
66.1433
66.197
66.248
66.2963
66.342
66.385
66.4254
66.4634
66.499
66.5323
66.5634
66.5926
66.6199
66.6455
66.6695
66.6921
66.7134
66.7335
66.7525
66.7706
66.7879
66.8043
66.82
66.8351
66.8496
66.8635
66.877
66.8899
66.9023
66.9144
66.926
66.9372
66.948
66.9585
66.9686
66.9783
66.9877
66.9968
67.0056
67.0141
67.0222
67.0301
67.0377
67.0451
67.0522
67.059
67.0656
67.0719
67.0781
67.084
67.0897
67.0952
67.1005
67.1057
67.1107
67.1155
67.1201
67.1246
67.1289
67.1331
67.1372
67.1412
67.145
67.1487
67.1523
67.1559
67.1593
67.1626
67.166
67.1691
67.1725
67.1749
67.1798
67.2037
67.2017
67.1977
67.1916
67.1834
67.1732
67.1609
67.1465
67.13
67.1114
67.0906
67.0677
67.0426
67.0152
66.9856
66.9538
66.9196
66.883
66.8441
66.8028
66.7591
66.7128
66.6641
66.6129
66.5591
66.5027
66.4437
66.3821
66.3178
66.251
66.1814
66.1092
66.0344
65.957
65.8769
65.7942
65.709
65.6213
65.5312
65.4387
65.3438
65.2467
65.1475
65.0462
64.943
64.838
64.7312
64.6229
64.5132
64.4021
64.2899
64.1767
64.0627
63.948
63.8328
63.7172
63.6014
63.4856
63.3699
63.2545
63.1394
63.025
62.9112
62.7982
62.6862
62.5752
62.4655
62.357
62.2499
62.1444
62.0403
61.938
61.8374
61.7386
61.6417
61.5467
61.4538
61.3629
61.2741
61.1875
61.1031
61.021
60.9413
60.8639
60.7889
60.7164
60.6465
60.5791
60.5145
60.4525
60.3933
60.337
60.2836
60.2332
60.1858
60.1416
60.1006
60.0628
60.0285
59.9975
59.9701
59.9462
59.926
59.9095
59.8968
59.8879
59.8829
59.8819
59.8848
59.8918
59.9028
59.9179
59.9371
59.9604
59.9878
60.0193
60.0549
60.0946
60.1383
60.186
60.2377
60.2933
60.3527
60.4159
60.4828
60.5533
60.6273
60.7048
60.7855
60.8695
60.9565
61.0465
61.1393
61.2348
61.3328
61.4333
61.5359
61.6407
61.7473
61.8557
61.9657
62.0771
62.1898
62.3035
62.4181
62.5335
62.6494
62.7657
62.8822
62.9987
63.1151
63.2313
63.347
63.4622
63.5766
63.6901
63.8027
63.9141
64.0243
64.1331
64.2404
64.3462
64.4503
64.5526
64.6531
64.7517
64.8484
64.943
65.0355
65.1259
65.2141
65.3001
65.3838
65.4653
65.5445
65.6213
65.6957
65.7677
65.8372
65.9042
65.9687
66.0305
66.0897
66.1463
66.2001
66.2513
66.2997
66.3455
66.3886
66.4291
66.4671
66.5028
66.5361
66.5673
66.5965
66.6238
66.6494
66.6734
66.696
66.7172
66.7373
66.7563
66.7743
66.7915
66.8079
66.8236
66.8386
66.853
66.8669
66.8803
66.8931
66.9055
66.9175
66.929
66.9401
66.9509
66.9613
66.9713
66.981
66.9903
66.9993
67.008
67.0164
67.0245
67.0324
67.0399
67.0472
67.0542
67.0609
67.0675
67.0738
67.0798
67.0857
67.0913
67.0968
67.102
67.1071
67.112
67.1168
67.1213
67.1258
67.13
67.1342
67.1382
67.1421
67.1459
67.1496
67.1531
67.1566
67.16
67.1633
67.1665
67.1696
67.173
67.1753
67.1801
67.2037
67.2017
67.1978
67.1917
67.1835
67.1734
67.1611
67.1468
67.1304
67.1119
67.0912
67.0683
67.0433
67.016
66.9865
66.9547
66.9206
66.8842
66.8453
66.804
66.7603
66.7141
66.6653
66.614
66.5601
66.5036
66.4444
66.3826
66.3181
66.2509
66.181
66.1084
66.0331
65.9551
65.8745
65.7911
65.7052
65.6167
65.5257
65.4322
65.3364
65.2382
65.1379
65.0354
64.931
64.8247
64.7166
64.6069
64.4958
64.3833
64.2697
64.155
64.0396
63.9234
63.8068
63.6898
63.5726
63.4554
63.3383
63.2216
63.1053
62.9896
62.8747
62.7606
62.6475
62.5356
62.4249
62.3155
62.2076
62.1012
61.9965
61.8934
61.7922
61.6928
61.5953
61.4998
61.4063
61.315
61.2257
61.1387
61.0538
60.9713
60.8911
60.8133
60.7379
60.665
60.5946
60.5268
60.4617
60.3992
60.3396
60.2828
60.2288
60.1779
60.13
60.0853
60.0438
60.0055
59.9706
59.9392
59.9113
59.887
59.8663
59.8494
59.8363
59.827
59.8217
59.8204
59.8231
59.8298
59.8407
59.8557
59.8748
59.8982
59.9256
59.9573
59.9931
60.033
60.077
60.1251
60.1772
60.2333
60.2933
60.3571
60.4246
60.4959
60.5707
60.649
60.7307
60.8157
60.9037
60.9948
61.0888
61.1855
61.2848
61.3865
61.4905
61.5966
61.7047
61.8145
61.926
62.0389
62.1531
62.2684
62.3846
62.5015
62.619
62.7369
62.8549
62.9731
63.091
63.2087
63.326
63.4426
63.5585
63.6735
63.7874
63.9002
64.0116
64.1217
64.2302
64.3371
64.4423
64.5457
64.6472
64.7467
64.8442
64.9396
65.0329
65.124
65.2128
65.2994
65.3837
65.4657
65.5453
65.6225
65.6973
65.7696
65.8394
65.9067
65.9714
66.0335
66.0929
66.1497
66.2037
66.255
66.3036
66.3495
66.3927
66.4333
66.4714
66.5071
66.5405
66.5718
66.601
66.6283
66.6538
66.6778
66.7003
66.7216
66.7416
66.7605
66.7785
66.7957
66.812
66.8276
66.8426
66.8569
66.8707
66.884
66.8968
66.9091
66.921
66.9324
66.9435
66.9542
66.9645
66.9744
66.984
66.9933
67.0022
67.0108
67.0191
67.0271
67.0349
67.0423
67.0495
67.0565
67.0631
67.0696
67.0758
67.0818
67.0876
67.0931
67.0985
67.1037
67.1087
67.1135
67.1182
67.1227
67.1271
67.1313
67.1354
67.1393
67.1432
67.1469
67.1505
67.154
67.1574
67.1608
67.164
67.1672
67.1702
67.1735
67.1758
67.1805
67.2037
67.2018
67.1978
67.1918
67.1837
67.1736
67.1614
67.1472
67.1308
67.1124
67.0918
67.0691
67.0442
67.017
66.9876
66.9559
66.9219
66.8855
66.8467
66.8055
66.7618
66.7156
66.6668
66.6154
66.5614
66.5048
66.4455
66.3834
66.3186
66.2511
66.1808
66.1078
66.0319
65.9534
65.872
65.788
65.7012
65.6118
65.5199
65.4254
65.3284
65.2291
65.1274
65.0237
64.9178
64.8101
64.7005
64.5893
64.4766
64.3625
64.2473
64.131
64.0139
63.8961
63.7778
63.6592
63.5405
63.4217
63.3032
63.185
63.0673
62.9503
62.834
62.7187
62.6045
62.4914
62.3797
62.2693
62.1605
62.0533
61.9477
61.8439
61.742
61.6419
61.5438
61.4477
61.3537
61.2618
61.172
61.0845
60.9992
60.9162
60.8355
60.7572
60.6814
60.608
60.5371
60.4688
60.4032
60.3402
60.28
60.2227
60.1682
60.1167
60.0683
60.0229
59.9808
59.942
59.9065
59.8745
59.8461
59.8212
59.8
59.7826
59.7691
59.7594
59.7537
59.7521
59.7545
59.761
59.7717
59.7866
59.8057
59.829
59.8565
59.8883
59.9243
59.9645
60.0088
60.0573
60.1099
60.1665
60.2271
60.2916
60.3599
60.432
60.5077
60.587
60.6697
60.7557
60.845
60.9373
61.0325
61.1306
61.2312
61.3344
61.4399
61.5476
61.6572
61.7687
61.8819
61.9965
62.1124
62.2294
62.3473
62.466
62.5853
62.7049
62.8248
62.9446
63.0644
63.1838
63.3027
63.421
63.5385
63.6551
63.7706
63.8848
63.9977
64.1092
64.219
64.3272
64.4336
64.5382
64.6408
64.7413
64.8398
64.9361
65.0302
65.1221
65.2117
65.2989
65.3838
65.4663
65.5464
65.6241
65.6993
65.7719
65.8421
65.9097
65.9746
66.037
66.0966
66.1536
66.2078
66.2592
66.308
66.354
66.3973
66.4381
66.4762
66.512
66.5454
66.5767
66.6059
66.6332
66.6588
66.6827
66.7052
66.7264
66.7464
66.7653
66.7832
66.8003
66.8165
66.8321
66.8469
66.8612
66.8749
66.8881
66.9008
66.913
66.9248
66.9362
66.9472
66.9578
66.968
66.9778
66.9873
66.9965
67.0054
67.0139
67.0221
67.03
67.0377
67.045
67.0521
67.059
67.0656
67.0719
67.0781
67.084
67.0897
67.0952
67.1005
67.1056
67.1105
67.1152
67.1198
67.1243
67.1286
67.1327
67.1367
67.1406
67.1444
67.148
67.1516
67.155
67.1583
67.1616
67.1648
67.1679
67.1708
67.1741
67.1764
67.181
67.2037
67.2018
67.1978
67.1919
67.1838
67.1738
67.1617
67.1476
67.1313
67.113
67.0926
67.07
67.0452
67.0181
66.9889
66.9573
66.9234
66.8871
66.8484
66.8072
66.7636
66.7174
66.6686
66.6172
66.5631
66.5063
66.4468
66.3846
66.3195
66.2516
66.1809
66.1074
66.031
65.9517
65.8697
65.7848
65.6972
65.6068
65.5138
65.4181
65.3199
65.2193
65.1163
65.011
64.9036
64.7943
64.683
64.5701
64.4556
64.3398
64.2227
64.1046
63.9857
63.8661
63.746
63.6256
63.5051
63.3847
63.2645
63.1447
63.0254
62.9069
62.7892
62.6725
62.557
62.4427
62.3299
62.2184
62.1086
62.0004
61.894
61.7894
61.6867
61.5859
61.4872
61.3905
61.2959
61.2034
61.1131
61.025
60.9392
60.8557
60.7746
60.6958
60.6194
60.5455
60.4741
60.4053
60.3391
60.2756
60.2148
60.1568
60.1017
60.0496
60.0005
59.9546
59.9118
59.8723
59.8362
59.8036
59.7745
59.749
59.7273
59.7093
59.6952
59.6851
59.679
59.6769
59.679
59.6853
59.6958
59.7105
59.7295
59.7528
59.7804
59.8123
59.8485
59.889
59.9337
59.9827
60.0358
60.093
60.1542
60.2195
60.2886
60.3616
60.4383
60.5187
60.6025
60.6897
60.7802
60.8739
60.9705
61.0701
61.1723
61.277
61.3842
61.4936
61.605
61.7183
61.8332
61.9497
62.0675
62.1865
62.3064
62.427
62.5482
62.6698
62.7916
62.9135
63.0351
63.1564
63.2772
63.3974
63.5167
63.635
63.7522
63.8681
63.9827
64.0957
64.207
64.3166
64.4244
64.5302
64.634
64.7357
64.8352
64.9325
65.0275
65.1203
65.2106
65.2986
65.3841
65.4672
65.5479
65.626
65.7016
65.7747
65.8452
65.9131
65.9784
66.041
66.1009
66.158
66.2124
66.264
66.3129
66.3591
66.4025
66.4434
66.4816
66.5174
66.5509
66.5822
66.6114
66.6387
66.6642
66.6882
66.7106
66.7317
66.7517
66.7705
66.7883
66.8053
66.8215
66.837
66.8518
66.8659
66.8796
66.8927
66.9053
66.9174
66.9291
66.9404
66.9513
66.9618
66.9719
66.9816
66.991
67.0001
67.0088
67.0173
67.0254
67.0332
67.0408
67.048
67.055
67.0618
67.0683
67.0745
67.0806
67.0864
67.092
67.0974
67.1026
67.1076
67.1124
67.1171
67.1216
67.126
67.1302
67.1342
67.1382
67.142
67.1457
67.1492
67.1527
67.1561
67.1593
67.1625
67.1656
67.1687
67.1716
67.1747
67.177
67.1815
67.2037
67.2018
67.1979
67.192
67.184
67.174
67.162
67.148
67.1319
67.1137
67.0934
67.071
67.0463
67.0194
66.9903
66.9589
66.9251
66.889
66.8504
66.8093
66.7657
66.7196
66.6708
66.6193
66.5652
66.5083
66.4486
66.3861
66.3207
66.2525
66.1813
66.1073
66.0303
65.9504
65.8675
65.7818
65.6932
65.6017
65.5075
65.4106
65.311
65.2089
65.1044
64.9975
64.8884
64.7773
64.6642
64.5494
64.433
64.3152
64.1961
64.076
63.9551
63.8334
63.7114
63.589
63.4666
63.3442
63.2222
63.1006
62.9796
62.8594
62.7402
62.6221
62.5051
62.3896
62.2754
62.1629
62.0519
61.9428
61.8354
61.7299
61.6264
61.5249
61.4255
61.3281
61.2329
61.1398
61.049
60.9604
60.8741
60.79
60.7084
60.629
60.5521
60.4777
60.4057
60.3363
60.2695
60.2054
60.144
60.0853
60.0296
59.9767
59.9269
59.8802
59.8367
59.7965
59.7597
59.7263
59.6966
59.6704
59.648
59.6295
59.6148
59.6041
59.5975
59.5951
59.5968
59.6027
59.613
59.6275
59.6464
59.6697
59.6974
59.7294
59.7658
59.8066
59.8517
59.9011
59.9548
60.0126
60.0746
60.1407
60.2108
60.2847
60.3625
60.444
60.529
60.6176
60.7095
60.8046
60.9028
61.0039
61.1078
61.2143
61.3233
61.4345
61.5479
61.6631
61.7801
61.8987
62.0186
62.1396
62.2617
62.3845
62.5078
62.6316
62.7556
62.8795
63.0033
63.1267
63.2496
63.3718
63.4931
63.6134
63.7324
63.8502
63.9665
64.0812
64.1942
64.3053
64.4145
64.5218
64.6269
64.7298
64.8305
64.9289
65.025
65.1186
65.2098
65.2986
65.3848
65.4686
65.5498
65.6284
65.7045
65.778
65.8489
65.9171
65.9827
66.0456
66.1057
66.163
66.2176
66.2695
66.3185
66.3648
66.4083
66.4492
66.4876
66.5234
66.557
66.5882
66.6175
66.6447
66.6702
66.6941
66.7165
66.7376
66.7574
66.7762
66.794
66.8109
66.827
66.8423
66.857
66.8711
66.8846
66.8976
66.9101
66.9222
66.9338
66.945
66.9557
66.9661
66.9761
66.9857
66.995
67.004
67.0126
67.021
67.029
67.0367
67.0441
67.0513
67.0582
67.0648
67.0712
67.0774
67.0833
67.089
67.0945
67.0998
67.1049
67.1098
67.1146
67.1191
67.1236
67.1278
67.1319
67.1359
67.1397
67.1435
67.1471
67.1506
67.1539
67.1572
67.1604
67.1636
67.1666
67.1696
67.1724
67.1754
67.1776
67.182
67.2037
67.2018
67.1979
67.1921
67.1842
67.1743
67.1624
67.1485
67.1326
67.1145
67.0944
67.0721
67.0476
67.0209
66.992
66.9607
66.9271
66.8911
66.8527
66.8117
66.7683
66.7222
66.6734
66.622
66.5678
66.5107
66.4509
66.3882
66.3225
66.2539
66.1822
66.1076
66.03
65.9493
65.8657
65.779
65.6893
65.5967
65.5013
65.403
65.3019
65.1982
65.092
64.9833
64.8724
64.7593
64.6442
64.5273
64.4087
64.2887
64.1674
64.0451
63.9219
63.7981
63.6738
63.5493
63.4247
63.3003
63.1762
63.0527
62.9299
62.8079
62.687
62.5672
62.4488
62.3318
62.2163
62.1025
61.9905
61.8802
61.7719
61.6655
61.5612
61.4589
61.3587
61.2607
61.1648
61.0712
60.9797
60.8906
60.8037
60.7192
60.6369
60.5571
60.4796
60.4046
60.332
60.262
60.1946
60.1297
60.0676
60.0083
59.9518
59.8982
59.8476
59.8001
59.7558
59.7148
59.6771
59.643
59.6124
59.5855
59.5624
59.5431
59.5278
59.5165
59.5094
59.5064
59.5077
59.5133
59.5233
59.5376
59.5564
59.5797
59.6074
59.6396
59.6762
59.7173
59.7628
59.8127
59.867
59.9255
59.9883
60.0552
60.1263
60.2013
60.2802
60.3629
60.4493
60.5393
60.6327
60.7294
60.8293
60.9322
61.0379
61.1463
61.2572
61.3705
61.486
61.6034
61.7226
61.8434
61.9655
62.0889
62.2133
62.3384
62.4642
62.5903
62.7166
62.8429
62.969
63.0948
63.2199
63.3443
63.4678
63.5902
63.7113
63.831
63.9493
64.0658
64.1806
64.2934
64.4043
64.513
64.6196
64.7239
64.8258
64.9254
65.0225
65.1172
65.2093
65.2989
65.3859
65.4704
65.5522
65.6314
65.708
65.7819
65.8532
65.9218
65.9876
66.0508
66.1111
66.1687
66.2235
66.2755
66.3247
66.3711
66.4147
66.4557
66.4941
66.53
66.5636
66.5949
66.6241
66.6513
66.6768
66.7006
66.723
66.7439
66.7637
66.7824
66.8001
66.8169
66.8329
66.8482
66.8627
66.8767
66.8902
66.903
66.9154
66.9274
66.9388
66.9499
66.9606
66.9708
66.9807
66.9902
66.9994
67.0082
67.0168
67.025
67.0328
67.0404
67.0478
67.0548
67.0616
67.0681
67.0744
67.0804
67.0862
67.0918
67.0972
67.1024
67.1074
67.1122
67.1169
67.1213
67.1256
67.1298
67.1338
67.1377
67.1415
67.1451
67.1486
67.152
67.1553
67.1585
67.1616
67.1646
67.1676
67.1705
67.1732
67.1762
67.1783
67.1826
67.2037
67.2018
67.198
67.1922
67.1844
67.1746
67.1629
67.1491
67.1333
67.1155
67.0955
67.0734
67.0492
67.0227
66.9939
66.9629
66.9295
66.8937
66.8554
66.8146
66.7712
66.7252
66.6765
66.6251
66.5709
66.5138
66.4538
66.3908
66.3248
66.2558
66.1837
66.1085
66.0302
65.9488
65.8642
65.7765
65.6858
65.5919
65.4951
65.3953
65.2926
65.1872
65.0792
64.9685
64.8555
64.7403
64.623
64.5038
64.3829
64.2605
64.1368
64.012
63.8864
63.7601
63.6334
63.5065
63.3796
63.2529
63.1267
63.001
62.8762
62.7523
62.6295
62.508
62.388
62.2695
62.1526
62.0375
61.9242
61.8128
61.7035
61.5961
61.4909
61.3878
61.2869
61.1882
61.0917
60.9974
60.9054
60.8157
60.7283
60.6432
60.5604
60.48
60.402
60.3263
60.2532
60.1825
60.1143
60.0488
59.9859
59.9258
59.8685
59.814
59.7626
59.7142
59.669
59.6271
59.5886
59.5535
59.5221
59.4944
59.4704
59.4504
59.4343
59.4224
59.4146
59.4111
59.4119