/*--------------------------------*- C++ -*----------------------------------*\
| =========                 |                                                 |
| \\      /  F ield         | OpenFOAM: The Open Source CFD Toolbox           |
|  \\    /   O peration     | Version:  2306                                  |
|   \\  /    A nd           | Website:  www.openfoam.com                      |
|    \\/     M anipulation  |                                                 |
\*---------------------------------------------------------------------------*/
FoamFile
{
    version     2.0;
    format      ascii;
    arch        "LSB;label=32;scalar=64";
    class       volScalarField;
    location    "5";
    object      p;
}
// * * * * * * * * * * * * * * * * * * * * * * * * * * * * * * * * * * * * * //

dimensions      [0 2 -2 0 0 0 0];

internalField   nonuniform List<scalar> 
32768
(
0.263829
0.263695
0.263404
0.262944
0.262318
0.261527
0.260572
0.259449
0.258158
0.256696
0.255062
0.253254
0.251268
0.249102
0.246754
0.244221
0.2415
0.238586
0.235479
0.232172
0.228665
0.224952
0.221031
0.216897
0.212548
0.207981
0.203191
0.198176
0.192933
0.187459
0.181752
0.175809
0.169629
0.16321
0.156551
0.149652
0.142513
0.135133
0.127515
0.119658
0.111567
0.103244
0.0946921
0.085916
0.0769206
0.0677118
0.058296
0.0486804
0.0388729
0.0288821
0.0187171
0.00838791
-0.00209515
-0.0127211
-0.0234783
-0.0343551
-0.045339
-0.0564175
-0.0675776
-0.0788062
-0.0900901
-0.101416
-0.11277
-0.124139
-0.135511
-0.14687
-0.158206
-0.169503
-0.180751
-0.191937
-0.203048
-0.214073
-0.224999
-0.235817
-0.246514
-0.25708
-0.267505
-0.277778
-0.287889
-0.297829
-0.307587
-0.317154
-0.326522
-0.335679
-0.344619
-0.35333
-0.361805
-0.370033
-0.378007
-0.385717
-0.393154
-0.400309
-0.407173
-0.413738
-0.419995
-0.425934
-0.431549
-0.43683
-0.44177
-0.44636
-0.450594
-0.454465
-0.457966
-0.461091
-0.463835
-0.466193
-0.468162
-0.469737
-0.470916
-0.471698
-0.472081
-0.472065
-0.471652
-0.470843
-0.469641
-0.46805
-0.466074
-0.463719
-0.460992
-0.457899
-0.45445
-0.450654
-0.446521
-0.442061
-0.437287
-0.432211
-0.426845
-0.421205
-0.415304
-0.409156
-0.402778
-0.396184
-0.389392
-0.382416
-0.375273
-0.36798
-0.360553
-0.353009
-0.345364
-0.337635
-0.329837
-0.321986
-0.314099
-0.306189
-0.298273
-0.290363
-0.282473
-0.274618
-0.266808
-0.259057
-0.251375
-0.243774
-0.236262
-0.22885
-0.221545
-0.214356
-0.20729
-0.200352
-0.19355
-0.186888
-0.18037
-0.174
-0.167781
-0.161717
-0.155808
-0.150057
-0.144464
-0.139031
-0.133756
-0.12864
-0.123681
-0.118879
-0.114233
-0.10974
-0.105398
-0.101204
-0.0971573
-0.0932534
-0.0894896
-0.0858625
-0.0823686
-0.0790041
-0.0757654
-0.0726485
-0.0696493
-0.066764
-0.0639886
-0.0613191
-0.0587517
-0.0562826
-0.0539082
-0.051625
-0.0494296
-0.0473188
-0.0452896
-0.043339
-0.0414641
-0.0396624
-0.0379311
-0.036268
-0.0346705
-0.0331363
-0.0316633
-0.0302494
-0.0288923
-0.0275901
-0.0263408
-0.0251424
-0.0239932
-0.0228912
-0.0218347
-0.0208219
-0.0198512
-0.0189208
-0.0180292
-0.0171749
-0.0163563
-0.0155718
-0.0148202
-0.0140999
-0.0134097
-0.0127482
-0.0121141
-0.0115062
-0.0109233
-0.0103643
-0.009828
-0.00931333
-0.00881924
-0.00834472
-0.00788876
-0.00745042
-0.00702877
-0.00662292
-0.00623199
-0.00585514
-0.00549156
-0.00514045
-0.00480105
-0.0044726
-0.00415439
-0.0038457
-0.00354584
-0.00325415
-0.00296996
-0.00269265
-0.00242157
-0.00215615
-0.00189569
-0.0016398
-0.00138742
-0.00113916
-0.000891564
-0.000650968
-0.00039925
-0.000173095
0.263991
0.263857
0.263566
0.263107
0.262481
0.261691
0.260736
0.259615
0.258324
0.256864
0.255231
0.253423
0.251439
0.249274
0.246928
0.244396
0.241675
0.238764
0.235657
0.232352
0.228845
0.225133
0.221212
0.217079
0.21273
0.208163
0.203373
0.198357
0.193113
0.187637
0.181928
0.175983
0.1698
0.163378
0.156716
0.149812
0.142667
0.135282
0.127657
0.119794
0.111696
0.103365
0.0948039
0.0860186
0.0770134
0.0677942
0.0583676
0.0487407
0.0389214
0.0289185
0.0187411
0.00839915
-0.00209682
-0.0127358
-0.0235063
-0.0343962
-0.0453933
-0.0564848
-0.0676579
-0.0788992
-0.0901955
-0.101533
-0.112899
-0.12428
-0.135662
-0.147033
-0.158378
-0.169686
-0.180943
-0.192137
-0.203257
-0.214289
-0.225223
-0.236048
-0.246752
-0.257324
-0.267755
-0.278033
-0.28815
-0.298095
-0.307858
-0.31743
-0.326803
-0.335965
-0.344909
-0.353625
-0.362105
-0.370338
-0.378317
-0.386031
-0.393473
-0.400633
-0.407503
-0.414073
-0.420335
-0.42628
-0.431899
-0.437185
-0.44213
-0.446725
-0.450964
-0.454839
-0.458345
-0.461474
-0.464222
-0.466583
-0.468554
-0.470132
-0.471313
-0.472097
-0.472481
-0.472466
-0.472053
-0.471243
-0.47004
-0.468447
-0.466469
-0.464111
-0.46138
-0.458283
-0.45483
-0.451028
-0.446889
-0.442422
-0.437641
-0.432557
-0.427184
-0.421535
-0.415625
-0.409468
-0.40308
-0.396476
-0.389672
-0.382685
-0.375531
-0.368226
-0.360788
-0.353232
-0.345575
-0.337833
-0.330023
-0.322161
-0.314261
-0.306339
-0.29841
-0.290488
-0.282587
-0.27472
-0.266899
-0.259136
-0.251444
-0.243831
-0.236309
-0.228887
-0.221573
-0.214374
-0.207299
-0.200354
-0.193543
-0.186873
-0.180348
-0.173972
-0.167747
-0.161677
-0.155763
-0.150007
-0.14441
-0.138972
-0.133693
-0.128574
-0.123612
-0.118808
-0.114159
-0.109664
-0.10532
-0.101125
-0.0970769
-0.0931722
-0.0894078
-0.0857803
-0.0822862
-0.0789218
-0.0756833
-0.0725667
-0.0695682
-0.0666836
-0.063909
-0.0612405
-0.0586742
-0.0562064
-0.0538333
-0.0515515
-0.0493576
-0.0472484
-0.0452207
-0.0432717
-0.0413986
-0.0395985
-0.037869
-0.0362076
-0.0346119
-0.0330795
-0.0316083
-0.0301961
-0.0288407
-0.0275402
-0.0262926
-0.0250959
-0.0239483
-0.022848
-0.021793
-0.0207818
-0.0198126
-0.0188837
-0.0179936
-0.0171407
-0.0163234
-0.0155403
-0.01479
-0.014071
-0.013382
-0.0127217
-0.0120888
-0.011482
-0.0109003
-0.0103423
-0.00980706
-0.0092934
-0.00880029
-0.0083267
-0.00787167
-0.00743422
-0.00701343
-0.00660842
-0.0062183
-0.00584225
-0.00547943
-0.00512907
-0.0047904
-0.00446266
-0.00414513
-0.00383711
-0.00353791
-0.00324686
-0.0029633
-0.00268661
-0.00241613
-0.0021513
-0.00189142
-0.00163611
-0.00138429
-0.00113661
-0.000889478
-0.000649566
-0.000397933
-0.000173398
0.264316
0.264182
0.263892
0.263433
0.262808
0.262019
0.261066
0.259946
0.258658
0.257199
0.255568
0.253763
0.251781
0.249619
0.247275
0.244746
0.242028
0.239118
0.236014
0.232711
0.229206
0.225495
0.221576
0.217444
0.213096
0.208528
0.203737
0.19872
0.193473
0.187995
0.182282
0.176332
0.170144
0.163715
0.157045
0.150132
0.142978
0.135581
0.127944
0.120067
0.111954
0.103606
0.0950283
0.0862244
0.0771996
0.0679596
0.0585112
0.0488616
0.0390188
0.0289915
0.0187891
0.00842167
-0.00210025
-0.0127655
-0.0235624
-0.0344788
-0.0455023
-0.0566201
-0.067819
-0.0790859
-0.0904072
-0.10177
-0.113159
-0.124563
-0.135967
-0.147359
-0.158725
-0.170052
-0.181327
-0.192539
-0.203675
-0.214723
-0.225672
-0.236511
-0.247228
-0.257813
-0.268256
-0.278546
-0.288673
-0.298628
-0.308402
-0.317984
-0.327366
-0.336538
-0.345492
-0.354217
-0.362706
-0.370949
-0.378937
-0.386662
-0.394114
-0.401284
-0.408163
-0.414744
-0.421016
-0.426971
-0.432601
-0.437897
-0.442852
-0.447457
-0.451705
-0.45559
-0.459104
-0.462241
-0.464996
-0.467365
-0.469342
-0.470925
-0.47211
-0.472897
-0.473283
-0.47327
-0.472857
-0.472046
-0.470841
-0.469244
-0.467261
-0.464897
-0.462159
-0.459054
-0.455591
-0.451778
-0.447627
-0.443148
-0.438352
-0.433253
-0.427864
-0.422197
-0.416269
-0.410093
-0.403685
-0.39706
-0.390235
-0.383226
-0.376049
-0.368721
-0.361259
-0.353679
-0.345998
-0.338232
-0.330398
-0.32251
-0.314586
-0.306639
-0.298686
-0.29074
-0.282815
-0.274924
-0.26708
-0.259295
-0.251581
-0.243947
-0.236404
-0.228962
-0.221628
-0.214412
-0.207319
-0.200356
-0.19353
-0.186845
-0.180306
-0.173916
-0.167679
-0.161597
-0.155672
-0.149906
-0.1443
-0.138853
-0.133567
-0.128441
-0.123474
-0.118664
-0.11401
-0.109511
-0.105164
-0.100966
-0.0969159
-0.0930095
-0.0892438
-0.0856155
-0.0821211
-0.0787567
-0.0755187
-0.0724029
-0.0694055
-0.0665224
-0.0637496
-0.0610831
-0.058519
-0.0560536
-0.0536832
-0.0514042
-0.0492133
-0.0471072
-0.0450828
-0.0431371
-0.0412673
-0.0394707
-0.0377447
-0.0360868
-0.0344946
-0.0329657
-0.031498
-0.0300893
-0.0287374
-0.0274404
-0.0261961
-0.0250028
-0.0238585
-0.0227614
-0.0217096
-0.0207015
-0.0197353
-0.0188094
-0.0179223
-0.0170722
-0.0162577
-0.0154773
-0.0147296
-0.0140131
-0.0133266
-0.0126687
-0.0120382
-0.0114337
-0.0108541
-0.0102983
-0.00976514
-0.00925349
-0.00876233
-0.00829065
-0.00783745
-0.00740178
-0.00698273
-0.00657939
-0.00619091
-0.00581643
-0.00545516
-0.00510629
-0.00476907
-0.00444275
-0.0041266
-0.00381992
-0.00352204
-0.00323227
-0.00294997
-0.0026745
-0.00240523
-0.00214159
-0.00188287
-0.00162872
-0.00137803
-0.00113147
-0.000885435
-0.000646638
-0.000396114
-0.000172842
0.264802
0.264669
0.264379
0.263922
0.263298
0.262511
0.26156
0.260443
0.259157
0.257702
0.256074
0.254272
0.252294
0.250136
0.247796
0.24527
0.242556
0.23965
0.236549
0.23325
0.229748
0.22604
0.222122
0.217991
0.213644
0.209076
0.204284
0.199265
0.194015
0.188533
0.182814
0.176857
0.17066
0.164222
0.15754
0.150614
0.143444
0.136031
0.128375
0.120478
0.112342
0.10397
0.0953657
0.0865339
0.0774794
0.0682083
0.0587271
0.0490432
0.0391649
0.029101
0.018861
0.00845505
-0.00210596
-0.0128107
-0.0236474
-0.0346038
-0.0456671
-0.0568243
-0.0680623
-0.0793675
-0.0907265
-0.102125
-0.113551
-0.124989
-0.136427
-0.14785
-0.159246
-0.170603
-0.181906
-0.193144
-0.204305
-0.215377
-0.226348
-0.237207
-0.247944
-0.258548
-0.269009
-0.279316
-0.289459
-0.29943
-0.309219
-0.318816
-0.328212
-0.337398
-0.346366
-0.355106
-0.363609
-0.371866
-0.379869
-0.387608
-0.395075
-0.40226
-0.409155
-0.415751
-0.422039
-0.42801
-0.433655
-0.438967
-0.443937
-0.448557
-0.452819
-0.456717
-0.460244
-0.463394
-0.46616
-0.468539
-0.470525
-0.472116
-0.473308
-0.4741
-0.474489
-0.474478
-0.474065
-0.473253
-0.472044
-0.470442
-0.468452
-0.466079
-0.46333
-0.460213
-0.456735
-0.452906
-0.448737
-0.444238
-0.439422
-0.4343
-0.428885
-0.423193
-0.417237
-0.411033
-0.404594
-0.397939
-0.391081
-0.384039
-0.376828
-0.369466
-0.361968
-0.354352
-0.346635
-0.338832
-0.33096
-0.323036
-0.315074
-0.307091
-0.299101
-0.291119
-0.283158
-0.275231
-0.267353
-0.259534
-0.251786
-0.244121
-0.236547
-0.229074
-0.221712
-0.214467
-0.207348
-0.20036
-0.19351
-0.186802
-0.180241
-0.173831
-0.167575
-0.161476
-0.155535
-0.149754
-0.144134
-0.138675
-0.133378
-0.128242
-0.123265
-0.118447
-0.113787
-0.109282
-0.104929
-0.100728
-0.096674
-0.0927649
-0.0889974
-0.085368
-0.0818731
-0.0785089
-0.0752715
-0.072157
-0.0691613
-0.0662804
-0.0635102
-0.0608467
-0.0582861
-0.0558244
-0.0534579
-0.0511832
-0.0489968
-0.0468954
-0.0448758
-0.0429351
-0.0410704
-0.039279
-0.0375582
-0.0359056
-0.0343187
-0.0327951
-0.0313327
-0.0299292
-0.0285826
-0.0272907
-0.0260515
-0.0248632
-0.0237239
-0.0226316
-0.0215846
-0.0205812
-0.0196196
-0.0186982
-0.0178153
-0.0169695
-0.0161592
-0.0153828
-0.0146391
-0.0139265
-0.0132437
-0.0125894
-0.0119623
-0.0113613
-0.010785
-0.0102324
-0.00970235
-0.00919373
-0.0087055
-0.00823665
-0.00778621
-0.00735321
-0.00693675
-0.00653593
-0.00614988
-0.00577778
-0.00541881
-0.00507218
-0.00473713
-0.00441293
-0.00409885
-0.00379419
-0.00349827
-0.00321042
-0.00293
-0.00265638
-0.00238892
-0.00212705
-0.00187008
-0.00161765
-0.00136866
-0.00112378
-0.000879418
-0.000642268
-0.000393452
-0.000171745
0.26545
0.265317
0.265028
0.264572
0.263951
0.263167
0.262218
0.261104
0.259823
0.258371
0.256748
0.254952
0.252978
0.250825
0.24849
0.24597
0.243261
0.24036
0.237264
0.233969
0.230471
0.226766
0.222851
0.218722
0.214376
0.209808
0.205014
0.199993
0.194739
0.189251
0.183525
0.177559
0.171351
0.164899
0.158202
0.151258
0.144068
0.136632
0.128951
0.121027
0.112861
0.104456
0.0958173
0.0869481
0.0778539
0.0685409
0.0590157
0.0492859
0.03936
0.0292469
0.0189564
0.00849889
-0.00211457
-0.0128724
-0.0237625
-0.0347724
-0.045889
-0.0570992
-0.0683895
-0.0797462
-0.0911556
-0.102604
-0.114077
-0.125561
-0.137043
-0.148509
-0.159946
-0.171341
-0.182681
-0.193955
-0.205149
-0.216252
-0.227252
-0.23814
-0.248903
-0.259532
-0.270016
-0.280345
-0.29051
-0.300502
-0.310311
-0.319927
-0.329342
-0.338548
-0.347534
-0.356293
-0.364815
-0.373091
-0.381114
-0.388872
-0.396359
-0.403565
-0.41048
-0.417097
-0.423405
-0.429397
-0.435063
-0.440396
-0.445386
-0.450026
-0.454308
-0.458225
-0.461769
-0.464935
-0.467717
-0.47011
-0.472108
-0.47371
-0.47491
-0.475709
-0.476103
-0.476094
-0.475681
-0.474867
-0.473654
-0.472045
-0.470046
-0.467661
-0.464898
-0.461764
-0.458267
-0.454417
-0.450223
-0.445698
-0.440853
-0.4357
-0.430253
-0.424526
-0.418534
-0.412291
-0.405812
-0.399115
-0.392215
-0.385128
-0.377872
-0.370462
-0.362917
-0.355253
-0.347487
-0.339635
-0.331713
-0.323739
-0.315728
-0.307695
-0.299656
-0.291625
-0.283616
-0.275643
-0.267718
-0.259853
-0.252061
-0.244353
-0.236737
-0.229224
-0.221823
-0.214541
-0.207386
-0.200365
-0.193482
-0.186744
-0.180155
-0.173718
-0.167437
-0.161314
-0.155351
-0.149551
-0.143912
-0.138437
-0.133125
-0.127975
-0.122986
-0.118158
-0.113488
-0.108975
-0.104616
-0.100409
-0.0963505
-0.092438
-0.0886681
-0.0850372
-0.0815417
-0.0781777
-0.0749413
-0.0718285
-0.0688352
-0.0659573
-0.0631906
-0.0605312
-0.0579751
-0.0555184
-0.0531574
-0.0508884
-0.048708
-0.0466128
-0.0445997
-0.0426657
-0.0408079
-0.0390234
-0.0373096
-0.035664
-0.0340842
-0.0325677
-0.0311124
-0.0297159
-0.0283762
-0.0270912
-0.0258589
-0.0246773
-0.0235445
-0.0224587
-0.0214181
-0.0204209
-0.0194654
-0.01855
-0.0176729
-0.0168328
-0.016028
-0.0152571
-0.0145185
-0.013811
-0.0131332
-0.0124837
-0.0118614
-0.0112649
-0.010693
-0.0101447
-0.00961878
-0.00911418
-0.00862985
-0.00816479
-0.00771801
-0.00728858
-0.00687557
-0.00647809
-0.00609529
-0.00572635
-0.00537044
-0.00502679
-0.00469464
-0.00437326
-0.00406193
-0.00375995
-0.00346665
-0.00318136
-0.00290344
-0.00263227
-0.00236722
-0.00210771
-0.00185307
-0.00160293
-0.0013562
-0.00111355
-0.000871422
-0.00063645
-0.000389895
-0.000170245
0.266259
0.266127
0.265839
0.265385
0.264766
0.263985
0.26304
0.261931
0.260654
0.259208
0.257591
0.2558
0.253833
0.251687
0.249358
0.246845
0.244142
0.241248
0.238158
0.234868
0.231375
0.227675
0.223764
0.219638
0.215293
0.210725
0.20593
0.200905
0.195647
0.190152
0.184417
0.17844
0.172218
0.165749
0.159033
0.152067
0.144852
0.137388
0.129676
0.121716
0.113513
0.105068
0.0963846
0.0874684
0.0783243
0.0689584
0.0593779
0.0495903
0.0396043
0.0294293
0.0190751
0.00855259
-0.00212698
-0.0129517
-0.0239091
-0.0349864
-0.0461702
-0.0574471
-0.0688032
-0.0802247
-0.0916974
-0.103207
-0.11474
-0.126282
-0.13782
-0.14934
-0.160828
-0.172271
-0.183658
-0.194974
-0.20621
-0.217352
-0.228389
-0.239311
-0.250107
-0.260767
-0.27128
-0.281637
-0.291829
-0.301846
-0.311679
-0.32132
-0.330759
-0.339988
-0.348998
-0.35778
-0.366325
-0.374626
-0.382672
-0.390456
-0.397967
-0.405198
-0.41214
-0.418782
-0.425117
-0.431135
-0.436828
-0.442187
-0.447203
-0.451868
-0.456174
-0.460115
-0.463682
-0.466869
-0.46967
-0.472081
-0.474095
-0.47571
-0.476922
-0.477729
-0.47813
-0.478124
-0.477712
-0.476895
-0.475676
-0.474059
-0.472048
-0.469649
-0.466868
-0.463712
-0.460191
-0.456314
-0.452091
-0.447532
-0.442651
-0.43746
-0.431972
-0.426202
-0.420163
-0.413871
-0.407343
-0.400593
-0.393639
-0.386496
-0.379182
-0.371715
-0.36411
-0.356385
-0.348557
-0.340643
-0.33266
-0.324623
-0.316549
-0.308454
-0.300353
-0.292261
-0.284192
-0.276159
-0.268175
-0.260254
-0.252406
-0.244643
-0.236975
-0.229412
-0.221962
-0.214634
-0.207434
-0.20037
-0.193447
-0.18667
-0.180045
-0.173575
-0.167262
-0.16111
-0.15512
-0.149294
-0.143633
-0.138137
-0.132806
-0.127639
-0.122636
-0.117794
-0.113113
-0.10859
-0.104222
-0.100008
-0.0959446
-0.092028
-0.0882551
-0.0846225
-0.0811263
-0.0777626
-0.0745276
-0.071417
-0.0684267
-0.0655526
-0.0627904
-0.0601362
-0.0575859
-0.0551355
-0.0527812
-0.0505195
-0.0483466
-0.0462594
-0.0442545
-0.0423289
-0.0404796
-0.0387038
-0.0369988
-0.0353621
-0.0337911
-0.0322836
-0.030837
-0.0294494
-0.0281184
-0.026842
-0.0256182
-0.0244451
-0.0233206
-0.0222429
-0.0212102
-0.0202208
-0.019273
-0.018365
-0.0174952
-0.0166622
-0.0158643
-0.0151001
-0.0143682
-0.013667
-0.0129954
-0.012352
-0.0117355
-0.0111446
-0.0105783
-0.0100353
-0.00951456
-0.00901498
-0.00853552
-0.00807518
-0.00763298
-0.00720798
-0.00679927
-0.00640598
-0.00602723
-0.00566222
-0.00531014
-0.0049702
-0.00464167
-0.00432381
-0.0040159
-0.00371727
-0.00342723
-0.00314513
-0.00287033
-0.00260222
-0.00234016
-0.0020836
-0.00183186
-0.00158457
-0.00134067
-0.00110081
-0.000861455
-0.000629193
-0.00038546
-0.000168369
0.267228
0.267097
0.26681
0.266359
0.265743
0.264966
0.264026
0.262921
0.261651
0.260211
0.258601
0.256818
0.254858
0.25272
0.2504
0.247895
0.245201
0.242314
0.239232
0.235949
0.232463
0.228768
0.224862
0.220739
0.216396
0.211828
0.207032
0.202004
0.19674
0.191237
0.185492
0.179501
0.173263
0.166774
0.160035
0.153043
0.145798
0.1383
0.13055
0.122549
0.1143
0.105806
0.0970695
0.0880964
0.0788919
0.0694622
0.0598145
0.0499569
0.0398982
0.0296481
0.0192168
0.00861539
-0.00214433
-0.0130501
-0.0240891
-0.035248
-0.0465132
-0.0578709
-0.0693067
-0.0808064
-0.0923556
-0.10394
-0.115545
-0.127157
-0.138762
-0.150346
-0.161895
-0.173397
-0.184839
-0.196208
-0.207493
-0.218681
-0.229762
-0.240726
-0.25156
-0.262257
-0.272805
-0.283195
-0.293418
-0.303466
-0.313328
-0.322998
-0.332465
-0.341721
-0.350759
-0.359569
-0.368143
-0.376472
-0.384547
-0.39236
-0.399902
-0.407164
-0.414136
-0.42081
-0.427177
-0.433228
-0.438952
-0.444343
-0.449391
-0.454087
-0.458423
-0.462392
-0.465987
-0.4692
-0.472025
-0.474457
-0.476491
-0.478122
-0.479348
-0.480166
-0.480575
-0.480573
-0.480162
-0.479342
-0.478117
-0.47649
-0.474465
-0.472048
-0.469245
-0.466065
-0.462515
-0.458605
-0.454345
-0.449747
-0.444823
-0.439585
-0.434048
-0.428224
-0.42213
-0.41578
-0.409191
-0.402378
-0.395358
-0.388148
-0.380765
-0.373227
-0.36555
-0.357752
-0.34985
-0.341861
-0.333802
-0.32569
-0.317541
-0.309371
-0.301195
-0.293028
-0.284886
-0.276781
-0.268727
-0.260737
-0.252822
-0.244993
-0.237262
-0.229638
-0.222129
-0.214744
-0.20749
-0.200375
-0.193403
-0.18658
-0.179912
-0.1734
-0.16705
-0.160862
-0.15484
-0.148984
-0.143296
-0.137775
-0.132421
-0.127234
-0.122212
-0.117355
-0.11266
-0.108125
-0.103748
-0.0995257
-0.0954554
-0.0915339
-0.0877576
-0.0841229
-0.080626
-0.0772629
-0.0740296
-0.0709217
-0.0679352
-0.0650658
-0.0623092
-0.0596613
-0.057118
-0.0546753
-0.0523293
-0.0500763
-0.0479126
-0.0458349
-0.0438399
-0.0419244
-0.0400855
-0.0383202
-0.0366258
-0.0349998
-0.0334396
-0.0319427
-0.0305069
-0.0291298
-0.0278093
-0.0265433
-0.0253298
-0.0241667
-0.0230521
-0.0219842
-0.0209611
-0.0199811
-0.0190424
-0.0181434
-0.0172824
-0.0164579
-0.0156683
-0.0149122
-0.0141881
-0.0134946
-0.0128304
-0.0121942
-0.0115847
-0.0110007
-0.010441
-0.00990437
-0.00938983
-0.00889627
-0.00842265
-0.00796796
-0.00753124
-0.00711156
-0.006708
-0.00631971
-0.00594582
-0.00558551
-0.00523801
-0.00490252
-0.00457831
-0.00426466
-0.00396086
-0.00366622
-0.00338009
-0.0031018
-0.00283074
-0.00256628
-0.00230781
-0.00205477
-0.0018065
-0.00156263
-0.0013221
-0.00108557
-0.000849538
-0.000620514
-0.000380158
-0.000166124
0.268357
0.268226
0.267942
0.267493
0.266881
0.266108
0.265174
0.264076
0.262812
0.26138
0.259778
0.258004
0.256054
0.253926
0.251615
0.24912
0.246436
0.243559
0.240486
0.237212
0.233733
0.230046
0.226145
0.222027
0.217686
0.21312
0.208323
0.203291
0.198021
0.192509
0.186752
0.180746
0.174489
0.167978
0.161212
0.154189
0.146909
0.139371
0.131577
0.123528
0.115225
0.106673
0.0978743
0.0888343
0.0795586
0.0700536
0.0603269
0.0503866
0.0402421
0.0299032
0.0193808
0.00868635
-0.00216799
-0.0131694
-0.0243047
-0.03556
-0.0469213
-0.058374
-0.0699037
-0.0814956
-0.0931349
-0.104807
-0.116497
-0.128191
-0.139874
-0.151533
-0.163154
-0.174724
-0.186231
-0.197661
-0.209003
-0.220245
-0.231377
-0.242388
-0.253268
-0.264006
-0.274594
-0.285022
-0.295282
-0.305364
-0.31526
-0.324963
-0.334462
-0.343751
-0.352821
-0.361663
-0.37027
-0.378632
-0.386741
-0.394589
-0.402166
-0.409464
-0.416473
-0.423184
-0.429589
-0.435677
-0.44144
-0.446869
-0.451954
-0.456686
-0.461059
-0.465062
-0.46869
-0.471933
-0.474787
-0.477245
-0.479302
-0.480954
-0.482197
-0.483028
-0.483445
-0.483449
-0.483039
-0.482217
-0.480984
-0.479345
-0.477304
-0.474867
-0.472039
-0.468829
-0.465245
-0.461297
-0.456995
-0.45235
-0.447375
-0.442083
-0.436487
-0.430602
-0.424442
-0.418024
-0.411363
-0.404476
-0.397379
-0.39009
-0.382626
-0.375004
-0.367242
-0.359358
-0.351369
-0.343292
-0.335144
-0.326943
-0.318705
-0.310447
-0.302183
-0.293929
-0.285701
-0.277511
-0.269374
-0.261303
-0.253309
-0.245403
-0.237597
-0.229901
-0.222323
-0.214871
-0.207554
-0.200379
-0.19335
-0.186473
-0.179753
-0.173194
-0.166799
-0.160571
-0.15451
-0.148619
-0.142898
-0.137348
-0.131968
-0.126757
-0.121715
-0.116839
-0.112128
-0.10758
-0.103191
-0.0989593
-0.0948816
-0.0909545
-0.0871744
-0.0835376
-0.08004
-0.0766777
-0.0734465
-0.0703421
-0.0673601
-0.0644963
-0.0617464
-0.059106
-0.056571
-0.0541374
-0.0518012
-0.0495585
-0.0474057
-0.0453393
-0.0433559
-0.0414523
-0.0396255
-0.0378726
-0.0361907
-0.0345772
-0.0330296
-0.0315452
-0.0301219
-0.0287572
-0.0274491
-0.0261952
-0.0249937
-0.0238424
-0.0227395
-0.021683
-0.020671
-0.019702
-0.018774
-0.0178854
-0.0170346
-0.0162201
-0.0154402
-0.0146935
-0.0139786
-0.013294
-0.0126385
-0.0120107
-0.0114094
-0.0108333
-0.0102812
-0.00975211
-0.0092448
-0.00875824
-0.00829141
-0.0078433
-0.00741296
-0.00699947
-0.00660191
-0.00621943
-0.00585118
-0.00549636
-0.00515418
-0.00482386
-0.00450469
-0.00419593
-0.00389689
-0.00360691
-0.00332531
-0.00305146
-0.00278473
-0.00252452
-0.00227022
-0.00202127
-0.00177703
-0.00153713
-0.00130052
-0.00106786
-0.000835692
-0.00061043
-0.000373997
-0.000163513
0.269644
0.269514
0.269232
0.268786
0.268179
0.267411
0.266483
0.265393
0.264137
0.262715
0.261123
0.259359
0.25742
0.255303
0.253004
0.250521
0.247848
0.244983
0.241921
0.238657
0.235188
0.231509
0.227616
0.223503
0.219166
0.214601
0.209804
0.204769
0.199492
0.193971
0.1882
0.182177
0.175899
0.169362
0.162566
0.155508
0.148188
0.140605
0.132761
0.124655
0.116292
0.107672
0.0988018
0.0896846
0.0803266
0.0707345
0.0609162
0.0508803
0.0406363
0.0301947
0.0195667
0.00876436
-0.00219966
-0.013312
-0.0245588
-0.0359257
-0.0473981
-0.058961
-0.0705992
-0.0822975
-0.0940408
-0.105814
-0.117602
-0.12939
-0.141163
-0.152909
-0.164612
-0.17626
-0.187839
-0.199339
-0.210746
-0.22205
-0.233239
-0.244304
-0.255234
-0.26602
-0.276653
-0.287124
-0.297424
-0.307545
-0.31748
-0.327219
-0.336755
-0.34608
-0.355186
-0.364065
-0.372708
-0.381108
-0.389256
-0.397144
-0.404761
-0.412101
-0.419152
-0.425907
-0.432355
-0.438488
-0.444295
-0.449768
-0.454896
-0.459672
-0.464086
-0.46813
-0.471796
-0.475076
-0.477964
-0.480452
-0.482537
-0.484212
-0.485475
-0.486321
-0.486751
-0.486761
-0.486353
-0.485528
-0.484287
-0.482635
-0.480576
-0.478114
-0.475258
-0.472014
-0.468391
-0.464399
-0.460048
-0.45535
-0.450317
-0.444962
-0.439299
-0.433342
-0.427108
-0.420611
-0.413867
-0.406895
-0.399709
-0.392329
-0.384771
-0.377053
-0.369193
-0.361209
-0.353119
-0.344941
-0.336691
-0.328388
-0.320047
-0.311686
-0.303321
-0.294967
-0.286639
-0.278352
-0.270119
-0.261953
-0.253868
-0.245874
-0.237982
-0.230202
-0.222544
-0.215017
-0.207626
-0.200381
-0.193286
-0.186347
-0.179569
-0.172955
-0.166509
-0.160233
-0.154128
-0.148197
-0.142439
-0.136856
-0.131446
-0.126208
-0.121142
-0.116245
-0.111516
-0.106952
-0.10255
-0.0983078
-0.0942219
-0.0902886
-0.0865043
-0.0828652
-0.0793671
-0.076006
-0.0727774
-0.0696771
-0.0667006
-0.0638434
-0.0611012
-0.0584697
-0.0559445
-0.0535214
-0.0511965
-0.0489658
-0.0468256
-0.0447722
-0.0428023
-0.0409125
-0.0390997
-0.037361
-0.0356935
-0.0340944
-0.0325612
-0.0310913
-0.0296823
-0.0283319
-0.0270378
-0.0257979
-0.0246101
-0.0234724
-0.0223828
-0.0213393
-0.0203402
-0.0193837
-0.0184679
-0.0175913
-0.0167522
-0.015949
-0.0151802
-0.0144443
-0.0137399
-0.0130655
-0.0124199
-0.0118017
-0.0112097
-0.0106426
-0.0100994
-0.00957875
-0.00907968
-0.00860111
-0.00814202
-0.00770141
-0.00727835
-0.0068719
-0.00648117
-0.00610532
-0.0057435
-0.00539492
-0.00505879
-0.00473437
-0.00442092
-0.00411773
-0.00382412
-0.00353943
-0.00326299
-0.00299419
-0.0027324
-0.00247702
-0.00222746
-0.00198318
-0.00174352
-0.00150813
-0.00127599
-0.00104772
-0.000819944
-0.000598959
-0.000366989
-0.000160541
0.271089
0.27096
0.27068
0.270238
0.269635
0.268874
0.267954
0.266872
0.265626
0.264214
0.262633
0.260882
0.258955
0.256852
0.254567
0.252097
0.249438
0.246586
0.243537
0.240286
0.236829
0.23316
0.229275
0.225169
0.220838
0.216275
0.211478
0.20644
0.201157
0.195625
0.18984
0.183798
0.177497
0.170932
0.164102
0.157005
0.14964
0.142006
0.134104
0.125936
0.117503
0.108808
0.0998553
0.0906501
0.0811984
0.0715071
0.0615843
0.0514391
0.0410815
0.0305225
0.0197738
0.00884807
-0.00224132
-0.0134804
-0.0248546
-0.036349
-0.0479482
-0.0596366
-0.0713986
-0.0832181
-0.0950797
-0.106968
-0.118866
-0.130761
-0.142637
-0.15448
-0.166275
-0.178011
-0.189673
-0.20125
-0.21273
-0.224102
-0.235356
-0.24648
-0.257466
-0.268305
-0.278987
-0.289505
-0.29985
-0.310014
-0.31999
-0.32977
-0.339346
-0.348711
-0.357857
-0.366777
-0.375462
-0.383905
-0.392096
-0.400028
-0.407692
-0.415078
-0.422178
-0.428982
-0.435481
-0.441664
-0.447522
-0.453046
-0.458225
-0.46305
-0.467513
-0.471603
-0.475314
-0.478636
-0.481562
-0.484087
-0.486203
-0.487906
-0.489192
-0.490058
-0.4905
-0.490519
-0.490114
-0.489285
-0.488036
-0.48637
-0.48429
-0.481802
-0.478913
-0.475631
-0.471964
-0.467923
-0.463516
-0.458757
-0.453658
-0.448232
-0.442493
-0.436456
-0.430136
-0.423549
-0.416712
-0.409642
-0.402356
-0.394872
-0.387207
-0.37938
-0.371409
-0.363313
-0.355108
-0.346814
-0.338448
-0.330028
-0.32157
-0.313093
-0.304612
-0.296144
-0.287703
-0.279304
-0.270962
-0.26269
-0.254501
-0.246405
-0.238416
-0.230542
-0.222793
-0.215178
-0.207705
-0.200381
-0.193211
-0.186202
-0.179357
-0.172681
-0.166177
-0.159847
-0.153693
-0.147716
-0.141917
-0.136296
-0.130851
-0.125584
-0.12049
-0.11557
-0.110821
-0.106239
-0.101823
-0.0975696
-0.0934745
-0.0895346
-0.0857459
-0.0821045
-0.0786061
-0.0752465
-0.0720212
-0.0689258
-0.0659557
-0.0631063
-0.0603732
-0.0577518
-0.0552378
-0.0528269
-0.0505149
-0.0482979
-0.046172
-0.0441335
-0.0421788
-0.0403047
-0.0385079
-0.0367853
-0.0351341
-0.0335514
-0.0320345
-0.0305809
-0.0291882
-0.0278539
-0.0265758
-0.0253516
-0.0241794
-0.0230569
-0.0219823
-0.0209536
-0.0199689
-0.0190265
-0.0181245
-0.0172614
-0.0164354
-0.015645
-0.0148887
-0.0141649
-0.0134723
-0.0128094
-0.0121749
-0.0115675
-0.010986
-0.0104291
-0.00989563
-0.00938455
-0.00889473
-0.00842512
-0.00797471
-0.00754252
-0.00712761
-0.00672906
-0.006346
-0.00597757
-0.00562296
-0.00528137
-0.00495203
-0.0046342
-0.00432716
-0.00403022
-0.00374269
-0.00346391
-0.00319326
-0.0029301
-0.00267384
-0.00242387
-0.00217962
-0.00194055
-0.00170602
-0.00147568
-0.00124853
-0.00102519
-0.000802324
-0.000586125
-0.000359147
-0.000157214
0.272689
0.272562
0.272285
0.271847
0.27125
0.270496
0.269584
0.268512
0.267277
0.265877
0.264309
0.262572
0.26066
0.258572
0.256302
0.253848
0.251206
0.24837
0.245336
0.242099
0.238655
0.234999
0.231125
0.227028
0.222703
0.218144
0.213347
0.208307
0.203018
0.197475
0.191675
0.185614
0.179287
0.172691
0.165824
0.158684
0.151269
0.143579
0.135613
0.127374
0.118863
0.110083
0.101039
0.0917344
0.082177
0.0723737
0.062333
0.0520643
0.0415783
0.0308864
0.0200012
0.00893591
-0.0022953
-0.0136777
-0.025196
-0.0368344
-0.0485769
-0.060407
-0.0723084
-0.0842645
-0.0962591
-0.108276
-0.120299
-0.132313
-0.144304
-0.156255
-0.168154
-0.179987
-0.19174
-0.203403
-0.214964
-0.226411
-0.237734
-0.248924
-0.259971
-0.270867
-0.281603
-0.292172
-0.302565
-0.312776
-0.322797
-0.332621
-0.34224
-0.351649
-0.360839
-0.369803
-0.378534
-0.387024
-0.395264
-0.403245
-0.410961
-0.4184
-0.425555
-0.432414
-0.43897
-0.44521
-0.451127
-0.456708
-0.461945
-0.466827
-0.471345
-0.475489
-0.479251
-0.482621
-0.485593
-0.488158
-0.490312
-0.492047
-0.49336
-0.494247
-0.494706
-0.494734
-0.494333
-0.493502
-0.492244
-0.490561
-0.488459
-0.485942
-0.483017
-0.479693
-0.475977
-0.471879
-0.467411
-0.462584
-0.457411
-0.451905
-0.44608
-0.439953
-0.433537
-0.42685
-0.419908
-0.412729
-0.40533
-0.397729
-0.389944
-0.381995
-0.373899
-0.365675
-0.357342
-0.348917
-0.34042
-0.331869
-0.32328
-0.314672
-0.306061
-0.297464
-0.288896
-0.280372
-0.271907
-0.263515
-0.255208
-0.247
-0.2389
-0.23092
-0.223069
-0.215357
-0.20779
-0.200377
-0.193123
-0.186035
-0.179116
-0.17237
-0.165801
-0.159411
-0.153202
-0.147174
-0.141329
-0.135665
-0.130183
-0.124882
-0.119759
-0.114813
-0.110041
-0.105441
-0.101009
-0.0967427
-0.0926378
-0.0886907
-0.0848975
-0.0812539
-0.0777556
-0.074398
-0.0711768
-0.0680871
-0.0651245
-0.0622841
-0.0595613
-0.0569515
-0.0544503
-0.0520532
-0.0497559
-0.0475544
-0.0454447
-0.0434229
-0.0414855
-0.039629
-0.0378501
-0.0361456
-0.0345126
-0.0329482
-0.0314497
-0.0300143
-0.0286397
-0.0273234
-0.0260632
-0.0248566
-0.0237017
-0.0225963
-0.0215384
-0.0205261
-0.0195575
-0.0186307
-0.0177441
-0.016896
-0.0160846
-0.0153085
-0.014566
-0.0138557
-0.0131761
-0.012526
-0.0119038
-0.0113084
-0.0107385
-0.0101928
-0.0096703
-0.0091698
-0.00869023
-0.00823055
-0.00778976
-0.00736689
-0.006961
-0.0065712
-0.00619661
-0.0058364
-0.00548976
-0.0051559
-0.00483407
-0.00452354
-0.00422359
-0.00393354
-0.00365273
-0.0033805
-0.00311624
-0.00285932
-0.00260916
-0.00236517
-0.00212678
-0.00189347
-0.0016646
-0.00143985
-0.00121821
-0.0010003
-0.000782864
-0.00057195
-0.000350486
-0.000153537
0.274444
0.274318
0.274044
0.273611
0.273021
0.272275
0.271373
0.270311
0.269089
0.267703
0.26615
0.264428
0.262534
0.260463
0.258211
0.255776
0.253151
0.250333
0.247317
0.244098
0.24067
0.237028
0.233167
0.229081
0.224764
0.220211
0.215416
0.210374
0.205079
0.199526
0.193711
0.187628
0.181274
0.174645
0.167738
0.16055
0.153081
0.145328
0.137293
0.128975