/*--------------------------------*- C++ -*----------------------------------*\
| =========                 |                                                 |
| \\      /  F ield         | OpenFOAM: The Open Source CFD Toolbox           |
|  \\    /   O peration     | Version:  2306                                  |
|   \\  /    A nd           | Website:  www.openfoam.com                      |
|    \\/     M anipulation  |                                                 |
\*---------------------------------------------------------------------------*/
FoamFile
{
    version     2.0;
    format      ascii;
    arch        "LSB;label=32;scalar=64";
    class       surfaceScalarField;
    location    "5";
    object      phi;
}
// * * * * * * * * * * * * * * * * * * * * * * * * * * * * * * * * * * * * * //

dimensions      [0 3 -1 0 0 0 0];

oriented        oriented;

internalField   nonuniform List<scalar> 
65152
(
0.00625051
-5.06745e-07
0.00625203
-1.52204e-06
0.00625457
-2.53783e-06
0.00625812
-3.55526e-06
0.0062627
-4.576e-06
0.0062683
-5.60113e-06
0.00627493
-6.63137e-06
0.0062826
-7.66745e-06
0.00629131
-8.71016e-06
0.00630107
-9.7603e-06
0.00631189
-1.08186e-05
0.00632377
-1.18855e-05
0.00633673
-1.29618e-05
0.00635078
-1.40477e-05
0.00636593
-1.51437e-05
0.00638218
-1.62499e-05
0.00639954
-1.73665e-05
0.00641804
-1.84935e-05
0.00643767
-1.96308e-05
0.00645844
-2.0778e-05
0.00648038
-2.19348e-05
0.00650348
-2.31005e-05
0.00652775
-2.42744e-05
0.00655321
-2.54556e-05
0.00657985
-2.6643e-05
0.00660769
-2.78352e-05
0.00663672
-2.90309e-05
0.00666695
-3.02284e-05
0.00669837
-3.14258e-05
0.00673099
-3.26211e-05
0.00676481
-3.38122e-05
0.0067998
-3.49966e-05
0.00683597
-3.61717e-05
0.00687331
-3.7335e-05
0.00691179
-3.84835e-05
0.00695141
-3.96144e-05
0.00699213
-4.07244e-05
0.00703394
-4.18104e-05
0.00707681
-4.28693e-05
0.00712071
-4.38976e-05
0.0071656
-4.48922e-05
0.00721145
-4.58498e-05
0.00725822
-4.6767e-05
0.00730586
-4.76409e-05
0.00735433
-4.84682e-05
0.00740357
-4.9246e-05
0.00745354
-4.99717e-05
0.00750419
-5.06425e-05
0.00755544
-5.12563e-05
0.00760725
-5.18108e-05
0.00765956
-5.23041e-05
0.00771229
-5.27348e-05
0.00776539
-5.31014e-05
0.0078188
-5.3403e-05
0.00787244
-5.3639e-05
0.00792625
-5.38088e-05
0.00798016
-5.39125e-05
0.00803411
-5.39502e-05
0.00808803
-5.39224e-05
0.00814186
-5.38298e-05
0.00819553
-5.36735e-05
0.00824899
-5.34546e-05
0.00830216
-5.31745e-05
0.008355
-5.2835e-05
0.00840744
-5.24376e-05
0.00845942
-5.19842e-05
0.0085109
-5.14767e-05
0.00856181
-5.09172e-05
0.00861212
-5.03077e-05
0.00866177
-4.96501e-05
0.00871072
-4.89464e-05
0.00875892
-4.81986e-05
0.00880632
-4.74085e-05
0.0088529
-4.65778e-05
0.00889861
-4.57082e-05
0.00894341
-4.48012e-05
0.00898727
-4.38582e-05
0.00903015
-4.28802e-05
0.00907202
-4.18685e-05
0.00911284
-4.08238e-05
0.00915259
-3.97469e-05
0.00919123
-3.86383e-05
0.00922873
-3.74984e-05
0.00926505
-3.63276e-05
0.00930018
-3.5126e-05
0.00933407
-3.38936e-05
0.0093667
-3.26303e-05
0.00939804
-3.13361e-05
0.00942805
-3.00108e-05
0.0094567
-2.86541e-05
0.00948397
-2.72659e-05
0.00950982
-2.5846e-05
0.00953421
-2.43943e-05
0.00955712
-2.29106e-05
0.00957852
-2.1395e-05
0.00959836
-1.98477e-05
0.00961663
-1.82689e-05
0.00963329
-1.66589e-05
0.00964831
-1.50184e-05
0.00966166
-1.33482e-05
0.00967331
-1.16491e-05
0.00968323
-9.92228e-06
0.0096914
-8.16911e-06
0.00969779
-6.39112e-06
0.00970238
-4.59002e-06
0.00970515
-2.76776e-06
0.00970607
-9.26513e-07
0.00970514
9.3142e-07
0.00970234
2.80353e-06
0.00969765
4.68717e-06
0.00969107
6.5795e-06
0.0096826
8.47753e-06
0.00967222
1.03782e-05
0.00965994
1.22782e-05
0.00964576
1.41743e-05
0.0096297
1.60632e-05
0.00961176
1.79413e-05
0.00959196
1.98051e-05
0.0095703
2.16512e-05
0.00954683
2.34759e-05
0.00952155
2.52758e-05
0.00949451
2.70473e-05
0.00946572
2.87868e-05
0.00943523
3.0491e-05
0.00940307
3.21564e-05
0.00936929
3.37798e-05
0.00933393
3.53578e-05
0.00929705
3.68873e-05
0.00925868
3.83653e-05
0.00921889
3.97889e-05
0.00917774
4.11553e-05
0.00913527
4.24619e-05
0.00909157
4.37062e-05
0.00904668
4.48859e-05
0.00900068
4.59989e-05
0.00895364
4.70433e-05
0.00890562
4.80173e-05
0.0088567
4.89194e-05
0.00880696
4.97484e-05
0.00875645
5.05031e-05
0.00870527
5.11828e-05
0.00865348
5.17868e-05
0.00860117
5.23147e-05
0.0085484
5.27664e-05
0.00849526
5.31421e-05
0.00844182
5.34421e-05
0.00838815
5.36671e-05
0.00833433
5.38177e-05
0.00828044
5.38952e-05
0.00822654
5.39008e-05
0.0081727
5.38361e-05
0.008119
5.37026e-05
0.0080655
5.35024e-05
0.00801226
5.32375e-05
0.00795935
5.29101e-05
0.00790683
5.25227e-05
0.00785475
5.20776e-05
0.00780317
5.15777e-05
0.00775214
5.10256e-05
0.00770172
5.0424e-05
0.00765194
4.97759e-05
0.00760286
4.90841e-05
0.00755451
4.83515e-05
0.00750693
4.75809e-05
0.00746015
4.67751e-05
0.00741422
4.59367e-05
0.00736915
4.50683e-05
0.00732498
4.41721e-05
0.00728173
4.325e-05
0.00723942
4.23038e-05
0.00719809
4.13345e-05
0.00715774
4.03429e-05
0.00711842
3.93291e-05
0.00708012
3.82929e-05
0.00704289
3.72335e-05
0.00700674
3.61498e-05
0.0069717
3.50408e-05
0.00693779
3.39051e-05
0.00690505
3.27423e-05
0.0068735
3.1552e-05
0.00684316
3.03353e-05
0.00681407
2.90943e-05
0.00678624
2.78323e-05
0.00675968
2.65544e-05
0.00673442
2.52669e-05
0.00671044
2.39775e-05
0.00668774
2.26949e-05
0.00666631
2.14285e-05
0.00664613
2.01879e-05
0.00662714
1.89826e-05
0.00660932
1.78215e-05
0.00659261
1.67125e-05
0.00657695
1.56621e-05
0.00656227
1.46753e-05
0.00654852
1.37554e-05
0.00653561
1.29042e-05
0.00652349
1.21215e-05
0.00651209
1.1406e-05
0.00650133
1.0755e-05
0.00649117
1.01647e-05
0.00648154
9.63066e-06
0.00647239
9.14793e-06
0.00646368
8.71132e-06
0.00645536
8.31564e-06
0.0064474
7.95583e-06
0.00643978
7.62716e-06
0.00643245
7.32525e-06
0.00642541
7.0462e-06
0.00641862
6.78657e-06
0.00641208
6.54342e-06
0.00640576
6.31423e-06
0.00639966
6.09695e-06
0.00639377
5.88986e-06
0.00638808
5.69161e-06
0.00638258
5.50111e-06
0.00637726
5.31751e-06
0.00637212
5.14015e-06
0.00636716
4.96855e-06
0.00636235
4.80231e-06
0.00635771
4.64115e-06
0.00635323
4.48487e-06
0.00634889
4.3333e-06
0.00634471
4.18633e-06
0.00634066
4.04385e-06
0.00633676
3.9058e-06
0.00633299
3.77212e-06
0.00632934
3.64274e-06
0.00632583
3.51763e-06
0.00632243
3.39674e-06
0.00631915
3.28002e-06
0.00631598
3.16743e-06
0.00631292
3.05892e-06
0.00630997
2.95444e-06
0.00630711
2.85396e-06
0.00630436
2.75741e-06
0.00630169
2.66475e-06
0.00629912
2.57592e-06
0.00629663
2.49088e-06
0.00629422
2.40958e-06
0.00629188
2.33196e-06
0.00628963
2.25796e-06
0.00628744
2.18755e-06
0.00628532
2.12067e-06
0.00628326
2.05726e-06
0.00628126
1.99728e-06
0.00627932
1.94068e-06
0.00627744
1.88741e-06
0.0062756
1.83745e-06
0.00627381
1.7907e-06
0.00627206
1.74721e-06
0.00627035
1.70678e-06
0.00626868
1.66965e-06
0.00626705
1.63522e-06
0.00626544
1.60404e-06
0.00626387
1.57619e-06
1.54647e-06
0.00625051
-1.01399e-06
0.00625203
-3.04222e-06
0.00625456
-5.07276e-06
0.00625811
-7.10754e-06
0.00626269
-9.14866e-06
0.00626828
-1.11982e-05
0.00627491
-1.32578e-05
0.00628257
-1.53293e-05
0.00629128
-1.74142e-05
0.00630103
-1.95139e-05
0.00631184
-2.163e-05
0.00632372
-2.37636e-05
0.00633667
-2.59158e-05
0.00635071
-2.80875e-05
0.00636585
-3.02793e-05
0.00638209
-3.24918e-05
0.00639945
-3.47253e-05
0.00641794
-3.69796e-05
0.00643756
-3.92546e-05
0.00645833
-4.15497e-05
0.00648026
-4.3864e-05
0.00650336
-4.61963e-05
0.00652763
-4.85453e-05
0.00655308
-5.09089e-05
0.00657972
-5.32851e-05
0.00660756
-5.56713e-05
0.00663659
-5.80645e-05
0.00666683
-6.04615e-05
0.00669826
-6.28585e-05
0.00673089
-6.52515e-05
0.00676471
-6.76361e-05
0.00679972
-7.00076e-05
0.00683591
-7.23609e-05
0.00687327
-7.46904e-05
0.00691178
-7.69906e-05
0.00695142
-7.92555e-05
0.00699217
-8.14788e-05
0.00703401
-8.36543e-05
0.00707692
-8.57754e-05
0.00712086
-8.78356e-05
0.00716579
-8.98282e-05
0.00721169
-9.17467e-05
0.00725851
-9.35845e-05
0.0073062
-9.53352e-05
0.00735473
-9.69929e-05
0.00740403
-9.85514e-05
0.00745407
-0.000100005
0.00750477
-0.00010135
0.0075561
-0.000102579
0.00760798
-0.00010369
0.00766035
-0.000104678
0.00771316
-0.000105541
0.00776633
-0.000106275
0.00781981
-0.000106879
0.00787352
-0.000107352
0.0079274
-0.000107692
0.00798139
-0.000107899
0.00803541
-0.000107974
0.00808941
-0.000107917
0.00814331
-0.000107731
0.00819705
-0.000107417
0.00825058
-0.000106978
0.00830382
-0.000106416
0.00835672
-0.000105735
0.00840922
-0.000104938
0.00846126
-0.00010403
0.0085128
-0.000103013
0.00856377
-0.000101892
0.00861414
-0.00010067
0.00866384
-9.93531e-05
0.00871284
-9.79437e-05
0.00876109
-9.64461e-05
0.00880854
-9.4864e-05
0.00885516
-9.32009e-05
0.00890092
-9.14601e-05
0.00894576
-8.96445e-05
0.00898966
-8.7757e-05
0.00903258
-8.58e-05
0.00907448
-8.37754e-05
0.00911535
-8.16851e-05
0.00915513
-7.95304e-05
0.0091938
-7.73126e-05
0.00923134
-7.50325e-05
0.0092677
-7.26905e-05
0.00930286
-7.02869e-05
0.00933679
-6.78219e-05
0.00936946
-6.52953e-05
0.00940083
-6.27068e-05
0.00943087
-6.00561e-05
0.00945956
-5.73427e-05
0.00948686
-5.45663e-05
0.00951274
-5.17263e-05
0.00953717
-4.88226e-05
0.00956011
-4.5855e-05
0.00958154
-4.28234e-05
0.00960142
-3.97282e-05
0.00961972
-3.65698e-05
0.00963641
-3.3349e-05
0.00965146
-3.0067e-05
0.00966484
-2.67252e-05
0.00967651
-2.33256e-05
0.00968646
-1.98704e-05
0.00969466
-1.63622e-05
0.00970107
-1.28041e-05
0.00970568
-9.19969e-06
0.00970846
-5.55277e-06
0.0097094
-1.86743e-06
0.00970849
1.85113e-06
0.00970569
5.59841e-06
0.00970101
9.36885e-06
0.00969443
1.31568e-05
0.00968595
1.69563e-05
0.00967557
2.07612e-05
0.00966328
2.45649e-05
0.0096491
2.83609e-05
0.00963302
3.21424e-05
0.00961506
3.59024e-05
0.00959523
3.9634e-05
0.00957355
4.333e-05
0.00955004
4.69834e-05
0.00952473
5.0587e-05
0.00949764
5.41338e-05
0.00946881
5.76167e-05
0.00943828
6.10289e-05
0.00940607
6.43634e-05
0.00937223
6.76136e-05
0.00933682
7.07731e-05
0.00929987
7.38356e-05
0.00926144
7.67948e-05
0.00922158
7.96451e-05
0.00918036
8.23809e-05
0.00913782
8.49968e-05
0.00909404
8.7488e-05
0.00904908
8.98498e-05
0.009003
9.2078e-05
0.00895587
9.41687e-05
0.00890777
9.61185e-05
0.00885877
9.79243e-05
0.00880893
9.95835e-05
0.00875834
0.000101094
0.00870707
0.000102454
0.00865519
0.000103663
0.00860279
0.000104719
0.00854993
0.000105622
0.0084967
0.000106373
0.00844317
0.000106973
0.00838942
0.000107422
0.00833551
0.000107722
0.00828153
0.000107876
0.00822755
0.000107886
0.00817363
0.000107754
0.00811985
0.000107486
0.00806627
0.000107083
0.00801295
0.000106551
0.00795997
0.000105894
0.00790738
0.000105116
0.00785523
0.000104223
0.00780359
0.00010322
0.0077525
0.000102113
0.00770202
0.000100907
0.00765219
9.96075e-05
0.00760305
9.82206e-05
0.00755465
9.67521e-05
0.00750702
9.52077e-05
0.0074602
9.35928e-05
0.00741423
9.19128e-05
0.00736912
9.01727e-05
0.00732492
8.83771e-05
0.00728164
8.65299e-05
0.00723931
8.46344e-05
0.00719795
8.26929e-05
0.00715759
8.07068e-05
0.00711824
7.86767e-05
0.00707993
7.66018e-05
0.00704268
7.44808e-05
0.00700652
7.23114e-05
0.00697147
7.00915e-05
0.00693756
6.78186e-05
0.00690481
6.54914e-05
0.00687325
6.31098e-05
0.00684291
6.06753e-05
0.00681381
5.81924e-05
0.00678598
5.56677e-05
0.00675942
5.31113e-05
0.00673415
5.05358e-05
0.00671017
4.79565e-05
0.00668748
4.53909e-05
0.00666605
4.28577e-05
0.00664586
4.03761e-05
0.00662688
3.79651e-05
0.00660905
3.56426e-05
0.00659234
3.34241e-05
0.00657668
3.13228e-05
0.00656201
2.93488e-05
0.00654826
2.75087e-05
0.00653535
2.58059e-05
0.00652323
2.42403e-05
0.00651183
2.2809e-05
0.00650108
2.15067e-05
0.00649092
2.03259e-05
0.00648129
1.92576e-05
0.00647215
1.82919e-05
0.00646344
1.74186e-05
0.00645513
1.66271e-05
0.00644718
1.59074e-05
0.00643956
1.525e-05
0.00643223
1.46461e-05
0.00642519
1.4088e-05
0.00641841
1.35687e-05
0.00641187
1.30824e-05
0.00640556
1.2624e-05
0.00639947
1.21894e-05
0.00639358
1.17752e-05
0.0063879
1.13787e-05
0.0063824
1.09976e-05
0.00637709
1.06304e-05
0.00637195
1.02757e-05
0.00636699
9.93251e-06
0.00636219
9.60003e-06
0.00635755
9.27773e-06
0.00635307
8.96518e-06
0.00634874
8.66206e-06
0.00634456
8.36812e-06
0.00634052
8.0832e-06
0.00633662
7.80713e-06
0.00633285
7.53979e-06
0.00632922
7.28108e-06
0.0063257
7.0309e-06
0.00632231
6.78916e-06
0.00631903
6.55576e-06
0.00631587
6.33063e-06
0.00631282
6.11366e-06
0.00630987
5.90476e-06
0.00630702
5.70384e-06
0.00630426
5.51079e-06
0.0063016
5.32553e-06
0.00629903
5.14794e-06
0.00629654
4.97792e-06
0.00629414
4.81537e-06
0.00629181
4.66018e-06
0.00628955
4.51226e-06
0.00628737
4.37149e-06
0.00628525
4.23777e-06
0.0062832
4.11101e-06
0.00628121
3.99111e-06
0.00627927
3.87796e-06
0.00627738
3.77148e-06
0.00627555
3.67158e-06
0.00627376
3.57817e-06
0.00627202
3.49115e-06
0.00627032
3.41054e-06
0.00626865
3.33588e-06
0.00626702
3.26837e-06
0.00626542
3.20397e-06
0.00626384
3.155e-06
3.08495e-06
0.00625051
-1.5199e-06
0.00625202
-4.56008e-06
0.00625455
-7.60377e-06
0.0062581
-1.06541e-05
0.00626267
-1.37141e-05
0.00626826
-1.67866e-05
0.00627487
-1.98743e-05
0.00628252
-2.29799e-05
0.00629121
-2.61057e-05
0.00630095
-2.92541e-05
0.00631175
-3.24271e-05
0.00632361
-3.56265e-05
0.00633655
-3.88541e-05
0.00635058
-4.21112e-05
0.0063657
-4.53988e-05
0.00638192
-4.87177e-05
0.00639926
-5.20683e-05
0.00641774
-5.54506e-05
0.00643734
-5.88642e-05
0.0064581
-6.23083e-05
0.00648002
-6.57817e-05
0.00650311
-6.92826e-05
0.00652737
-7.28088e-05
0.00655282
-7.63575e-05
0.00657946
-7.99254e-05
0.0066073
-8.35088e-05
0.00663634
-8.71032e-05
0.00666658
-9.07037e-05
0.00669802
-9.43047e-05
0.00673067
-9.79002e-05
0.00676452
-0.000101484
0.00679956
-0.000105048
0.00683578
-0.000108585
0.00687318
-0.000112087
0.00691174
-0.000115545
0.00695143
-0.00011895
0.00699224
-0.000122294
0.00703416
-0.000125565
0.00707714
-0.000128755
0.00712115
-0.000131854
0.00716618
-0.000134852
0.00721217
-0.000137738
0.00725909
-0.000140503
0.00730689
-0.000143137
0.00735553
-0.000145631
0.00740495
-0.000147976
0.00745511
-0.000150164
0.00750595
-0.000152186
0.0075574
-0.000154036
0.00760942
-0.000155707
0.00766194
-0.000157194
0.00771489
-0.000158491
0.00776821
-0.000159595
0.00782183
-0.000160503
0.00787569
-0.000161212
0.00792972
-0.000161722
0.00798385
-0.000162033
0.00803802
-0.000162144
0.00809216
-0.000162057
0.00814621
-0.000161775
0.00820009
-0.000161301
0.00825375
-0.000160639
0.00830713
-0.000159792
0.00836016
-0.000158766
0.00841279
-0.000157566
0.00846496
-0.000156198
0.00851661
-0.000154667
0.0085677
-0.00015298
0.00861817
-0.000151143
0.00866798
-0.000149162
0.00871708
-0.000147043
0.00876543
-0.000144791
0.00881298
-0.000142413
0.00885969
-0.000139914
0.00890553
-0.000137299
0.00895046
-0.000134572
0.00899444
-0.000131737
0.00903743
-0.000128798
0.00907942
-0.000125759
0.00912035
-0.000122621
0.00916021
-0.000119387
0.00919896
-0.000116059
0.00923656
-0.000112638
0.00927299
-0.000109124
0.00930823
-0.000105518
0.00934222
-0.00010182
0.00937496
-9.80295e-05
0.0094064
-9.41466e-05
0.00943651
-9.01704e-05
0.00946527
-8.61002e-05
0.00949264
-8.19353e-05
0.00951859
-7.76751e-05
0.00954308
-7.33191e-05
0.0095661
-6.88669e-05
0.00958759
-6.43185e-05
0.00960754
-5.96743e-05
0.0096259
-5.49349e-05
0.00964265
-5.01016e-05
0.00965776
-4.5176e-05
0.0096712
-4.01602e-05
0.00968293
-3.50572e-05
0.00969293
-2.98702e-05
0.00970117
-2.46033e-05
0.00970763
-1.9261e-05
0.00971228
-1.38487e-05
0.0097151
-8.37213e-06
0.00971607
-2.83754e-06
0.00971517
2.74749e-06
0.00971239
8.37591e-06
0.00970772
1.40395e-05
0.00970115
1.97297e-05
0.00969267
2.54376e-05
0.00968227
3.11538e-05
0.00966997
3.68686e-05
0.00965576
4.2572e-05
0.00963965
4.82537e-05
0.00962165
5.39034e-05
0.00960177
5.95105e-05
0.00958004
6.50643e-05
0.00955647
7.05542e-05
0.00953108
7.59693e-05
0.00950392
8.12992e-05
0.009475
8.65331e-05
0.00944437
9.16607e-05
0.00941206
9.66717e-05
0.00937812
0.000101556
0.00934259
0.000106304
0.00930552
0.000110906
0.00926696
0.000115353
0.00922697
0.000119636
0.0091856
0.000123747
0.00914292
0.000127678
0.00909899
0.000131421
0.00905387
0.00013497
0.00900763
0.000138318
0.00896034
0.000141459
0.00891207
0.000144388
0.00886289
0.0001471
0.00881288
0.000149592
0.00876212
0.000151861
0.00871067
0.000153903
0.00865861
0.000155717
0.00860603
0.000157302
0.008553
0.000158657
0.00849959
0.000159783
0.00844588
0.000160681
0.00839195
0.000161352
0.00833787
0.0001618
0.00828372
0.000162028
0.00822957
0.000162039
0.00817548
0.000161837
0.00812154
0.000161429
0.0080678
0.00016082
0.00801434
0.000160016
0.00796121
0.000159024
0.00790847
0.000157851
0.00785619
0.000156504
0.00780442
0.000154993
0.00775321
0.000153324
0.00770261
0.000151507
0.00765266
0.00014955
0.00760342
0.000147462
0.00755492
0.000145251
0.00750721
0.000142926
0.0074603
0.000140495
0.00741425
0.000137967
0.00736907
0.000135349
0.0073248
0.000132648
0.00728146
0.000129869
0.00723908
0.000127018
0.00719767
0.000124099
0.00715727
0.000121113
0.00711788
0.000118061
0.00707954
0.000114943
0.00704227
0.000111756
0.00700608
0.000108496
0.00697101
0.000105162
0.00693708
0.000101749
0.00690432
9.82542e-05
0.00687275
9.46787e-05
0.0068424
9.10245e-05
0.00681329
8.72979e-05
0.00678545
8.35091e-05
0.00675889
7.9673e-05
0.00673362
7.58084e-05
0.00670964
7.19384e-05
0.00668694
6.80889e-05
0.00666551
6.4288e-05
0.00664532
6.05647e-05
0.00662634
5.69473e-05
0.00660852
5.34624e-05
0.00659181
5.01337e-05
0.00657615
4.69809e-05
0.00656148
4.40189e-05
0.00654773
4.12578e-05
0.00653483
3.87027e-05
0.00652272
3.63534e-05
0.00651132
3.42058e-05
0.00650058
3.22517e-05
0.00649043
3.04799e-05
0.00648081
2.8877e-05
0.00647167
2.74281e-05
0.00646297
2.61178e-05
0.00645467
2.49303e-05
0.00644672
2.38506e-05
0.00643911
2.28643e-05
0.0064318
2.19583e-05
0.00642476
2.1121e-05
0.00641799
2.0342e-05
0.00641146
1.96124e-05
0.00640516
1.89247e-05
0.00639908
1.82728e-05
0.0063932
1.76514e-05
0.00638752
1.70566e-05
0.00638204
1.64851e-05
0.00637673
1.59342e-05
0.00637161
1.54021e-05
0.00636665
1.48873e-05
0.00636186
1.43886e-05
0.00635723
1.39052e-05
0.00635276
1.34364e-05
0.00634844
1.29817e-05
0.00634427
1.25409e-05
0.00634024
1.21135e-05
0.00633635
1.16995e-05
0.00633259
1.12986e-05
0.00632896
1.09106e-05
0.00632546
1.05354e-05
0.00632207
1.01729e-05
0.0063188
9.82294e-06
0.00631565
9.48535e-06
0.0063126
9.16003e-06
0.00630966
8.84681e-06
0.00630682
8.54557e-06
0.00630407
8.25614e-06
0.00630142
7.97838e-06
0.00629886
7.71214e-06
0.00629638
7.45726e-06
0.00629398
7.21358e-06
0.00629166
6.98095e-06
0.00628941
6.75921e-06
0.00628724
6.5482e-06
0.00628513
6.34776e-06
0.00628308
6.15776e-06
0.00628109
5.97803e-06
0.00627916
5.80844e-06
0.00627728
5.64885e-06
0.00627546
5.49911e-06
0.00627368
5.35913e-06
0.00627194
5.22867e-06
0.00627024
5.10794e-06
0.00626858
4.99594e-06
0.00626695
4.89513e-06
0.00626536
4.79818e-06
0.00626379
4.7256e-06
4.61931e-06
0.0062505
-2.02455e-06
0.00625202
-6.07426e-06
0.00625454
-1.01287e-05
0.00625808
-1.41921e-05
0.00626264
-1.82685e-05
0.00626821
-2.23618e-05
0.00627481
-2.64756e-05
0.00628245
-3.06133e-05
0.00629112
-3.47783e-05
0.00630084
-3.89737e-05
0.00631161
-4.32022e-05
0.00632345
-4.74665e-05
0.00633637
-5.17686e-05
0.00635037
-5.61106e-05
0.00636546
-6.04938e-05
0.00638166
-6.49192e-05
0.00639898
-6.93875e-05
0.00641743
-7.38986e-05
0.00643702
-7.84522e-05
0.00645776
-8.30472e-05
0.00647966
-8.76819e-05
0.00650273
-9.23541e-05
0.00652698
-9.70608e-05
0.00655242
-0.000101798
0.00657906
-0.000106563
0.0066069
-0.000111348
0.00663594
-0.000116149
0.0066662
-0.000120959
0.00669767
-0.000125771
0.00673034
-0.000130576
0.00676422
-0.000135366
0.00679931
-0.000140131
0.00683558
-0.00014486
0.00687304
-0.000149543
0.00691166
-0.000154169
0.00695144
-0.000158725
0.00699234
-0.000163198
0.00703436
-0.000167577
0.00707745
-0.000171846
0.00712159
-0.000175994
0.00716674
-0.000180007
0.00721287
-0.000183871
0.00725994
-0.000187573
0.00730791
-0.0001911
0.00735672
-0.00019444
0.00740632
-0.00019758
0.00745666
-0.000200509
0.0075077
-0.000203217
0.00755935
-0.000205694
0.00761158
-0.000207931
0.00766431
-0.000209921
0.00771747
-0.000211657
0.00777101
-0.000213134
0.00782486
-0.000214348
0.00787894
-0.000215296
0.00793319
-0.000215976
0.00798755
-0.000216389
0.00804194
-0.000216535
0.0080963
-0.000216415
0.00815056
-0.000216035
0.00820465
-0.000215397
0.00825852
-0.000214507
0.0083121
-0.00021337
0.00836533
-0.000211993
0.00841814
-0.000210384
0.0084705
-0.000208551
0.00852233
-0.0002065
0.00857359
-0.000204241
0.00862423
-0.000201781
0.00867419
-0.000199129
0.00872345
-0.000196294
0.00877194
-0.000193283
0.00881963
-0.000190103
0.00886648
-0.000186763
0.00891244
-0.000183268
0.0089575
-0.000179625
0.0090016
-0.000175839
0.00904472
-0.000171915
0.00908681
-0.000167857
0.00912786
-0.000163669
0.00916783
-0.000159354
0.00920668
-0.000154913
0.00924439
-0.000150349
0.00928093
-0.000145662
0.00931627
-0.000140853
0.00935037
-0.000135921
0.00938321
-0.000130867
0.00941475
-0.00012569
0.00944497
-0.000120388
0.00947383
-0.000114961
0.0095013
-0.000109408
0.00952735
-0.000103727
0.00955195
-9.79179e-05
0.00957506
-9.19803e-05
0.00959666
-8.5914e-05
0.0096167
-7.97192e-05
0.00963517
-7.33969e-05
0.00965201
-6.69484e-05
0.00966721
-6.0376e-05
0.00968074
-5.36826e-05
0.00969255
-4.68718e-05
0.00970263
-3.99482e-05
0.00971094
-3.2917e-05
0.00971746
-2.57843e-05
0.00972217
-1.85573e-05
0.00972504
-1.12436e-05
0.00972606
-3.8518e-06
0.0097252
3.60827e-06
0.00972245
1.11269e-05
0.00971779
1.86932e-05
0.00971123
2.62958e-05
0.00970274
3.39224e-05
0.00969234
4.15607e-05
0.00968001
4.91975e-05
0.00966576
5.68196e-05
0.0096496
6.44131e-05
0.00963154
7.19641e-05
0.00961159
7.94584e-05
0.00958977
8.68818e-05
0.00956611
9.42199e-05
0.00954062
0.000101458
0.00951334
0.000108583
0.00948429
0.000115579
0.00945352
0.000122433
0.00942106
0.000129132
0.00938695
0.000135661
0.00935125
0.000142008
0.00931399
0.00014816
0.00927524
0.000154104
0.00923505
0.00015983
0.00919347
0.000165325
0.00915057
0.000170579
0.00910641
0.000175582
0.00906105
0.000180325
0.00901457
0.000184799
0.00896704
0.000188996
0.00891851
0.00019291
0.00886908
0.000196534
0.00881881
0.000199862
0.00876778
0.000202892
0.00871606
0.000205618
0.00866374
0.000208039
0.00861089
0.000210153
0.00855759
0.00021196
0.00850391
0.00021346
0.00844993
0.000214655
0.00839574
0.000215547
0.0083414
0.000216139
0.00828699
0.000216437
0.00823259
0.000216444
0.00817826
0.000216167
0.00812407
0.000215614
0.0080701
0.000214792
0.00801641
0.000213709
0.00796306
0.000212374
0.00791011
0.000210797
0.00785762
0.000208989
0.00780566
0.00020696
0.00775426
0.000204722
0.00770348
0.000202284
0.00765337
0.00019966
0.00760397
0.00019686
0.00755533
0.000193897
0.00750747
0.000190782
0.00746044
0.000187526
0.00741427
0.00018414
0.00736899
0.000180634
0.00732462
0.000177017
0.00728119
0.000173298
0.00723872
0.000169482
0.00719725
0.000165576
0.00715678
0.000161582
0.00711734
0.000157501
0.00707895
0.000153331
0.00704163
0.000149071
0.00700541
0.000144716
0.00697031
0.000140262
0.00693636
0.000135703
0.00690358
0.000131037
0.00687199
0.000126264
0.00684163
0.000121387
0.00681251
0.000116414
0.00678466
0.000111359
0.00675809
0.000106241
0.00673282
0.000101086
0.00670883
9.59241e-05
0.00668613
9.07895e-05
0.0066647
8.57198e-05
0.00664451
8.07536e-05
0.00662553
7.59286e-05
0.00660771
7.12803e-05
0.006591
6.68402e-05
0.00657535
6.26346e-05
0.00656069
5.86835e-05
0.00654694
5.50004e-05
0.00653405
5.15919e-05
0.00652195
4.84581e-05
0.00651056
4.55933e-05
0.00649983
4.29866e-05
0.00648968
4.06231e-05
0.00648008
3.84851e-05
0.00647095
3.65526e-05
0.00646226
3.48048e-05
0.00645397
3.32211e-05
0.00644604
3.1781e-05
0.00643844
3.04656e-05
0.00643114
2.92574e-05
0.00642412
2.81408e-05
0.00641736
2.71019e-05
0.00641085
2.6129e-05
0.00640456
2.5212e-05
0.00639849
2.43426e-05
0.00639263
2.35141e-05
0.00638696
2.27209e-05
0.00638149
2.19588e-05
0.0063762
2.12243e-05
0.00637109
2.05148e-05
0.00636614
1.98283e-05
0.00636137
1.91634e-05
0.00635676
1.85188e-05
0.0063523
1.78938e-05
0.00634799
1.72877e-05
0.00634383
1.67e-05
0.00633982
1.61303e-05
0.00633594
1.55784e-05
0.00633219
1.5044e-05
0.00632858
1.45269e-05
0.00632509
1.40268e-05
0.00632171
1.35437e-05
0.00631846
1.30772e-05
0.00631532
1.26274e-05
0.00631228
1.21938e-05
0.00630935
1.17765e-05
0.00630653
1.13751e-05
0.00630379
1.09894e-05
0.00630115
1.06193e-05
0.0062986
1.02646e-05
0.00629613
9.92506e-06
0.00629374
9.60043e-06
0.00629143
9.29053e-06
0.0062892
8.99514e-06
0.00628703
8.71406e-06
0.00628493
8.44708e-06
0.0062829
8.194e-06
0.00628092
7.95461e-06
0.006279
7.72873e-06
0.00627713
7.51617e-06
0.00627531
7.31673e-06
0.00627354
7.13031e-06
0.00627182
6.95656e-06
0.00627013
6.79581e-06
0.00626848
6.64661e-06
0.00626686
6.51247e-06
0.00626528
6.38316e-06
0.00626371
6.28678e-06
6.14487e-06
0.0062505
-2.52756e-06
0.00625201
-7.58346e-06
0.00625453
-1.26453e-05
0.00625806
-1.77186e-05
0.0062626
-2.28083e-05
0.00626815
-2.79193e-05
0.00627473
-3.30563e-05
0.00628234
-3.82236e-05
0.00629099
-4.34254e-05
0.00630068
-4.86656e-05
0.00631143
-5.39478e-05
0.00632324
-5.92753e-05
0.00633612
-6.46509e-05
0.00635009
-7.00769e-05
0.00636515
-7.55553e-05
0.00638132
-8.10874e-05
0.0063986
-8.6674e-05
0.00641702
-9.23152e-05
0.00643658
-9.80106e-05
0.00645729
-0.000103759
0.00647916
-0.000109558
0.00650222
-0.000115405
0.00652645
-0.000121297
0.00655188
-0.000127228
0.00657851
-0.000133194
0.00660635
-0.000139189
0.00663541
-0.000145204
0.00666568
-0.000151232
0.00669717
-0.000157263
0.00672988
-0.000163287
0.00676381
-0.000169294
0.00679895
-0.00017527
0.00683529
-0.000181204
0.00687283
-0.000187081
0.00691155
-0.000192887
0.00695143
-0.000198606
0.00699245
-0.000204223
0.0070346
-0.000209721
0.00707784
-0.000215085
0.00712214
-0.000220296
0.00716747
-0.000225338
0.00721379
-0.000230193
0.00726106
-0.000234846
0.00730924
-0.000239279
0.00735828
-0.000243476
0.00740812
-0.000247423
0.00745872
-0.000251105
0.00751001
-0.000254509
0.00756194
-0.000257622
0.00761444
-0.000260433
0.00766745
-0.000262933
0.00772091
-0.000265113
0.00777474
-0.000266967
0.00782888
-0.00026849
0.00788326
-0.000269677
0.00793782
-0.000270528
0.00799247
-0.000271042
0.00804716
-0.000271221
0.00810181
-0.000271066
0.00815635
-0.000270582
0.00821073
-0.000269775
0.00826488
-0.000268651
0.00831872
-0.000267217
0.00837221
-0.000265483
0.00842529
-0.000263457
0.00847788
-0.000261149
0.00852995
-0.000258569
0.00858144
-0.000255729
0.0086323
-0.000252638
0.00868248
-0.000249308
0.00873193
-0.000245748
0.00878062
-0.000241969
0.00882849
-0.00023798
0.00887552
-0.000233791
0.00892166
-0.000229409
0.00896688
-0.000224844
0.00901115
-0.000220101
0.00905442
-0.000215187
0.00909667
-0.000210106
0.00913786
-0.000204865
0.00917797
-0.000199465
0.00921697
-0.00019391
0.00925482
-0.000188201
0.0092915
-0.00018234
0.00932698
-0.000176327
0.00936122
-0.000170161
0.00939419
-0.000163843
0.00942587
-0.000157371
0.00945623
-0.000150744
0.00948523
-0.00014396
0.00951284
-0.000137018
0.00953903
-0.000129916
0.00956376
-0.000122654
0.00958701
-0.00011523
0.00960874
-0.000107644
0.00962892
-9.98966e-05
0.00964751
-9.19886e-05
0.00966448
-8.39217e-05
0.00967981
-7.56985e-05
0.00969345
-6.73225e-05
0.00970537
-5.87982e-05
0.00971555
-5.01313e-05
0.00972397
-4.13284e-05
0.00973058
-3.23971e-05
0.00973537
-2.33463e-05
0.00973831
-1.41856e-05
0.00973938
-4.92567e-06
0.00973857
4.42074e-06
0.00973586
1.38418e-05
0.00973123
2.33236e-05
0.00972467
3.28518e-05
0.00971618
4.24112e-05
0.00970576
5.19859e-05
0.00969339
6.15596e-05
0.0096791
7.11154e-05
0.00966288
8.06361e-05
0.00964474
9.01039e-05
0.00962469
9.95012e-05
0.00960276
0.00010881
0.00957897
0.000118012
0.00955334
0.000127089
0.0095259
0.000136024
0.00949668
0.000144798
0.00946572
0.000153394
0.00943306
0.000161795
0.00939873
0.000169984
0.0093628
0.000177944
0.0093253
0.000185659
0.00928629
0.000193114
0.00924583
0.000200294
0.00920397
0.000207185
0.00916077
0.000213774
0.00911631
0.000220047
0.00907064
0.000225994
0.00902383
0.000231603
0.00897597
0.000236864
0.00892711
0.00024177
0.00887733
0.000246311
0.00882671
0.000250481
0.00877533
0.000254276
0.00872325
0.00025769
0.00867057
0.00026072
0.00861736
0.000263365
0.0085637
0.000265623
0.00850966
0.000267497
0.00845533
0.000268986
0.00840078
0.000270095
0.0083461
0.000270828
0.00829134
0.000271189
0.0082366
0.000271187
0.00818194
0.000270828
0.00812743
0.000270122
0.00807315
0.000269078
0.00801915
0.000267706
0.0079655
0.000266019
0.00791227
0.000264028
0.00785952
0.000261747
0.00780729
0.000259188
0.00775564
0.000256367
0.00770463
0.000253297
0.0076543
0.000249992
0.00760469
0.000246468
0.00755585
0.00024274
0.00750781
0.000238821
0.00746061
0.000234726
0.00741428
0.000230469
0.00736885
0.000226062
0.00732435
0.000221517
0.0072808
0.000216845
0.00723823
0.000212053
0.00719666
0.000207148
0.00715611
0.000202135
0.0071166
0.000197013
0.00707814
0.000191783
0.00704077
0.000186441
0.00700451
0.000180982
0.00696937
0.0001754
0.00693538
0.000169689
0.00690258
0.000163846
0.00687097
0.000157871
0.00684059
0.000151766
0.00681146
0.000145544
0.0067836
0.00013922
0.00675702
0.000132818
0.00673174
0.00012637
0.00670775
0.000119914
0.00668505
0.000113493
0.00666361
0.000107153
0.00664342
0.000100942
0.00662444
9.4908e-05
0.00660663
8.90948e-05
0.00658993
8.35418e-05
0.00657428
7.82819e-05
0.00655962
7.33403e-05
0.00654589
6.87338e-05
0.00653301
6.44706e-05
0.00652092
6.05511e-05
0.00650954
5.6968e-05
0.00649882
5.37078e-05
0.00648869
5.07519e-05
0.0064791
4.8078e-05
0.00646999
4.56612e-05
0.00646132
4.34756e-05
0.00645305
4.14951e-05
0.00644513
3.96944e-05
0.00643755
3.80497e-05
0.00643027
3.6539e-05
0.00642327
3.51429e-05
0.00641652
3.3844e-05
0.00641003
3.26276e-05
0.00640376
3.14812e-05
0.0063977
3.03943e-05
0.00639186
2.93585e-05
0.00638621
2.83669e-05
0.00638076
2.74142e-05
0.00637549
2.6496e-05
0.00637039
2.56091e-05
0.00636547
2.4751e-05
0.00636071
2.39198e-05
0.00635612
2.31142e-05
0.00635168
2.2333e-05
0.00634739
2.15754e-05
0.00634325
2.08409e-05
0.00633925
2.0129e-05
0.00633539
1.94394e-05
0.00633166
1.87716e-05
0.00632806
1.81254e-05
0.00632459
1.75007e-05
0.00632124
1.68971e-05
0.006318