/*--------------------------------*- C++ -*----------------------------------*\
| =========                 |                                                 |
| \\      /  F ield         | OpenFOAM: The Open Source CFD Toolbox           |
|  \\    /   O peration     | Version:  2306                                  |
|   \\  /    A nd           | Website:  www.openfoam.com                      |
|    \\/     M anipulation  |                                                 |
\*---------------------------------------------------------------------------*/
FoamFile
{
    version     2.0;
    format      ascii;
    arch        "LSB;label=32;scalar=64";
    class       volScalarField;
    location    "5";
    object      T;
}
// * * * * * * * * * * * * * * * * * * * * * * * * * * * * * * * * * * * * * //

dimensions      [0 0 0 1 0 0 0];

internalField   nonuniform List<scalar> 
32768
(
300
300
300
300
300
300
300
300
300
300
300
300
300
300
300
300
300
300
300
300
300
300
300
300
300
300
300
300
300
300
300
300
300
300
300
300
300
300
300
300
300
300
300
300
300
300
300
300
300
300
300
300
300
300
300
300
300
300
300
300
300
300
300
300
299.999
299.999
299.999
299.999
299.999
299.999
299.999
299.998
299.998
299.998
299.997
299.997
299.996
299.996
299.995
299.994
299.993
299.992
299.991
299.99
299.989
299.987
299.985
299.983
299.981
299.979
299.976
299.973
299.97
299.966
299.962
299.958
299.953
299.948
299.942
299.935
299.928
299.921
299.912
299.903
299.893
299.882
299.87
299.857
299.843
299.828
299.811
299.793
299.774
299.752
299.729
299.705
299.678
299.648
299.617
299.582
299.545
299.504
299.46
299.413
299.361
299.304
299.243
299.176
299.103
299.024
298.937
298.841
298.737
298.623
298.497
298.36
298.208
298.041
297.857
297.654
297.429
297.181
296.907
296.603
296.266
295.892
295.479
295.02
294.511
293.947
293.322
292.629
291.862
291.015
290.078
289.044
287.905
286.652
285.275
283.766
282.114
280.311
278.347
276.212
273.899
271.398
268.701
265.803
262.696
259.376
255.839
252.082
248.106
243.91
239.497
234.871
230.038
225.005
219.782
214.379
208.808
203.084
197.221
191.235
185.143
178.964
172.714
166.414
160.08
153.733
147.391
141.072
134.793
128.571
122.423
116.365
110.411
104.574
98.8681
93.3035
87.8911
82.6402
77.5588
72.654
67.9315
63.396
59.0509
54.8986
50.9404
47.1767
43.6066
40.2287
37.0403
34.0383
31.2186
28.5765
26.107
23.8042
21.6621
19.6743
17.8339
16.1341
14.5678
13.1279
11.8073
10.5988
9.49545
8.49022
7.57624
6.74669
5.99462
5.31277
4.69298
4.12527
3.59591
3.0839
2.55418
1.94501
1.14397
-0.0570961
-2.04707
-5.5557
-11.9551
-23.8276
-46.0348
-87.7296
-166.142
-313.705
-591.452
-1114.21
-2098
-3949.08
-7431.3
-13980.6
-26295.9
-49448.1
300
300
300
300
300
300
300
300
300
300
300
300
300
300
300
300
300
300
300
300
300
300
300
300
300
300
300
300
300
300
300
300
300
300
300
300
300
300
300
300
300
300
300
300
300
300
300
300
300
300
300
300
300
300
300
300
300
300
300
300
300
300
300
300
299.999
299.999
299.999
299.999
299.999
299.999
299.998
299.998
299.998
299.997
299.997
299.997
299.996
299.995
299.995
299.994
299.993
299.992
299.991
299.989
299.988
299.986
299.984
299.982
299.98
299.978
299.975
299.972
299.968
299.964
299.96
299.955
299.95
299.945
299.939
299.932
299.924
299.916
299.908
299.898
299.888
299.876
299.864
299.851
299.836
299.82
299.803
299.785
299.765
299.743
299.719
299.694
299.666
299.637
299.604
299.569
299.531
299.49
299.446
299.397
299.345
299.288
299.226
299.158
299.085
299.005
298.917
298.821
298.717
298.602
298.476
298.338
298.186
298.018
297.834
297.63
297.406
297.157
296.882
296.578
296.241
295.868
295.454
294.995
294.486
293.922
293.297
292.604
291.838
290.99
290.054
289.02
287.881
286.628
285.252
283.742
282.091
280.288
278.324
276.19
273.876
271.375
268.679
265.781
262.674
259.354
255.816
252.06
248.083
243.887
239.474
234.848
230.014
224.981
219.757
214.354
208.783
203.058
197.194
191.208
185.116
178.936
172.686
166.385
160.051
153.703
147.361
141.041
134.762
128.54
122.392
116.334
110.38
104.543
98.8371
93.2729
87.8609
82.6104
77.5296
72.6254
67.9036
63.3688
59.0245
54.8731
50.9159
47.1531
43.584
40.2071
37.0197
34.0187
31.2
28.559
26.0905
23.7888
21.6477
19.6607
17.8213
16.1224
14.557
13.1179
11.7981
10.5904
9.48769
8.48313
7.56978
6.74082
5.9893
5.30794
4.68862
4.12134
3.59239
3.08073
2.55134
1.94244
1.14164
-0.0592405
-2.0491
-5.5577
-11.9572
-23.83
-46.0378
-87.7335
-166.148
-313.713
-591.461
-1114.23
-2098.02
-3949.08
-7431.28
-13980.6
-26295.8
-49447.8
300
300
300
300
300
300
300
300
300
300
300
300
300
300
300
300
300
300
300
300
300
300
300
300
300
300
300
300
300
300
300
300
300
300
300
300
300
300
300
300
300
300
300
300
300
300
300
300
300
300
300
300
300
300
300
300
300
300
300
300
300
300
300
299.999
299.999
299.999
299.999
299.999
299.999
299.998
299.998
299.998
299.998
299.997
299.997
299.996
299.995
299.995
299.994
299.993
299.992
299.991
299.99
299.988
299.986
299.985
299.982
299.98
299.978
299.975
299.972
299.968
299.964
299.96
299.955
299.95
299.945
299.939
299.932
299.925
299.917
299.908
299.898
299.888
299.877
299.865
299.851
299.837
299.822
299.805
299.787
299.767
299.746
299.723
299.699
299.672
299.644
299.613
299.579
299.543
299.504
299.462
299.416
299.366
299.313
299.254
299.191
299.123
299.048
298.967
298.878
298.781
298.675
298.56
298.433
298.294
298.141
297.973
297.788
297.584
297.358
297.109
296.834
296.53
296.193
295.819
295.405
294.946
294.437
293.874
293.249
292.557
291.791
290.944
290.008
288.975
287.837
286.584
285.209
283.701
282.05
280.248
278.285
276.152
273.839
271.339
268.644
265.746
262.64
259.321
255.784
252.028
248.052
243.857
239.444
234.818
229.984
224.951
219.727
214.323
208.752
203.026
197.162
191.175
185.082
178.902
172.651
166.349
160.015
153.666
147.323
141.002
134.722
128.5
122.352
116.293
110.339
104.502
98.7962
93.2321
87.8203
82.5702
77.49
72.5864
67.8653
63.3314
58.9881
54.8377
50.8816
47.12
43.5522
40.1766
36.9906
33.9909
31.1736
28.5341
26.0669
23.7666
21.6268
19.6413
17.8031
16.1055
14.5413
13.1034
11.7847
10.5781
9.47644
8.47283
7.5604
6.73228
5.98155
5.30093
4.68229
4.11564
3.58725
3.07611
2.54717
1.93866
1.13817
-0.0624996
-2.0523
-5.56106
-11.9611
-23.8349
-46.0445
-87.7433
-166.163
-313.736
-591.497
-1114.28
-2098.1
-3949.2
-7431.44
-13980.8
-26296.1
-49448.2
300
300
300
300
300
300
300
300
300
300
300
300
300
300
300
300
300
300
300
300
300
300
300
300
300
300
300
300
300
300
300
300
300
300
300
300
300
300
300
300
300
300
300
300
300
300
300
300
300
300
300
300
300
300
300
300
300
300
300
300
300
300
299.999
299.999
299.999
299.999
299.999
299.999
299.998
299.998
299.998
299.997
299.997
299.997
299.996
299.995
299.995
299.994
299.993
299.992
299.99
299.989
299.988
299.986
299.984
299.982
299.979
299.977
299.974
299.97
299.967
299.963
299.958
299.953
299.948
299.942
299.936
299.929
299.921
299.913
299.904
299.894
299.884
299.872
299.86
299.846
299.832
299.816
299.799
299.781
299.761
299.74
299.718
299.693
299.667
299.639
299.608
299.575
299.54
299.502
299.461
299.417
299.369
299.318
299.263
299.203
299.138
299.067
298.991
298.908
298.818
298.719
298.612
298.495
298.367
298.226
298.072
297.903
297.717
297.512
297.286
297.037
296.761
296.456
296.119
295.745
295.331
294.872
294.364
293.801
293.176
292.485
291.72
290.874
289.939
288.907
287.771
286.52
285.146
283.639
281.99
280.19
278.229
276.097
273.787
271.288
268.595
265.698
262.594
259.276
255.741
251.986
248.011
243.817
239.405
234.779
229.946
224.913
219.689
214.285
208.714
202.988
197.123
191.136
185.042
178.86
172.609
166.306
159.97
153.621
147.276
140.955
134.674
128.451
122.302
116.242
110.287
104.45
98.7441
93.18
87.7683
82.5186
77.4388
72.5359
67.8157
63.2827
58.9405
54.7914
50.8367
47.0766
43.5104
40.1364
36.9521
33.9543
31.1388
28.501
26.0357
23.7372
21.5992
19.6154
17.779
16.0831
14.5205
13.0842
11.767
10.5617
9.46145
8.45912
7.54789
6.72089
5.97122
5.29158
4.67385
4.10802
3.58039
3.06994
2.5416
1.9336
1.1335
-0.0669403
-2.05673
-5.56584
-11.9667
-23.8423
-46.0551
-87.7594
-166.188
-313.776
-591.56
-1114.38
-2098.25
-3949.43
-7431.8
-13981.3
-26296.8
-49449.1
300
300
300
300
300
300
300
300
300
300
300
300
300
300
300
300
300
300
300
300
300
300
300
300
300
300
300
300
300
300
300
300
300
300
300
300
300
300
300
300
300
300
300
300
300
300
300
300
300
300
300
300
300
300
300
300
300
300
300
300
300
299.999
299.999
299.999
299.999
299.999
299.999
299.998
299.998
299.998
299.997
299.997
299.996
299.996
299.995
299.994
299.993
299.992
299.991
299.99
299.988
299.987
299.985
299.983
299.98
299.978
299.975
299.971
299.968
299.964
299.959
299.955
299.949
299.944
299.937
299.93
299.923
299.915
299.906
299.896
299.886
299.875
299.863
299.85
299.835
299.82
299.804
299.786
299.767
299.747
299.725
299.702
299.677
299.65
299.622
299.591
299.558
299.523
299.485
299.445
299.401
299.355
299.305
299.251
299.193
299.13
299.063
298.99
298.912
298.827
298.734
298.634
298.525
298.406
298.276
298.134
297.978
297.808
297.621
297.414
297.188
296.937
296.661
296.356
296.018
295.644
295.231
294.772
294.264
293.701
293.078
292.388
291.624
290.779
289.846
288.817
287.682
286.433
285.061
283.557
281.911
280.113
278.154
276.025
273.717
271.221
268.53
265.636
262.534
259.218
255.685
251.933
247.959
243.766
239.355
234.731
229.899
224.867
219.643
214.239
208.667
202.941
197.076
191.088
184.993
178.81
172.558
166.253
159.916
153.566
147.22
140.897
134.615
128.39
122.24
116.18
110.224
104.387
98.68
93.1157
87.7042
82.4547
77.3754
72.4733
67.754
63.2222
58.8814
54.7338
50.7808
47.0225
43.4582
40.0863
36.9041
33.9084
31.0952
28.4597
25.9966
23.7003
21.5646
19.583
17.7488
16.0549
14.4944
13.06
11.7447
10.5412
9.44264
8.44192
7.53219
6.70661
5.95826
5.27985
4.66325
4.09847
3.57179
3.06219
2.5346
1.92723
1.1276
-0.0725751
-2.06241
-5.57204
-11.9742
-23.8523
-46.0696
-87.7817
-166.223
-313.832
-591.651
-1114.52
-2098.48
-3949.79
-7432.34
-13982.1
-26297.9
-49450.6
300
300
300
300
300
300
300
300
300
300
300
300
300
300
300
300
300
300
300
300
300
300
300
300
300
300
300
300
300
300
300
300
300
300
300
300
300
300
300
300
300
300
300
300
300
300
300
300
300
300
300
300
300
300
300
300
300
300
300
300
299.999
299.999
299.999
299.999
299.999
299.999
299.998
299.998
299.998
299.997
299.997
299.996
299.995
299.995
299.994
299.993
299.992
299.99
299.989
299.987
299.985
299.983
299.981
299.978
299.975
299.972
299.968
299.964
299.96
299.955
299.949
299.944
299.937
299.93
299.923
299.914
299.905
299.896
299.885
299.874
299.862
299.848
299.834
299.819
299.802
299.785
299.766
299.746
299.724
299.701
299.677
299.651
299.623
299.593
299.561
299.528
299.492
299.453
299.412
299.369
299.322
299.272
299.219
299.162
299.101
299.036
298.965
298.89
298.808
298.72
298.625
298.522
298.411
298.289
298.157
298.013
297.856
297.684
297.495
297.288
297.06
296.809
296.532
296.226
295.888
295.514
295.101
294.643
294.136
293.574
292.952
292.263
291.501
290.659
289.728
288.7
287.568
286.322
284.953
283.452
281.809
280.014
278.059
275.933
273.629
271.136
268.448
265.558
262.459
259.146
255.616
251.866
247.895
243.704
239.295
234.672
229.841
224.81
219.587
214.183
208.612
202.885
197.02
191.03
184.935
178.751
172.496
166.191
159.852
153.5
147.152
140.827
134.544
128.318
122.166
116.105
110.148
104.31
98.6029
93.0384
87.6269
82.3778
77.2991
72.3978
67.6797
63.1493
58.81
54.6643
50.7132
46.9571
43.3952
40.0257
36.8461
33.853
31.0425
28.4097
25.9494
23.6558
21.5228
19.5439
17.7122
16.0209
14.4628
13.0308
11.7178
10.5165
9.41992
8.42114
7.51324
6.68937
5.94262
5.26569
4.65047
4.08695
3.56141
3.05284
2.52615
1.91953
1.12046
-0.0794178
-2.06935
-5.57968
-11.9835
-23.8649
-46.088
-87.8101
-166.268
-313.905
-591.768
-1114.71
-2098.78
-3950.26
-7433.05
-13983.2
-26299.5
-49452.7
300
300
300
300
300
300
300
300
300
300
300
300
300
300
300
300
300
300
300
300
300
300
300
300
300
300
300
300
300
300
300
300
300
300
300
300
300
300
300
300
300
300
300
300
300
300
300
300
300
300
300
300
300
300
300
300
300
300
300
299.999
299.999
299.999
299.999
299.999
299.998
299.998
299.998
299.997
299.997
299.996
299.996
299.995
299.994
299.993
299.992
299.991
299.989
299.987
299.985
299.983
299.981
299.978
299.975
299.972
299.968
299.964
299.959
299.954
299.949
299.943
299.936
299.929
299.921
299.912
299.903
299.893
299.882
299.87
299.857
299.844
299.829
299.813
299.796
299.778
299.759
299.738
299.716
299.693
299.668
299.642
299.614
299.584
299.552
299.519
299.483
299.445
299.406
299.363
299.318
299.271
299.22
299.166
299.109
299.048
298.983
298.914
298.84
298.761
298.676
298.585
298.487
298.381
298.266
298.142
298.008
297.861
297.702
297.528
297.337
297.129
296.899
296.647
296.37
296.064
295.726
295.352
294.939
294.482
293.976
293.416
292.795
292.109
291.349
290.509
289.58
288.556
287.427
286.185
284.82
283.322
281.683
279.893
277.941
275.82
273.52
271.031
268.348
265.461
262.366
259.057
255.53
251.784
247.816
243.627
239.221
234.6
229.771
224.741
219.519
214.116
208.544
202.818
196.951
190.961
184.865
178.679
172.423
166.116
159.775
153.421
147.071
140.745
134.459
128.232
122.079
116.016
110.058
104.219
98.5116
92.9468
87.5354
82.2867
77.2088
72.3085
67.5918
63.063
58.7257
54.5821
50.6334
46.8799
43.3207
39.9541
36.7776
33.7877
30.9803
28.3507
25.8937
23.6033
21.4735
19.4977
17.6692
15.9808
14.4256
12.9964
11.686
10.4873
9.39318
8.39669
7.49094
6.6691
5.92422
5.24905
4.63544
4.0734
3.54922
3.04186
2.51623
1.91048
1.11206
-0.087485
-2.07756
-5.58876
-11.9947
-23.88
-46.1103
-87.8446
-166.323
-313.994
-591.912
-1114.94
-2099.15
-3950.84
-7433.95
-13984.5
-26301.4
-49455.3
300
300
300
300
300
300
300
300
300
300
300
300
300
300
300
300
300
300
300
300
300
300
300
300
300
300
300
300
300
300
300
300
300
300
300
300
300
300
300
300
300
300
300
300
300
300
300
300
300
300
300
300
300
300
300
300
300
300
299.999
299.999
299.999
299.999
299.999
299.998
299.998
299.998
299.997
299.997
299.996
299.995
299.994
299.993
299.992
299.991
299.989
299.988
299.986
299.983
299.981
299.978
299.975
299.971
299.968
299.963
299.959
299.953
299.947
299.941
299.934
299.926
299.918
299.909
299.899
299.888
299.877
299.864
299.851
299.836
299.821
299.804
299.786
299.767
299.747
299.725
299.702
299.678
299.652
299.624
299.595
299.565
299.532
299.498
299.462
299.423
299.383
299.341
299.296
299.249
299.199
299.147
299.091
299.033
298.971
298.905
298.836
298.762
298.684
298.601
298.512
298.417
298.315
298.205
298.087
297.96
297.823
297.674
297.512
297.336
297.144
296.933
296.703
296.45
296.172
295.865
295.528
295.154
294.742
294.286
293.782
293.223
292.605
291.921
291.164
290.327
289.402
288.381
287.256
286.018
284.658
283.165
281.531
279.745
277.799
275.683
273.387
270.904
268.226
265.344
262.254
258.949
255.427
251.684
247.72
243.535
239.131
234.513
229.686
224.657
219.437
214.035
208.463
202.737
196.87
190.879
184.781
178.594
172.336
166.027
159.684
153.328
146.976
140.648
134.36
128.13
121.976
115.912
109.953
104.113
98.4046
92.8396
87.4284
82.1803
77.1033
72.2043
67.4892
62.9624
58.6274
54.4863
50.5405
46.7901
43.2342
39.871
36.698
33.7118
30.9081
28.2823
25.8291
23.5425
21.4164
19.4443
17.6193
15.9345
14.3826
12.9567
11.6494
10.4536
9.36229
8.36845
7.4652
6.64569
5.903
5.22985
4.61811
4.05779
3.53517
3.0292
2.50479
1.90006
1.10238
-0.0967955
-2.08705
-5.5993
-12.0076
-23.8977
-46.1363
-87.8851
-166.388
-314.099
-592.082
-1115.22
-2099.59
-3951.53
-7435.01
-13986.1
-26303.7
-49458.6
300
300
300
300
300
300
300
300
300
300
300
300
300
300
300
300
300
300
300
300
300
300
300
300
300
300
300
300
300
300
300
300
300
300
300
300
300
300
300
300
300
300
300
300
300
300
300
300
300
300
300
300
300
300
300
300
299.999
299.999
299.999
299.999
299.999
299.999
299.998
299.998
299.997
299.997
299.996
299.995
299.995
299.994
299.992
299.991
299.99
299.988
299.986
299.984
299.981
299.978
299.975
299.971
299.967
299.963
299.958
299.952
299.946
299.939
299.932
299.924
299.915
299.905
299.894
299.883
299.871
299.857
299.843
299.827
299.81
299.792
299.773
299.753
299.731
299.708
299.683
299.657
299.629
299.6
299.569
299.537
299.502
299.466
299.428
299.389
299.347
299.303
299.257
299.209
299.158
299.105
299.05
298.991
298.93
298.866
298.799
298.728
298.653
298.574
298.491
298.403
298.309
298.21
298.104
297.99
297.869
297.738
297.598
297.446
297.281
297.103
296.909
296.697
296.466
296.212
295.933
295.627
295.289
294.917
294.506
294.051
293.549
292.992
292.377
291.696
290.942
290.109
289.189
288.173
287.053
285.82
284.464
282.977
281.349
279.569
277.629
275.519
273.229
270.752
268.08
265.204
262.119
258.82
255.302
251.564
247.604
243.423
239.023
234.408
229.583
224.557
219.338
213.937
208.366
202.639
196.772
190.78
184.681
178.493
172.233
165.922
159.577
153.218
146.864
140.533
134.243
128.012
121.855
115.79
109.83
103.989
98.2802
92.7153
87.3044
82.0571
76.9813
72.084
67.3708
62.8464
58.5141
54.3761
50.4337
46.6868
43.1347
39.7756
36.6067
33.6247
30.8254
28.204
25.7551
23.4729
21.3511
19.3832
17.5624
15.8815
14.3336
12.9113
11.6076
10.4152
9.32711
8.3363
7.4359
6.61907
5.87887
5.20803
4.59842
4.04006
3.51921
3.01484
2.49181
1.88823
1.09139
-0.10737
-2.09784
-5.61129
-12.0224
-23.9179
-46.1662
-87.9316
-166.463
-314.22
-592.278
-1115.53
-2100.09
-3952.32
-7436.25
-13988
-26306.5
-49462.5
300
300
300
300
300
300
300
300
300
300
300
300
300
300
300
300
300
300
300
300
300
300
300
300
300
300
300
300
300
300
300
300
300
300
300
300
300
300
300
300
300
300
300
300
300
300
300
300
300
300
300
300
300
300
300
299.999
299.999
299.999
299.999
299.999
299.998
299.998
299.998
299.997
299.996
299.996
299.995
299.994
299.993
299.991
299.99
299.988
299.986
299.984
299.981
299.978
299.975
299.971
299.967
299.962
299.957
299.951
299.944
299.937
299.929
299.92
299.911
299.9
299.889
299.877
299.863
299.849
299.833
299.816
299.798
299.779
299.758
299.736
299.712
299.687
299.66
299.632
299.601
299.57
299.536
299.501
299.464
299.425
299.385
299.342
299.297
299.251
299.202
299.152
299.099
299.044
298.986
298.926
298.864
298.799
298.731
298.661
298.587
298.51
298.429
298.344
298.255
298.161
298.063
297.958
297.847
297.73
297.604
297.47
297.326
297.171
297.004
296.823
296.628
296.414
296.182
295.927
295.649
295.342
295.006
294.634
294.225
293.772
293.272
292.719
292.107
291.43
290.681
289.852
288.937
287.926
286.812
285.585
284.236
282.755
281.134
279.361
277.428
275.325
273.042
270.572
267.906
265.037
261.959
258.666
255.154
251.422
247.467
243.29
238.894
234.282
229.461
224.437
219.219
213.82
208.25
202.523
196.656
190.663
184.563
178.373
172.111
165.797
159.45
153.089
146.733
140.399
134.107
127.874
121.716
115.648
109.687
103.846
98.1368
92.5719
87.1617
81.9155
76.8412
71.9459
67.2353
62.7137
58.3847
54.2503
50.3118
46.5692
43.0215
39.667
36.503
33.5259
30.7316
28.1152
25.6713
23.3941
21.2772
19.3141
17.498
15.8217
14.2782
12.8602
11.5605
10.3719
9.28746
8.30009
7.40293
6.58911
5.85172
5.18349
4.57629
4.02013
3.50129
2.99871
2.47724
1.87495
1.07906
-0.119232
-2.10995
-5.62476
-12.0391
-23.9406
-46.1998
-87.984
-166.547
-314.356
-592.5
-1115.89
-2100.67
-3953.23
-7437.65
-13990.1
-26309.6
-49466.9
300
300
300
300
300
300
300
300
300
300
300
300
300
300
300
300
300
300
300
300
300
300
300
300
300
300
300
300
300
300
300
300
300
300
300
300
300
300
300
300
300
300
300
300
300
300
300
300
300
300
300
300
300
300
299.999
299.999
299.999
299.999
299.999
299.998
299.998
299.997
299.997
299.996
299.995
299.994
299.993
299.992
299.99
299.988
299.986
299.984
299.981
299.978
299.975
299.971
299.966
299.961
299.956
299.95
299.943
299.935
299.927
299.917
299.907
299.896
299.883
299.87
299.856
299.84
299.823
299.804
299.784
299.763
299.74
299.716
299.69
299.662
299.633
299.602
299.569
299.534
299.497
299.459
299.418
299.376
299.331
299.285
299.236
299.186
299.133
299.078
299.022
298.963
298.902
298.838
298.773
298.705
298.635
298.562
298.486
298.408
298.327
298.243
298.155
298.064
297.968
297.868
297.764
297.654
297.538
297.416
297.286
297.148
297
296.843
296.673
296.49
296.293
296.078
295.845
295.59
295.312
295.007
294.671
294.302
293.894
293.445
292.948
292.398
291.79
291.118
290.374
289.551
288.642
287.638
286.53
285.31
283.968
282.496
280.882
279.117
277.192
275.097
272.823
270.36
267.702
264.841
261.77
258.484
254.979
251.252
247.303
243.132
238.74
234.133
229.315
224.294
219.078
213.68
208.111
202.385
196.517
190.524
184.422
178.231
171.967
165.651
159.302
152.938
146.579
140.244
133.949
127.714
121.554
115.485
109.523
103.681
97.972
92.4077
86.9985
81.7537
76.6815
71.7887
67.0811
62.563
58.2378
54.1078
50.1738
46.4361
42.8936
39.5445
36.386
33.4145
30.6259
28.0152
25.5771
23.3055
21.1943
19.2367
17.4258
15.7547
14.2161
12.8029
11.5078
10.3235
9.24318
8.25968
7.36613
6.5557
5.82147
5.15616
4.55165
3.99796
3.48135
2.98077
2.46105
1.8602
1.06536
-0.132405
-2.1234
-5.63972
-12.0575
-23.9658
-46.2372
-88.0423
-166.64
-314.508
-592.746
-1116.29
-2101.3
-3954.24
-7439.21
-13992.5
-26313.1
-49471.9
300
300
300
300
300
300
300
300
300
300
300
300
300
300
300
300
300
300
300
300
300
300
300
300
300
300
300
300
300
300
300
300
300
300
300
300
300
300
300
300
300
300
300
300
300
300
300
300
300
300
300
300
300
299.999
299.999
299.999
299.999
299.998
299.998
299.998
299.997
299.996
299.996
299.995
299.994
299.992
299.991
299.989
299.987
299.984
299.982
299.979
299.975
299.971
299.966
299.961
299.955
299.949
299.941
299.933
299.924
299.914
299.903
299.891
299.878
299.863
299.848
299.83
299.812
299.792
299.77
299.746
299.721
299.694
299.666
299.635
299.603
299.568
299.532
299.493
299.452
299.41
299.365
299.317
299.268
299.217
299.163
299.108
299.05
298.99
298.927
298.863
298.797
298.728
298.657
298.584
298.509
298.432
298.352
298.271
298.186
298.099
298.01
297.918
297.822
297.724
297.621
297.515
297.404
297.288
297.167
297.04
296.906
296.764
296.613
296.452
296.28
296.096
295.897
295.682
295.448
295.194
294.916
294.612
294.279
293.912
293.508
293.062
292.569
292.024
291.422
290.755
290.017
289.201
288.299
287.302
286.202
284.991
283.658
282.194
280.589
278.833
276.917
274.831
272.566
270.113
267.464
264.611
261.548
258.27
254.773
251.053
247.11
242.945
238.559
233.956
229.142
224.124
218.911
213.515
207.947
202.221
196.353
190.359
184.257
178.063
171.798
165.48
159.128
152.762
146.401
140.063
133.766
127.529
121.367
115.298
109.335
103.493
97.7838
92.2204
86.8126
81.5699
76.5002
71.6106
66.9066
62.3927
58.0721
53.9471
50.0185
46.2865
42.75
39.407
36.2548
33.2898
30.5077
27.9036
25.4719
23.2067
21.1018
19.1503
17.3455
15.6802
14.1472
12.7393
11.4492
10.2699
9.19408
8.21488
7.32537
6.51872
5.78799
5.12593
4.52441
3.97346
3.45934
2.96097
2.44319
1.84393
1.05027
-0.146914
-2.13819
-5.65618
-12.0778
-23.9936
-46.2783
-88.1064
-166.743
-314.674
-593.017
-1116.73
-2102.01
-3955.35
-7440.94
-13995.1
-26317
-49477.4
300
300
300
300
300
300
300
300
300
300
300
300
300
300
300
300
300
300
300
300
300
300
300
300
300
300
300
300
300
300
300
300
300
300
300
300
300
300
300
300
300
300
300
300
300
300
300
300
300
300
300
299.999
299.999
299.999
299.999
299.999
299.998
299.998
299.997
299.997
299.996
299.995
299.994
299.993
299.991
299.99
299.987
299.985
299.982
299.979
299.975
299.971
299.967
299.961
299.955
299.948
299.94
299.932
299.922
299.912
299.9
299.887
299.872
299.857
299.84
299.821
299.8
299.778
299.755
299.729
299.701
299.672
299.64
299.606
299.57
299.531
299.491
299.448
299.402
299.354
299.304
299.252
299.197
299.139
299.079
299.017
298.952
298.886
298.816
298.745
298.671
298.595
298.517
298.437
298.355
298.271
298.185
298.097
298.007
297.915
297.82
297.724
297.625
297.524
297.42
297.313
297.203
297.09
296.973
296.851
296.724
296.592
296.454
296.308
296.154
295.991
295.817
295.631
295.431
295.216
294.983
294.729
294.454
294.152
293.821
293.458
293.058
292.617
292.129
291.59
290.994
290.334
289.604
288.796
287.902
286.914
285.824
284.622
283.298
281.844
280.25
278.505
276.599
274.524
272.269
269.826
267.187
264.343
261.29
258.021
254.532
250.82
246.884
242.726
238.345
233.747
228.938
223.923
218.714
213.319
207.753
202.028
196.16
190.166
184.062
177.867
171.6
165.28
158.926
152.558
146.194
139.854
133.555
127.316
121.153
115.083
109.12
103.278
97.5697
92.0076
86.6019
81.3618
76.2955
71.4097
66.7101
62.2011
57.886
53.7668
49.8446
46.1191
42.5894
39.2536
36.1086
33.1509
30.3762
27.7794
25.3551
23.0971
20.9993
19.0547
17.2566
15.5977
14.071
12.669
11.3847
10.2107
9.13997
8.16554
7.28051
6.47803
5.75118
5.0927
4.49449
3.94656
3.43518
2.93926
2.42361
1.82611
1.03375
-0.162785
-2.15437
-5.67414
-12.1
-24.0238
-46.3231
-88.1762
-166.855
-314.856
-593.313
-1117.21
-2102.77
-3956.56
-7442.83
-13998
-26321.3
-49483.5
300
300
300
300
300
300
300
300
300
300
300
300
300
300
300
300
300
300
300
300
300
300
300
300
300
300
300
300
300
300
300
300
300
300
300
300
300
300
300
300
300
300
300
300
300
300
300
300
300
300
299.999
299.999
299.999
299.999
299.999
299.998
299.998
299.997
299.996
299.996
299.995
299.993
299.992
299.99
299.988
299.986
299.983
299.98
299.976
299.972
299.967
299.961
299.955
299.948
299.94
299.931
299.921
299.909
299.897
299.883
299.867
299.851
299.832
299.812
299.789
299.765
299.739
299.711
299.68
299.648
299.613
299.575
299.535
299.492
299.447
299.398
299.348
299.294
299.238
299.179
299.117
299.052
298.985
298.914
298.842
298.766
298.688
298.608
298.525
298.44
298.353
298.264
298.172
298.079
297.984
297.887
297.788
297.687
297.585
297.481
297.376
297.269
297.16
297.049
296.936
296.82
296.702
296.581
296.457
296.33
296.198
296.061
295.918
295.769
295.612
295.447
295.272
295.085
294.885
294.671
294.439
294.188
293.915
293.617
293.29
292.932
292.537
292.102
291.621
291.09
290.501
289.85
289.128
288.33
287.446
286.468
285.388
284.197
282.885
281.443
279.86
278.127
276.233
274.169
271.926
269.494
266.866
264.034
260.991
257.731
254.251
250.548
246.621
242.469
238.096
233.504
228.699
223.689
218.482
213.09
207.526
201.802
195.934
189.94
183.835
177.639
171.37
165.048
158.692
152.321
145.955
139.613
133.313
127.073
120.909
114.838
108.875
103.033
97.327
91.767
86.364
81.1273
76.0651
71.184
66.4898
61.9867
57.6779
53.5656
49.6506
45.9327
42.4109
39.0831
35.9463
32.9969
30.2305
27.6421
25.2259
22.9761
20.8861
18.9493
17.1587
15.507
13.9872
12.5918
11.3138
10.1457
9.08063
8.11148
7.23138
6.4335
5.71092
5.05639
4.46181
3.91719
3.40882
2.91558
2.40226
1.8067
1.01576
-0.180043
-2.17193
-5.69363
-12.124
-24.0566
-46.3715
-88.2516
-166.976
-315.053
-593.633
-1117.73
-2103.6
-3957.88
-7444.88
-14001.1
-26325.9
-49490.1
300
300
300
300
300
300
300
300
300
300
300
300
300
300
300
300
300
300
300
300
300
300
300
300
300
300
300
300
300
300
300
300
300
300
300
300
300
300
300
300
300
300
300
300
300
300
300
300
300
299.999
299.999
299.999
299.999
299.998
299.998
299.998
299.997
299.996
299.995
299.994
299.993
299.991
299.989
299.987
299.984
299.981
299.977
299.973
299.968
299.962
299.956
299.948
299.94
299.93
299.92
299.908
299.894
299.88
299.863
299.845
299.825
299.803
299.779
299.753
299.724
299.693
299.66
299.623
299.585
299.543
299.498
299.451
299.4
299.346
299.289
299.229
299.165
299.099
299.029
298.956
298.88
298.8
298.718
298.632
298.544
298.453
298.359
298.262
298.164
298.062
297.959
297.854
297.747
297.638
297.527
297.415
297.302
297.188
297.072
296.955
296.837
296.718
296.598
296.476
296.354
296.229
296.103
295.975
295.844
295.71
295.573
295.432
295.285
295.134
294.975
294.809
294.633
294.447
294.248
294.036
293.807
293.559
293.291
292.997
292.676
292.324
291.937
291.509
291.037
290.514
289.935
289.294
288.583
287.796
286.923
285.958
284.89
283.712
282.413
280.984
279.414
277.694
275.813
273.763
271.533
269.114
266.498
263.677
260.646
257.397
253.928
250.234
246.316
242.172
237.805
233.22
228.42
223.415
218.212
212.823
207.261
201.538
195.671
189.676
183.571
177.374
171.104
164.78
158.422
152.049
145.681
139.337
133.036
126.795
120.63
114.56
108.597
102.757
97.0529
91.4958
86.0964
80.8641
75.8068
70.9315
66.2436
61.7474
57.4462
53.3418
49.4351
45.7259
42.2131
38.8944
35.767
32.8269
30.0699
27.4907
25.0838
22.843
20.7619
18.8337
17.0513
15.4077
13.8955
12.5074
11.2363
10.0748
9.01587
8.05251
7.17783
6.385
5.66709
5.01688
4.42627
3.88528
3.38019
2.88988
2.37911
1.78566
0.996287
-0.198712
-2.19091
-5.71464
-12.1498
-24.0918
-46.4235
-88.3327
-167.106
-315.264
-593.976
-1118.28
-2104.5
-3959.29
-7447.07
-14004.4
-26330.8
-49497.2
300
300
300
300
300
300
300
300
300
300
300
300
300
300
300
300
300
300
300
300
300
300
300
300
300
300
300
300
300
300
300
300
300
300
300
300
300
300
300
300
300
300
300
300
300
300
300
300
299.999
299.999
299.999
299.999
299.998
299.998
299.997
299.997
299.996
299.995
299.993
299.992
299.99
299.988
299.985
299.982
299.978
299.974
299.969
299.963
299.957
299.949
299.941
299.931
299.92
299.907
299.893
299.877
299.86
299.84
299.819
299.795
299.769
299.741
299.71
299.676
299.639
299.599
299.556
299.51
299.461
299.408
299.351
299.291
299.227
299.16
299.088
299.013
298.934
298.851
298.765
298.675
298.581
298.483
298.383
298.279
298.171
298.061
297.948
297.833
297.715
297.595
297.473
297.349
297.224
297.097
296.969
296.84
296.71
296.58
296.449
296.318
296.186
296.055
295.922
295.79
295.657
295.523
295.388
295.253
295.116
294.976
294.835
294.69
294.541
294.387
294.228
294.062
293.887
293.703
293.508
293.299
293.074
292.832
292.569
292.283
291.97
291.626
291.247
290.829
290.367
289.856
289.288
288.659
287.961
287.187
286.328
285.376
284.323
283.159
281.875
280.46
278.906
277.201
275.335
273.299
271.083
268.678
266.076
263.269
260.25
257.013
253.555
249.872
245.963
241.829
237.47
232.891
228.098
223.097
217.899
212.513
206.953
201.232
195.366
189.371
183.266
177.068
170.796
164.471
158.111
151.737
145.368
139.023
132.72
126.479
120.315
114.245
108.284
102.446
96.7446
91.1913
85.7965
80.5695
75.5184
70.6499
65.9695
61.4815
57.1889
53.0937
49.1966
45.4973
41.9947
38.6864
35.5694
32.64
29.8934
27.3247
24.928
22.6973
20.6259
18.7072
16.934
15.2992
13.7954
12.4154
11.1519
9.99762
8.94548
7.98847
7.11971
6.33238
5.61959
4.97409
4.3878
3.85075
3.34923
2.86211
2.35411
1.76296
0.975288
-0.218816
-2.21131
-5.73719
-12.1775
-24.1294
-46.479
-88.4192
-167.245
-315.489
-594.342
-1118.87
-2105.45
-3960.79
-7449.42
-14008
-26336.1
-49504.8
300