/*--------------------------------*- C++ -*----------------------------------*\
| =========                 |                                                 |
| \\      /  F ield         | OpenFOAM: The Open Source CFD Toolbox           |
|  \\    /   O peration     | Version:  2306                                  |
|   \\  /    A nd           | Website:  www.openfoam.com                      |
|    \\/     M anipulation  |                                                 |
\*---------------------------------------------------------------------------*/
FoamFile
{
    version     2.0;
    format      ascii;
    arch        "LSB;label=32;scalar=64";
    class       volVectorField;
    location    "5";
    object      U;
}
// * * * * * * * * * * * * * * * * * * * * * * * * * * * * * * * * * * * * * //

dimensions      [0 1 -1 0 0 0 0];

internalField   nonuniform List<vector> 
32768
(
(1.00001 -4.04601e-05 0)
(1.00017 -0.000121579 0)
(1.00049 -0.000202842 0)
(1.00097 -0.000284254 0)
(1.00162 -0.000365917 0)
(1.00244 -0.000447931 0)
(1.00342 -0.000530358 0)
(1.00456 -0.000613255 0)
(1.00587 -0.000696684 0)
(1.00735 -0.000780704 0)
(1.00899 -0.000865373 0)
(1.01081 -0.000950738 0)
(1.0128 -0.00103684 0)
(1.01496 -0.00112372 0)
(1.01729 -0.0012114 0)
(1.0198 -0.0012999 0)
(1.02249 -0.00138922 0)
(1.02536 -0.00147938 0)
(1.02841 -0.00157035 0)
(1.03164 -0.00166212 0)
(1.03506 -0.00175465 0)
(1.03866 -0.0018479 0)
(1.04245 -0.00194179 0)
(1.04643 -0.00203627 0)
(1.0506 -0.00213123 0)
(1.05496 -0.00222659 0)
(1.05951 -0.00232221 0)
(1.06425 -0.00241798 0)
(1.06918 -0.00251374 0)
(1.0743 -0.00260933 0)
(1.07962 -0.00270457 0)
(1.08512 -0.00279928 0)
(1.09082 -0.00289325 0)
(1.0967 -0.00298626 0)
(1.10276 -0.00307809 0)
(1.10901 -0.00316851 0)
(1.11544 -0.00325726 0)
(1.12204 -0.00334409 0)
(1.12882 -0.00342874 0)
(1.13576 -0.00351095 0)
(1.14286 -0.00359047 0)
(1.15013 -0.00366702 0)
(1.15754 -0.00374035 0)
(1.16509 -0.0038102 0)
(1.17278 -0.00387634 0)
(1.1806 -0.00393853 0)
(1.18854 -0.00399654 0)
(1.19659 -0.00405017 0)
(1.20474 -0.00409924 0)
(1.21299 -0.00414357 0)
(1.22132 -0.00418302 0)
(1.22973 -0.00421746 0)
(1.2382 -0.00424678 0)
(1.24672 -0.00427091 0)
(1.25529 -0.00428978 0)
(1.26389 -0.00430338 0)
(1.27251 -0.00431168 0)
(1.28114 -0.00431472 0)
(1.28977 -0.00431252 0)
(1.29839 -0.00430514 0)
(1.307 -0.00429267 0)
(1.31557 -0.00427519 0)
(1.3241 -0.00425283 0)
(1.33258 -0.00422571 0)
(1.34101 -0.00419396 0)
(1.34936 -0.00415774 0)
(1.35764 -0.00411719 0)
(1.36584 -0.00407248 0)
(1.37394 -0.00402377 0)
(1.38194 -0.00397121 0)
(1.38983 -0.00391497 0)
(1.3976 -0.00385519 0)
(1.40525 -0.00379203 0)
(1.41277 -0.00372562 0)
(1.42015 -0.00365609 0)
(1.4274 -0.00358357 0)
(1.43449 -0.00350816 0)
(1.44143 -0.00342996 0)
(1.44821 -0.00334905 0)
(1.45483 -0.0032655 0)
(1.46128 -0.00317937 0)
(1.46755 -0.0030907 0)
(1.47364 -0.00299953 0)
(1.47955 -0.00290588 0)
(1.48527 -0.00280977 0)
(1.49079 -0.00271118 0)
(1.49611 -0.00261013 0)
(1.50123 -0.0025066 0)
(1.50614 -0.00240058 0)
(1.51083 -0.00229206 0)
(1.51531 -0.00218101 0)
(1.51956 -0.00206742 0)
(1.52358 -0.00195129 0)
(1.52736 -0.0018326 0)
(1.53091 -0.00171137 0)
(1.53421 -0.00158759 0)
(1.53726 -0.0014613 0)
(1.54006 -0.00133252 0)
(1.54259 -0.0012013 0)
(1.54486 -0.0010677 0)
(1.54686 -0.000931798 0)
(1.54859 -0.000793683 0)
(1.55004 -0.000653462 0)
(1.55121 -0.000511259 0)
(1.55209 -0.000367211 0)
(1.55267 -0.000221475 0)
(1.55297 -7.42175e-05 0)
(1.55297 7.43717e-05 0)
(1.55267 0.000224089 0)
(1.55207 0.000374722 0)
(1.55117 0.000526047 0)
(1.54997 0.000677829 0)
(1.54846 0.000829818 0)
(1.54665 0.000981757 0)
(1.54453 0.00113338 0)
(1.54211 0.00128442 0)
(1.53939 0.0014346 0)
(1.53637 0.00158365 0)
(1.53306 0.00173126 0)
(1.52945 0.00187718 0)
(1.52554 0.0020211 0)
(1.52136 0.00216275 0)
(1.51689 0.00230185 0)
(1.51215 0.00243813 0)
(1.50713 0.0025713 0)
(1.50186 0.00270111 0)
(1.49632 0.0028273 0)
(1.49054 0.00294961 0)
(1.48452 0.0030678 0)
(1.47827 0.00318164 0)
(1.47179 0.00329091 0)
(1.4651 0.00339539 0)
(1.4582 0.0034949 0)
(1.45111 0.00358924 0)
(1.44384 0.00367825 0)
(1.43639 0.00376178 0)
(1.42878 0.00383967 0)
(1.42103 0.00391183 0)
(1.41313 0.00397814 0)
(1.40511 0.00403851 0)
(1.39697 0.00409287 0)
(1.38873 0.00414119 0)
(1.3804 0.00418343 0)
(1.37199 0.00421958 0)
(1.36351 0.00424965 0)
(1.35498 0.00427367 0)
(1.34641 0.00429169 0)
(1.33781 0.00430378 0)
(1.32919 0.00431001 0)
(1.32056 0.00431049 0)
(1.31194 0.00430535 0)
(1.30333 0.00429472 0)
(1.29475 0.00427875 0)
(1.28621 0.00425761 0)
(1.27772 0.00423147 0)
(1.26928 0.00420053 0)
(1.26091 0.00416499 0)
(1.25261 0.00412505 0)
(1.2444 0.00408094 0)
(1.23629 0.00403288 0)
(1.22827 0.0039811 0)
(1.22036 0.00392582 0)
(1.21256 0.00386727 0)
(1.20488 0.00380569 0)
(1.19733 0.00374129 0)
(1.18992 0.00367429 0)
(1.18263 0.00360488 0)
(1.17549 0.00353324 0)
(1.1685 0.00345954 0)
(1.16165 0.00338389 0)
(1.15496 0.00330641 0)
(1.14843 0.00322713 0)
(1.14205 0.00314608 0)
(1.13584 0.00306323 0)
(1.1298 0.00297852 0)
(1.12393 0.00289187 0)
(1.11823 0.00280318 0)
(1.11271 0.00271236 0)
(1.10738 0.00261936 0)
(1.10223 0.00252416 0)
(1.09728 0.00242685 0)
(1.09253 0.00232758 0)
(1.08797 0.00222664 0)
(1.08362 0.00212441 0)
(1.07948 0.00202142 0)
(1.07554 0.00191828 0)
(1.0718 0.00181568 0)
(1.06827 0.00171437 0)
(1.06495 0.00161513 0)
(1.06181 0.00151871 0)
(1.05887 0.00142583 0)
(1.05611 0.00133711 0)
(1.05352 0.00125309 0)
(1.0511 0.00117415 0)
(1.04883 0.00110056 0)
(1.0467 0.00103247 0)
(1.0447 0.00096986 0)
(1.04282 0.000912625 0)
(1.04105 0.000860545 0)
(1.03938 0.000813323 0)
(1.0378 0.000770601 0)
(1.03629 0.000731983 0)
(1.03487 0.000697055 0)
(1.03351 0.0006654 0)
(1.03221 0.000636615 0)
(1.03096 0.00061032 0)
(1.02977 0.000586166 0)
(1.02862 0.000563841 0)
(1.02751 0.000543069 0)
(1.02645 0.000523616 0)
(1.02542 0.000505279 0)
(1.02443 0.000487895 0)
(1.02347 0.000471326 0)
(1.02254 0.000455465 0)
(1.02165 0.000440223 0)
(1.02078 0.000425533 0)
(1.01994 0.000411343 0)
(1.01914 0.000397612 0)
(1.01835 0.000384311 0)
(1.0176 0.000371417 0)
(1.01687 0.000358913 0)
(1.01616 0.000346785 0)
(1.01548 0.000335025 0)
(1.01482 0.000323625 0)
(1.01419 0.000312579 0)
(1.01357 0.000301882 0)
(1.01298 0.00029153 0)
(1.01241 0.000281519 0)
(1.01186 0.000271846 0)
(1.01132 0.000262506 0)
(1.01081 0.000253496 0)
(1.01031 0.000244813 0)
(1.00983 0.000236453 0)
(1.00936 0.000228412 0)
(1.00891 0.000220685 0)
(1.00848 0.00021327 0)
(1.00806 0.000206162 0)
(1.00766 0.000199357 0)
(1.00726 0.00019285 0)
(1.00688 0.000186639 0)
(1.00652 0.000180717 0)
(1.00616 0.000175082 0)
(1.00582 0.000169729 0)
(1.00548 0.000164655 0)
(1.00516 0.000159854 0)
(1.00484 0.000155325 0)
(1.00454 0.000151061 0)
(1.00424 0.000147062 0)
(1.00395 0.000143321 0)
(1.00367 0.000139841 0)
(1.00339 0.000136603 0)
(1.00312 0.000133634 0)
(1.00286 0.000130876 0)
(1.00258 0.000128388 0)
(1.00238 0.000126172 0)
(1.00198 0.000123696 0)
(1.00001 -0.000121556 0)
(1.00017 -0.000364959 0)
(1.00049 -0.000608708 0)
(1.00097 -0.000852938 0)
(1.00162 -0.00109793 0)
(1.00244 -0.00134393 0)
(1.00341 -0.00159117 0)
(1.00456 -0.00183981 0)
(1.00587 -0.00209006 0)
(1.00734 -0.00234208 0)
(1.00899 -0.00259606 0)
(1.0108 -0.00285213 0)
(1.01279 -0.00311043 0)
(1.01495 -0.00337105 0)
(1.01728 -0.00363409 0)
(1.01979 -0.00389959 0)
(1.02248 -0.00416759 0)
(1.02535 -0.00443809 0)
(1.02839 -0.00471105 0)
(1.03163 -0.0049864 0)
(1.03504 -0.00526405 0)
(1.03864 -0.00554385 0)
(1.04243 -0.00582562 0)
(1.04641 -0.00610914 0)
(1.05058 -0.00639415 0)
(1.05494 -0.00668034 0)
(1.05948 -0.00696735 0)
(1.06423 -0.00725479 0)
(1.06916 -0.00754222 0)
(1.07428 -0.00782916 0)
(1.0796 -0.00811507 0)
(1.08511 -0.00839939 0)
(1.0908 -0.0086815 0)
(1.09669 -0.00896075 0)
(1.10276 -0.00923647 0)
(1.10901 -0.00950793 0)
(1.11544 -0.00977441 0)
(1.12205 -0.0100351 0)
(1.12883 -0.0102893 0)
(1.13578 -0.0105362 0)
(1.14289 -0.010775 0)
(1.15016 -0.0110048 0)
(1.15758 -0.0112251 0)
(1.16514 -0.0114348 0)
(1.17284 -0.0116334 0)
(1.18067 -0.0118202 0)
(1.18862 -0.0119944 0)
(1.19668 -0.0121554 0)
(1.20484 -0.0123027 0)
(1.2131 -0.0124358 0)
(1.22144 -0.0125543 0)
(1.22986 -0.0126576 0)
(1.23834 -0.0127456 0)
(1.24688 -0.012818 0)
(1.25545 -0.0128747 0)
(1.26407 -0.0129154 0)
(1.2727 -0.0129403 0)
(1.28134 -0.0129493 0)
(1.28998 -0.0129426 0)
(1.29862 -0.0129204 0)
(1.30723 -0.0128828 0)
(1.31582 -0.0128303 0)
(1.32436 -0.012763 0)
(1.33285 -0.0126815 0)
(1.34129 -0.0125861 0)
(1.34965 -0.0124773 0)
(1.35794 -0.0123554 0)
(1.36615 -0.0122211 0)
(1.37426 -0.0120748 0)
(1.38226 -0.011917 0)
(1.39016 -0.011748 0)
(1.39794 -0.0115686 0)
(1.4056 -0.0113789 0)
(1.41313 -0.0111795 0)
(1.42052 -0.0109708 0)
(1.42777 -0.0107531 0)
(1.43487 -0.0105268 0)
(1.44182 -0.0102921 0)
(1.4486 -0.0100493 0)
(1.45523 -0.00979854 0)
(1.46168 -0.00954008 0)
(1.46796 -0.00927402 0)
(1.47406 -0.00900047 0)
(1.47997 -0.00871948 0)
(1.48569 -0.00843109 0)
(1.49122 -0.00813532 0)
(1.49655 -0.00783215 0)
(1.50167 -0.00752154 0)
(1.50659 -0.00720347 0)
(1.51129 -0.00687787 0)
(1.51577 -0.00654471 0)
(1.52002 -0.00620393 0)
(1.52405 -0.0058555 0)
(1.52784 -0.00549941 0)
(1.53139 -0.00513566 0)
(1.5347 -0.00476428 0)
(1.53775 -0.00438533 0)
(1.54055 -0.00399892 0)
(1.54309 -0.00360517 0)
(1.54537 -0.00320427 0)
(1.54738 -0.00279645 0)
(1.54911 -0.00238198 0)
(1.55056 -0.00196117 0)
(1.55173 -0.0015344 0)
(1.55261 -0.00110208 0)
(1.5532 -0.000664681 0)
(1.5535 -0.000222717 0)
(1.55351 0.000223255 0)
(1.55321 0.000672634 0)
(1.55261 0.00112478 0)
(1.55171 0.001579 0)
(1.55051 0.0020346 0)
(1.549 0.00249083 0)
(1.54719 0.00294692 0)
(1.54507 0.00340207 0)
(1.54265 0.00385547 0)
(1.53992 0.00430629 0)
(1.5369 0.00475369 0)
(1.53358 0.00519682 0)
(1.52996 0.00563483 0)
(1.52606 0.00606688 0)
(1.52186 0.0064921 0)
(1.51739 0.00690967 0)
(1.51264 0.00731875 0)
(1.50762 0.00771852 0)
(1.50233 0.00810819 0)
(1.49679 0.00848698 0)
(1.491 0.00885413 0)
(1.48497 0.00920891 0)
(1.4787 0.00955064 0)
(1.47221 0.00987863 0)
(1.46551 0.0101923 0)
(1.4586 0.0104909 0)
(1.4515 0.0107741 0)
(1.44421 0.0110413 0)
(1.43675 0.011292 0)
(1.42913 0.0115258 0)
(1.42136 0.0117423 0)
(1.41345 0.0119413 0)
(1.40541 0.0121224 0)
(1.39726 0.0122856 0)
(1.38901 0.0124305 0)
(1.38066 0.0125572 0)
(1.37224 0.0126656 0)
(1.36375 0.0127558 0)
(1.3552 0.0128278 0)
(1.34662 0.0128817 0)
(1.338 0.0129179 0)
(1.32937 0.0129365 0)
(1.32073 0.0129378 0)
(1.31209 0.0129222 0)
(1.30347 0.0128901 0)
(1.29488 0.012842 0)
(1.28633 0.0127784 0)
(1.27782 0.0126998 0)
(1.26937 0.0126067 0)
(1.26099 0.0124999 0)
(1.25269 0.0123799 0)
(1.24447 0.0122473 0)
(1.23634 0.0121029 0)
(1.22831 0.0119472 0)
(1.22039 0.0117812 0)
(1.21259 0.0116053 0)
(1.2049 0.0114203 0)
(1.19735 0.0112268 0)
(1.18992 0.0110255 0)
(1.18263 0.0108171 0)
(1.17549 0.0106019 0)
(1.16849 0.0103806 0)
(1.16164 0.0101534 0)
(1.15494 0.00992073 0)
(1.1484 0.0096827 0)
(1.14202 0.00943934 0)
(1.13581 0.00919061 0)
(1.12977 0.00893632 0)
(1.12389 0.00867621 0)
(1.11819 0.00841 0)
(1.11268 0.00813743 0)
(1.10734 0.00785832 0)
(1.1022 0.00757264 0)
(1.09724 0.00728062 0)
(1.09249 0.00698276 0)
(1.08793 0.00667988 0)
(1.08358 0.00637317 0)
(1.07943 0.00606417 0)
(1.07549 0.0057547 0)
(1.07176 0.00544687 0)
(1.06823 0.00514293 0)
(1.0649 0.00484518 0)
(1.06177 0.00455591 0)
(1.05883 0.00427724 0)
(1.05607 0.00401106 0)
(1.05348 0.00375895 0)
(1.05106 0.00352211 0)
(1.04878 0.00330134 0)
(1.04666 0.00309703 0)
(1.04466 0.00290919 0)
(1.04278 0.00273747 0)
(1.04101 0.00258122 0)
(1.03934 0.00243954 0)
(1.03776 0.00231137 0)
(1.03626 0.00219551 0)
(1.03483 0.00209072 0)
(1.03347 0.00199575 0)
(1.03217 0.0019094 0)
(1.03093 0.00183051 0)
(1.02973 0.00175805 0)
(1.02858 0.00169108 0)
(1.02748 0.00162877 0)
(1.02641 0.00157041 0)
(1.02539 0.0015154 0)
(1.02439 0.00146325 0)
(1.02344 0.00141355 0)
(1.02251 0.00136596 0)
(1.02162 0.00132024 0)
(1.02075 0.00127618 0)
(1.01992 0.00123361 0)
(1.01911 0.00119242 0)
(1.01833 0.00115252 0)
(1.01757 0.00111384 0)
(1.01684 0.00107633 0)
(1.01614 0.00103996 0)
(1.01546 0.00100468 0)
(1.0148 0.000970485 0)
(1.01417 0.000937352 0)
(1.01355 0.000905266 0)
(1.01296 0.000874216 0)
(1.01239 0.000844188 0)
(1.01184 0.000815173 0)
(1.0113 0.00078716 0)
(1.01079 0.000760137 0)
(1.01029 0.000734094 0)
(1.00981 0.000709019 0)
(1.00935 0.000684901 0)
(1.0089 0.000661729 0)
(1.00847 0.00063949 0)
(1.00805 0.000618171 0)
(1.00764 0.000597762 0)
(1.00725 0.000578249 0)
(1.00687 0.000559619 0)
(1.00651 0.000541861 0)
(1.00615 0.000524961 0)
(1.00581 0.000508909 0)
(1.00547 0.000493691 0)
(1.00515 0.000479295 0)
(1.00484 0.000465711 0)
(1.00453 0.000452927 0)
(1.00423 0.000440934 0)
(1.00394 0.000429717 0)
(1.00366 0.000419273 0)
(1.00339 0.000409584 0)
(1.00311 0.000400642 0)
(1.00286 0.000392476 0)
(1.00258 0.00038484 0)
(1.00238 0.000378674 0)
(1.00198 0.000370648 0)
(1.00001 -0.000202681 0)
(1.00017 -0.000608219 0)
(1.00049 -0.00101425 0)
(1.00097 -0.00142115 0)
(1.00162 -0.00182932 0)
(1.00243 -0.00223916 0)
(1.00341 -0.00265103 0)
(1.00455 -0.00306526 0)
(1.00586 -0.00348218 0)
(1.00733 -0.00390209 0)
(1.00897 -0.00432527 0)
(1.01079 -0.00475196 0)
(1.01277 -0.00518238 0)
(1.01493 -0.00561671 0)
(1.01726 -0.00605509 0)
(1.01977 -0.00649761 0)
(1.02245 -0.00694433 0)
(1.02532 -0.00739525 0)
(1.02836 -0.00785031 0)
(1.03159 -0.0083094 0)
(1.035 -0.00877235 0)
(1.0386 -0.00923894 0)
(1.04239 -0.00970885 0)
(1.04637 -0.0101817 0)
(1.05054 -0.0106571 0)
(1.05489 -0.0111346 0)
(1.05944 -0.0116134 0)
(1.06419 -0.012093 0)
(1.06912 -0.0125726 0)
(1.07425 -0.0130515 0)
(1.07957 -0.0135287 0)
(1.08508 -0.0140033 0)
(1.09078 -0.0144742 0)
(1.09667 -0.0149405 0)
(1.10275 -0.0154008 0)
(1.10901 -0.0158541 0)
(1.11545 -0.0162991 0)
(1.12207 -0.0167346 0)
(1.12886 -0.0171591 0)
(1.13582 -0.0175715 0)
(1.14295 -0.0179703 0)
(1.15023 -0.0183543 0)
(1.15766 -0.0187222 0)
(1.16524 -0.0190726 0)
(1.17296 -0.0194044 0)
(1.18081 -0.0197164 0)
(1.18877 -0.0200074 0)
(1.19686 -0.0202765 0)
(1.20504 -0.0205226 0)
(1.21332 -0.0207449 0)
(1.22169 -0.0209427 0)
(1.23013 -0.0211153 0)
(1.23863 -0.0212622 0)
(1.24719 -0.0213831 0)
(1.25579 -0.0214775 0)
(1.26442 -0.0215454 0)
(1.27308 -0.0215868 0)
(1.28175 -0.0216017 0)
(1.29041 -0.0215903 0)
(1.29907 -0.0215529 0)
(1.30771 -0.02149 0)
(1.31631 -0.021402 0)
(1.32488 -0.0212894 0)
(1.33339 -0.021153 0)
(1.34185 -0.0209935 0)
(1.35024 -0.0208115 0)
(1.35854 -0.0206079 0)
(1.36677 -0.0203835 0)
(1.37489 -0.020139 0)
(1.38292 -0.0198754 0)
(1.39083 -0.0195933 0)
(1.39863 -0.0192936 0)
(1.4063 -0.018977 0)
(1.41384 -0.0186442 0)
(1.42125 -0.0182959 0)
(1.42851 -0.0179326 0)
(1.43563 -0.017555 0)
(1.44259 -0.0171635 0)
(1.44939 -0.0167585 0)
(1.45602 -0.0163404 0)
(1.46249 -0.0159094 0)
(1.46878 -0.0154658 0)
(1.47489 -0.0150097 0)
(1.48081 -0.0145413 0)
(1.48654 -0.0140606 0)
(1.49208 -0.0135675 0)
(1.49742 -0.0130622 0)
(1.50256 -0.0125445 0)
(1.50748 -0.0120144 0)
(1.5122 -0.0114717 0)
(1.51669 -0.0109164 0)
(1.52095 -0.0103484 0)
(1.52499 -0.00976758 0)
(1.52879 -0.009174 0)
(1.53235 -0.00856763 0)
(1.53567 -0.00794851 0)
(1.53874 -0.00731673 0)
(1.54155 -0.00667246 0)
(1.5441 -0.00601593 0)
(1.54638 -0.00534742 0)
(1.5484 -0.00466732 0)
(1.55014 -0.00397608 0)
(1.5516 -0.00327423 0)
(1.55277 -0.00256238 0)
(1.55366 -0.00184124 0)
(1.55426 -0.00111158 0)
(1.55457 -0.000374257 0)
(1.55457 0.000369791 0)
(1.55428 0.00111957 0)
(1.55368 0.001874 0)
(1.55279 0.00263194 0)
(1.55158 0.0033922 0)
(1.55007 0.00415354 0)
(1.54826 0.00491466 0)
(1.54614 0.00567424 0)
(1.54371 0.00643093 0)
(1.54098 0.00718332 0)
(1.53795 0.00793002 0)
(1.53462 0.00866962 0)
(1.531 0.00940068 0)
(1.52708 0.0101218 0)
(1.52287 0.0108315 0)
(1.51839 0.0115285 0)
(1.51362 0.0122113 0)
(1.50858 0.0128785 0)
(1.50328 0.0135289 0)
(1.49772 0.0141612 0)
(1.49191 0.014774 0)
(1.48586 0.0153661 0)
(1.47957 0.0159365 0)
(1.47306 0.0164839 0)
(1.46634 0.0170073 0)
(1.45941 0.0175058 0)
(1.45228 0.0179784 0)
(1.44497 0.0184242 0)
(1.43748 0.0188425 0)
(1.42983 0.0192326 0)
(1.42204 0.0195939 0)
(1.4141 0.0199259 0)
(1.40603 0.020228 0)
(1.39785 0.0205001 0)
(1.38957 0.0207418 0)
(1.3812 0.020953 0)
(1.37274 0.0211337 0)
(1.36422 0.0212839 0)
(1.35565 0.0214037 0)
(1.34704 0.0214934 0)
(1.33839 0.0215533 0)
(1.32973 0.0215839 0)
(1.32106 0.0215856 0)
(1.3124 0.0215592 0)
(1.30376 0.0215052 0)
(1.29514 0.0214244 0)
(1.28656 0.0213177 0)
(1.27803 0.021186 0)
(1.26956 0.0210302 0)
(1.26116 0.0208514 0)
(1.25283 0.0206505 0)
(1.24459 0.0204287 0)
(1.23644 0.0201871 0)
(1.2284 0.0199269 0)
(1.22046 0.0196492 0)
(1.21264 0.0193552 0)
(1.20494 0.019046 0)
(1.19737 0.0187227 0)
(1.18993 0.0183863 0)
(1.18263 0.018038 0)
(1.17547 0.0176785 0)
(1.16846 0.0173088 0)
(1.1616 0.0169294 0)
(1.1549 0.0165408 0)
(1.14835 0.0161433 0)
(1.14197 0.015737 0)
(1.13575 0.0153218 0)
(1.1297 0.0148974 0)
(1.12382 0.0144633 0)
(1.11812 0.0140191 0)
(1.1126 0.0135644 0)
(1.10726 0.0130988 0)
(1.10212 0.0126224 0)
(1.09716 0.0121354 0)
(1.0924 0.0116387 0)
(1.08785 0.0111338 0)
(1.0835 0.0106224 0)
(1.07935 0.0101073 0)
(1.07541 0.00959138 0)
(1.07167 0.00907822 0)
(1.06814 0.00857153 0)
(1.06482 0.00807519 0)
(1.06168 0.00759296 0)
(1.05874 0.00712841 0)
(1.05598 0.00668468 0)
(1.0534 0.0062644 0)
(1.05097 0.00586956 0)
(1.0487 0.00550151 0)
(1.04657 0.00516091 0)
(1.04457 0.00484776 0)
(1.0427 0.00456148 0)
(1.04093 0.004301 0)
(1.03926 0.00406481 0)
(1.03768 0.00385114 0)
(1.03618 0.003658 0)
(1.03475 0.00348332 0)
(1.0334 0.00332502 0)
(1.0321 0.00318107 0)
(1.03085 0.00304958 0)
(1.02966 0.0029288 0)
(1.02851 0.00281717 0)
(1.02741 0.00271331 0)
(1.02635 0.00261604 0)
(1.02532 0.00252436 0)
(1.02433 0.00243744 0)
(1.02337 0.0023546 0)
(1.02245 0.0022753 0)
(1.02156 0.00219909 0)
(1.02069 0.00212565 0)
(1.01986 0.00205471 0)
(1.01905 0.00198606 0)
(1.01827 0.00191957 0)
(1.01752 0.00185511 0)
(1.01679 0.0017926 0)
(1.01609 0.00173198 0)
(1.01541 0.00167319 0)
(1.01476 0.00161621 0)
(1.01412 0.001561 0)
(1.01351 0.00150753 0)
(1.01292 0.00145579 0)
(1.01235 0.00140576 0)
(1.0118 0.00135742 0)
(1.01127 0.00131074 0)
(1.01075 0.00126572 0)
(1.01026 0.00122233 0)
(1.00978 0.00118055 0)
(1.00931 0.00114037 0)
(1.00887 0.00110177 0)
(1.00844 0.00106472 0)
(1.00802 0.00102921 0)
(1.00762 0.000995211 0)
(1.00723 0.000962706 0)
(1.00685 0.000931674 0)
(1.00648 0.000902094 0)
(1.00613 0.000873945 0)
(1.00579 0.000847207 0)
(1.00545 0.00082186 0)
(1.00513 0.000797884 0)
(1.00482 0.000775259 0)
(1.00451 0.000753967 0)
(1.00422 0.000733991 0)
(1.00393 0.000715314 0)
(1.00365 0.000697911 0)
(1.00337 0.0006818 0)
(1.0031 0.000666862 0)
(1.00285 0.00065339 0)
(1.00257 0.000640477 0)
(1.00237 0.000630737 0)
(1.00197 0.000616676 0)
(1.00001 -0.000283534 0)
(1.00017 -0.000850802 0)
(1.00048 -0.00141877 0)
(1.00097 -0.00198798 0)
(1.00162 -0.00255901 0)
(1.00243 -0.00313238 0)
(1.0034 -0.00370861 0)
(1.00454 -0.00428817 0)
(1.00584 -0.00487153 0)
(1.00732 -0.00545912 0)
(1.00895 -0.00605131 0)
(1.01076 -0.00664848 0)
(1.01274 -0.00725091 0)
(1.0149 -0.00785888 0)
(1.01722 -0.00847257 0)
(1.01973 -0.00909213 0)
(1.02241 -0.00971764 0)
(1.02527 -0.0103491 0)
(1.02831 -0.0109864 0)
(1.03154 -0.0116295 0)
(1.03495 -0.0122781 0)
(1.03854 -0.0129318 0)
(1.04233 -0.0135903 0)
(1.04631 -0.0142531 0)
(1.05047 -0.0149194 0)
(1.05483 -0.0155887 0)
(1.05938 -0.0162602 0)
(1.06412 -0.0169327 0)
(1.06906 -0.0176055 0)
(1.07419 -0.0182772 0)
(1.07952 -0.0189467 0)
(1.08504 -0.0196127 0)
(1.09074 -0.0202736 0)
(1.09664 -0.020928 0)
(1.10273 -0.0215743 0)
(1.109 -0.0222107 0)
(1.11546 -0.0228356 0)
(1.12209 -0.0234471 0)
(1.1289 -0.0240434 0)
(1.13588 -0.0246227 0)
(1.14303 -0.025183 0)
(1.15033 -0.0257225 0)
(1.15779 -0.0262393 0)
(1.16539 -0.0267317 0)
(1.17314 -0.027198 0)
(1.18101 -0.0276363 0)
(1.18901 -0.0280452 0)
(1.19712 -0.0284233 0)
(1.20534 -0.0287691 0)
(1.21365 -0.0290814 0)
(1.22205 -0.0293592 0)
(1.23052 -0.0296016 0)
(1.23906 -0.0298079 0)
(1.24766 -0.0299775 0)
(1.25629 -0.0301099 0)
(1.26496 -0.0302051 0)
(1.27365 -0.0302629 0)
(1.28236 -0.0302834 0)
(1.29106 -0.0302671 0)
(1.29975 -0.0302142 0)
(1.30842 -0.0301253 0)
(1.31706 -0.0300013 0)
(1.32566 -0.0298428 0)
(1.33421 -0.0296509 0)
(1.34269 -0.0294264 0)
(1.35111 -0.0291705 0)
(1.35944 -0.0288843 0)
(1.36769 -0.0285689 0)
(1.37585 -0.0282255 0)
(1.3839 -0.0278551 0)
(1.39184 -0.0274591 0)
(1.39966 -0.0270384 0)
(1.40736 -0.0265941 0)
(1.41492 -0.0261272 0)
(1.42235 -0.0256386 0)
(1.42963 -0.0251292 0)
(1.43676 -0.0245998 0)
(1.44374 -0.024051 0)
(1.45056 -0.0234834 0)
(1.45721 -0.0228975 0)
(1.4637 -0.0222937 0)
(1.47 -0.0216723 0)
(1.47613 -0.0210335 0)
(1.48207 -0.0203775 0)
(1.48782 -0.0197044 0)
(1.49338 -0.0190141 0)
(1.49873 -0.0183065 0)
(1.50389 -0.0175817 0)
(1.50883 -0.0168395 0)
(1.51356 -0.0160797 0)
(1.51806 -0.0153022 0)
(1.52235 -0.014507 0)
(1.5264 -0.0136938 0)
(1.53022 -0.0128626 0)
(1.5338 -0.0120134 0)
(1.53713 -0.0111464 0)
(1.54021 -0.0102615 0)
(1.54304 -0.00935903 0)
(1.5456 -0.0084393 0)
(1.5479 -0.0075027 0)
(1.54993 -0.00654975 0)
(1.55168 -0.00558109 0)
(1.55316 -0.00459746 0)
(1.55434 -0.00359972 0)
(1.55524 -0.00258885 0)
(1.55585 -0.00156594 0)
(1.55616 -0.000532188 0)
(1.55618 0.00051108 0)
(1.55589 0.00156245 0)
(1.5553 0.00262042 0)
(1.5544 0.0036834 0)
(1.55319 0.0047497 0)
(1.55168 0.00581757 0)
(1.54987 0.0068852 0)
(1.54774 0.00795071 0)
(1.54531 0.00901221 0)
(1.54257 0.0100677 0)
(1.53953 0.0111153 0)
(1.53619 0.0121529 0)
(1.53255 0.0131786 0)
(1.52861 0.0141903 0)
(1.52439 0.0151861 0)
(1.51988 0.016164 0)
(1.5151 0.017122 0)
(1.51004 0.0180582 0)
(1.50471 0.0189708 0)
(1.49912 0.0198579 0)
(1.49328 0.0207177 0)
(1.4872 0.0215485 0)
(1.48088 0.0223487 0)
(1.47434 0.0231168 0)
(1.46758 0.0238512 0)
(1.46061 0.0245505 0)
(1.45345 0.0252134 0)
(1.4461 0.0258388 0)
(1.43857 0.0264256 0)
(1.43089 0.0269727 0)
(1.42305 0.0274794 0)
(1.41507 0.0279448 0)
(1.40696 0.0283684 0)
(1.39874 0.0287497 0)
(1.39041 0.0290884 0)
(1.38199 0.0293843 0)
(1.3735 0.0296372 0)
(1.36494 0.0298473 0)
(1.35632 0.0300148 0)
(1.34766 0.0301399 0)
(1.33898 0.0302232 0)
(1.33028 0.0302653 0)
(1.32157 0.0302669 0)
(1.31287 0.0302289 0)
(1.30418 0.0301523 0)
(1.29553 0.030038 0)
(1.28691 0.0298873 0)
(1.27834 0.0297015 0)
(1.26984 0.0294819 0)
(1.2614 0.0292299 0)
(1.25304 0.0289471 0)
(1.24477 0.0286349 0)
(1.23659 0.0282949 0)
(1.22852 0.0279289 0)
(1.22056 0.0275383 0)
(1.21271 0.0271248 0)
(1.20499 0.02669 0)
(1.1974 0.0262355 0)
(1.18994 0.0257628 0)
(1.18262 0.0252734 0)
(1.17545 0.0247684 0)
(1.16843 0.024249 0)
(1.16155 0.0237161 0)
(1.15484 0.0231705 0)
(1.14828 0.0226124 0)
(1.14189 0.0220422 0)
(1.13566 0.0214595 0)
(1.1296 0.020864 0)
(1.12372 0.0202552 0)
(1.11801 0.0196323 0)
(1.11249 0.0189948 0)
(1.10715 0.0183422 0)
(1.102 0.0176745 0)
(1.09704 0.0169922 0)
(1.09228 0.0162963 0)
(1.08772 0.0155889 0)
(1.08337 0.0148727 0)
(1.07922 0.0141512 0)
(1.07528 0.0134287 0)
(1.07154 0.0127101 0)
(1.06801 0.0120005 0)
(1.06469 0.0113054 0)
(1.06155 0.0106301 0)
(1.05861 0.00997947 0)
(1.05585 0.00935802 0)
(1.05327 0.00876941 0)
(1.05084 0.00821642 0)
(1.04857 0.00770094 0)
(1.04645 0.0072239 0)
(1.04445 0.00678531 0)
(1.04257 0.00638436 0)
(1.04081 0.00601954 0)
(1.03914 0.00568875 0)
(1.03756 0.0053895 0)
(1.03606 0.00511902 0)
(1.03464 0.0048744 0)
(1.03328 0.00465271 0)
(1.03199 0.00445114 0)
(1.03075 0.00426702 0)
(1.02955 0.00409789 0)
(1.02841 0.00394158 0)
(1.02731 0.00379616 0)
(1.02625 0.00365996 0)
(1.02522 0.0035316 0)
(1.02423 0.0034099 0)
(1.02328 0.00329391 0)
(1.02236 0.00318287 0)
(1.02147 0.00307618 0)
(1.02061 0.00297335 0)
(1.01978 0.00287403 0)
(1.01897 0.00277793 0)
(1.01819 0.00268484 0)
(1.01744 0.0025946 0)
(1.01672 0.00250709 0)
(1.01602 0.00242222 0)
(1.01534 0.00233994 0)
(1.01469 0.00226017 0)
(1.01405 0.00218289 0)
(1.01344 0.00210806 0)
(1.01286 0.00203564 0)
(1.01229 0.00196562 0)
(1.01174 0.00189796 0)
(1.01121 0.00183264 0)
(1.0107 0.00176964 0)
(1.0102 0.00170892 0)
(1.00973 0.00165046 0)
(1.00927 0.00159424 0)
(1.00882 0.00154023 0)
(1.00839 0.00148839 0)
(1.00798 0.00143871 0)
(1.00757 0.00139114 0)
(1.00719 0.00134567 0)
(1.00681 0.00130226 0)
(1.00645 0.00126088 0)
(1.0061 0.0012215 0)
(1.00575 0.0011841 0)
(1.00542 0.00114864 0)
(1.0051 0.00111511 0)
(1.00479 0.00108346 0)
(1.00449 0.00105368 0)
(1.00419 0.00102574 0)
(1.00391 0.000999618 0)
(1.00363 0.000975275 0)
(1.00336 0.00095275 0)
(1.00308 0.000931847 0)
(1.00283 0.000913047 0)
(1.00255 0.000894937 0)
(1.00236 0.000881428 0)
(1.00196 0.000861566 0)
(1.00001 -0.000364139 0)
(1.00017 -0.00109268 0)
(1.00048 -0.00182212 0)
(1.00097 -0.00255321 0)
(1.00161 -0.00328665 0)
(1.00242 -0.00402314 0)
(1.00339 -0.00476334 0)
(1.00453 -0.00550787 0)
(1.00583 -0.00625734 0)
(1.00729 -0.0070123 0)
(1.00893 -0.00777326 0)
(1.01073 -0.00854069 0)
(1.01271 -0.00931498 0)
(1.01485 -0.0100965 0)
(1.01718 -0.0108854 0)
(1.01967 -0.0116821 0)
(1.02235 -0.0124864 0)
(1.02521 -0.0132986 0)
(1.02824 -0.0141185 0)
(1.03146 -0.0149459 0)
(1.03487 -0.0157805 0)
(1.03846 -0.0166219 0)
(1.04225 -0.0174696 0)
(1.04622 -0.0183229 0)
(1.05038 -0.0191811 0)
(1.05474 -0.0200432 0)
(1.05929 -0.0209082 0)
(1.06404 -0.0217749 0)
(1.06898 -0.022642 0)
(1.07412 -0.023508 0)
(1.07945 -0.0243712 0)
(1.08497 -0.0252301 0)
(1.09069 -0.0260826 0)
(1.0966 -0.0269269 0)
(1.1027 -0.0277608 0)
(1.10899 -0.0285823 0)
(1.11547 -0.0293889 0)
(1.12212 -0.0301784 0)
(1.12895 -0.0309484 0)
(1.13596 -0.0316965 0)
(1.14313 -0.0324202 0)
(1.15046 -0.0331171 0)
(1.15795 -0.0337848 0)
(1.16559 -0.034421 0)
(1.17337 -0.0350233 0)
(1.18128 -0.0355897 0)
(1.18932 -0.0361181 0)
(1.19747 -0.0366065 0)
(1.20573 -0.0370532 0)
(1.21409 -0.0374566 0)
(1.22253 -0.0378154 0)
(1.23105 -0.0381284 0)
(1.23964 -0.0383946 0)
(1.24828 -0.0386133 0)
(1.25696 -0.038784 0)
(1.26568 -0.0389064 0)
(1.27442 -0.0389805 0)
(1.28317 -0.0390064 0)
(1.29192 -0.0389846 0)
(1.30065 -0.0389156 0)
(1.30937 -0.0388002 0)
(1.31806 -0.0386392 0)
(1.3267 -0.0384339 0)
(1.33529 -0.0381853 0)
(1.34381 -0.0378949 0)
(1.35227 -0.0375639 0)
(1.36065 -0.0371939 0)
(1.36893 -0.0367863 0)
(1.37712 -0.0363427 0)
(1.38521 -0.0358645 0)
(1.39318 -0.0353533 0)
(1.40103 -0.0348105 0)
(1.40876 -0.0342374 0)
(1.41635 -0.0336353 0)
(1.42381 -0.0330056 0)
(1.43112 -0.0323492 0)
(1.43828 -0.0316672 0)
(1.44528 -0.0309604 0)
(1.45213 -0.0302296 0)
(1.4588 -0.0294754 0)
(1.46531 -0.0286984 0)
(1.47164 -0.0278988 0)
(1.47779 -0.0270771 0)
(1.48375 -0.0262334 0)
(1.48952 -0.0253676 0)
(1.4951 -0.0244799 0)
(1.50048 -0.0235702 0)
(1.50566 -0.0226382 0)
(1.51062 -0.0216839 0)
(1.51537 -0.020707 0)
(1.5199 -0.0197074 0)
(1.5242 -0.0186847 0)
(1.52828 -0.017639 0)
(1.53212 -0.0165701 0)
(1.53572 -0.015478 0)
(1.53907 -0.0143627 0)
(1.54218 -0.0132243 0)
(1.54502 -0.0120632 0)
(1.54761 -0.0108797 0)
(1.54993 -0.00967429 0)
(1.55197 -0.0084477 0)
(1.55374 -0.0072007 0)
(1.55523 -0.00593424 0)
(1.55643 -0.00464945 0)
(1.55735 -0.00334758 0)
(1.55797 -0.00203003 0)
(1.55829 -0.000698366 0)
(1.55831 0.000645726 0)
(1.55803 0.0020004 0)
(1.55744 0.00336371 0)
(1.55655 0.00473359 0)
(1.55535 0.00610786 0)
(1.55383 0.00748428 0)
(1.55201 0.00886047 0)
(1.54988 0.010234 0)
(1.54744 0.0116025 0)
(1.54469 0.0129633 0)
(1.54163 0.0143139 0)
(1.53827 0.0156518 0)
(1.53462 0.0169743 0)
(1.53066 0.0182788 0)
(1.52641 0.0195628 0)
(1.52188 0.0208238 0)
(1.51706 0.0220591 0)
(1.51197 0.0232664 0)
(1.50661 0.0244431 0)
(1.50099 0.025587 0)
(1.49511 0.0266957 0)
(1.48899 0.0277671 0)
(1.48263 0.0287989 0)
(1.47604 0.0297892 0)
(1.46924 0.0307361 0)
(1.46222 0.0316377 0)
(1.45501 0.0324924 0)
(1.44761 0.0332986 0)
(1.44003 0.0340549 0)
(1.43229 0.03476 0)
(1.42439 0.0354129 0)
(1.41636 0.0360125 0)
(1.4082 0.0365582 0)
(1.39992 0.0370492 0)
(1.39153 0.0374852 0)
(1.38306 0.0378658 0)
(1.3745 0.038191 0)
(1.36589 0.0384609 0)
(1.35721 0.0386756 0)
(1.3485 0.0388358 0)
(1.33976 0.0389419 0)
(1.331 0.0389948 0)
(1.32224 0.0389954 0)
(1.31348 0.0389449 0)
(1.30474 0.0388444 0)
(1.29604 0.0386954 0)
(1.28737 0.0384995 0)
(1.27876 0.0382581 0)
(1.27021 0.0379732 0)
(1.26172 0.0376465 0)
(1.25332 0.03728 0)
(1.24501 0.0368757 0)
(1.2368 0.0364357 0)
(1.22869 0.0359619 0)
(1.22069 0.0354566 0)
(1.21281 0.0349219 0)
(1.20506 0.0343597 0)
(1.19744 0.0337722 0)
(1.18996 0.0331613 0)
(1.18261 0.0325289 0)
(1.17542 0.0318765 0)
(1.16837 0.0312058 0)
(1.16148 0.0305178 0)
(1.15475 0.0298134 0)
(1.14818 0.0290933 0)
(1.14177 0.0283576 0)
(1.13554 0.0276061 0)
(1.12947 0.0268383 0)
(1.12358 0.0260536 0)
(1.11786 0.0252509 0)
(1.11233 0.0244297 0)
(1.10699 0.0235893 0)
(1.10183 0.0227296 0)
(1.09687 0.0218513 0)
(1.09211 0.0209559 0)
(1.08755 0.0200457 0)
(1.0832 0.0191243 0)
(1.07905 0.0181961 0)
(1.07511 0.0172668 0)
(1.07137 0.0163424 0)
(1.06784 0.0154297 0)
(1.06451 0.0145356 0)
(1.06138 0.0136669 0)
(1.05844 0.0128301 0)
(1.05568 0.0120307 0)
(1.05309 0.0112736 0)
(1.05067 0.0105622 0)
(1.0484 0.00989913 0)
(1.04628 0.00928546 0)
(1.04428 0.00872126 0)
(1.04241 0.00820548 0)
(1.04064 0.00773617 0)
(1.03898 0.00731067 0)
(1.0374 0.00692575 0)
(1.03591 0.00657783 0)
(1.03449 0.00626319 0)
(1.03313 0.00597807 0)
(1.03184 0.00571883 0)
(1.0306 0.00548203 0)
(1.02941 0.00526454 0)
(1.02827 0.00506353 0)
(1.02717 0.00487652 0)
(1.02611 0.00470138 0)
(1.02509 0.00453631 0)
(1.02411 0.00437981 0)
(1.02316 0.00423067 0)
(1.02224 0.00408789 0)
(1.02135 0.0039507 0)
(1.02049 0.00381849 0)
(1.01966 0.00369078 0)
(1.01886 0.00356722 0)
(1.01809 0.00344753 0)
(1.01734 0.00333151 0)
(1.01662 0.00321901 0)
(1.01592 0.00310992 0)
(1.01525 0.00300414 0)
(1.01459 0.00290161 0)
(1.01397 0.00280227 0)
(1.01336 0.00270609 0)
(1.01277 0.00261302 0)
(1.01221 0.00252303 0)
(1.01166 0.00243608 0)
(1.01113 0.00235214 0)
(1.01063 0.00227118 0)
(1.01013 0.00219316 0)
(1.00966 0.00211806 0)
(1.0092 0.00204583 0)
(1.00876 0.00197644 0)
(1.00833 0.00190985 0)
(1.00792 0.00184602 0)
(1.00752 0.00178492 0)
(1.00713 0.00172651 0)
(1.00676 0.00167075 0)
(1.0064 0.0016176 0)
(1.00605 0.00156703 0)
(1.00571 0.001519 0)
(1.00538 0.00147346 0)
(1.00507 0.0014304 0)