/*--------------------------------*- C++ -*----------------------------------*\
| =========                 |                                                 |
| \\      /  F ield         | OpenFOAM: The Open Source CFD Toolbox           |
|  \\    /   O peration     | Version:  2306                                  |
|   \\  /    A nd           | Website:  www.openfoam.com                      |
|    \\/     M anipulation  |                                                 |
\*---------------------------------------------------------------------------*/
FoamFile
{
    version     2.0;
    format      ascii;
    arch        "LSB;label=32;scalar=64";
    class       volScalarField;
    location    "8";
    object      Keff;
}
// * * * * * * * * * * * * * * * * * * * * * * * * * * * * * * * * * * * * * //

dimensions      [1 1 -3 -1 0 0 0];

internalField   nonuniform List<scalar> 
32768
(
67.2037
67.2017
67.1976
67.1914
67.1831
67.1727
67.1601
67.1455
67.1288
67.1099
67.0888
67.0656
67.0402
67.0125
66.9826
66.9505
66.9161
66.8794
66.8404
66.799
66.7552
66.7091
66.6606
66.6096
66.5562
66.5004
66.4421
66.3814
66.3182
66.2525
66.1844
66.1138
66.0408
65.9653
65.8875
65.8073
65.7248
65.64
65.553
65.4639
65.3726
65.2792
65.184
65.0868
64.9878
64.8872
64.7849
64.6812
64.576
64.4696
64.3621
64.2535
64.1439
64.0337
63.9227
63.8112
63.6993
63.5871
63.4747
63.3623
63.25
63.1378
63.026
62.9145
62.8035
62.6932
62.5835
62.4746
62.3666
62.2595
62.1534
62.0483
61.9444
61.8416
61.74
61.6396
61.5406
61.4428
61.3464
61.2513
61.1576
61.0653
60.9744
60.8849
60.7968
60.7101
60.6248
60.541
60.4586
60.3776
60.2981
60.22
60.1434
60.0682
59.9945
59.9223
59.8516
59.7824
59.7147
59.6486
59.5841
59.5212
59.4599
59.4004
59.3425
59.2864
59.2321
59.1796
59.129
59.0803
59.0336
58.989
58.9464
58.906
58.8678
58.8318
58.7981
58.7668
58.7378
58.7114
58.6874
58.666
58.6472
58.6311
58.6176
58.607
58.5991
58.594
58.5918
58.5925
58.5961
58.6027
58.6123
58.6248
58.6404
58.659
58.6807
58.7054
58.7332
58.764
58.7979
58.8348
58.8748
58.9178
58.9638
59.0128
59.0647
59.1196
59.1774
59.2381
59.3016
59.3679
59.4369
59.5087
59.583
59.66
59.7395
59.8214
59.9057
59.9924
60.0813
60.1724
60.2656
60.3607
60.4579
60.5568
60.6575
60.7598
60.8637
60.969
61.0757
61.1836
61.2927
61.4028
61.5138
61.6257
61.7382
61.8513
61.9649
62.0789
62.1932
62.3076
62.422
62.5364
62.6506
62.7645
62.878
62.9911
63.1036
63.2154
63.3265
63.4367
63.546
63.6542
63.7614
63.8674
63.9721
64.0756
64.1777
64.2783
64.3775
64.4752
64.5713
64.6658
64.7587
64.8499
64.9394
65.0271
65.1131
65.1974
65.2799
65.3606
65.4395
65.5167
65.592
65.6656
65.7374
65.8075
65.8758
65.9423
66.0072
66.0703
66.1318
66.1916
66.2498
66.3064
66.3615
66.4149
66.4669
66.5174
66.5665
66.6141
66.6604
66.7053
66.7488
66.7912
66.8322
66.8721
66.9108
66.9483
66.9848
67.0202
67.0545
67.0879
67.1203
67.1518
67.1824
67.2122
67.2411
67.2694
67.2967
67.3238
67.3489
67.3765
67.3961
67.4349
67.2037
67.2017
67.1976
67.1914
67.1831
67.1727
67.1602
67.1455
67.1288
67.1099
67.0889
67.0656
67.0402
67.0126
66.9827
66.9506
66.9162
66.8795
66.8404
66.7991
66.7553
66.7092
66.6607
66.6097
66.5563
66.5004
66.4421
66.3814
66.3181
66.2524
66.1842
66.1136
66.0405
65.965
65.8871
65.8069
65.7243
65.6394
65.5523
65.463
65.3717
65.2782
65.1828
65.0855
64.9864
64.8856
64.7832
64.6794
64.5741
64.4675
64.3598
64.2511
64.1414
64.031
63.9199
63.8082
63.6962
63.5838
63.4713
63.3588
63.2463
63.1341
63.0221
62.9105
62.7995
62.689
62.5793
62.4703
62.3622
62.255
62.1488
62.0437
61.9397
61.8369
61.7352
61.6349
61.5358
61.438
61.3416
61.2465
61.1528
61.0604
60.9695
60.88
60.7919
60.7052
60.6199
60.5361
60.4537
60.3727
60.2932
60.2151
60.1385
60.0633
59.9896
59.9173
59.8466
59.7774
59.7097
59.6436
59.579
59.5161
59.4548
59.3952
59.3373
59.2811
59.2268
59.1742
59.1236
59.0749
59.0282
58.9835
58.9409
58.9004
58.8621
58.8261
58.7923
58.7609
58.732
58.7054
58.6814
58.66
58.6412
58.625
58.6115
58.6008
58.5929
58.5878
58.5855
58.5862
58.5898
58.5964
58.6059
58.6184
58.634
58.6526
58.6743
58.699
58.7267
58.7576
58.7915
58.8284
58.8684
58.9114
58.9574
59.0064
59.0584
59.1134
59.1712
59.2319
59.2954
59.3618
59.4308
59.5026
59.577
59.6541
59.7336
59.8156
59.9
59.9867
60.0757
60.1669
60.2601
60.3554
60.4526
60.5516
60.6524
60.7548
60.8588
60.9643
61.0711
61.1791
61.2883
61.3985
61.5096
61.6216
61.7342
61.8475
61.9612
62.0754
62.1897
62.3042
62.4188
62.5333
62.6476
62.7617
62.8754
62.9885
63.1012
63.2131
63.3243
63.4346
63.544
63.6523
63.7596
63.8657
63.9706
64.0741
64.1763
64.277
64.3763
64.4741
64.5703
64.6648
64.7578
64.849
64.9386
65.0264
65.1125
65.1968
65.2793
65.36
65.439
65.5162
65.5916
65.6652
65.737
65.8071
65.8754
65.942
66.0068
66.07
66.1315
66.1913
66.2495
66.3061
66.3611
66.4146
66.4666
66.517
66.5661
66.6137
66.6599
66.7048
66.7484
66.7907
66.8317
66.8716
66.9102
66.9478
66.9842
67.0196
67.0539
67.0873
67.1197
67.1511
67.1817
67.2115
67.2404
67.2686
67.2959
67.3229
67.3481
67.3757
67.3952
67.434
67.2037
67.2017
67.1976
67.1914
67.1831
67.1727
67.1602
67.1456
67.1289
67.11
67.089
67.0658
67.0404
67.0127
66.9829
66.9508
66.9164
66.8797
66.8406
66.7992
66.7555
66.7094
66.6608
66.6098
66.5564
66.5005
66.4422
66.3813
66.318
66.2522
66.184
66.1132
66.04
65.9644
65.8864
65.806
65.7233
65.6382
65.5509
65.4614
65.3698
65.2762
65.1805
65.083
64.9836
64.8826
64.7799
64.6758
64.5702
64.4633
64.3553
64.2463
64.1363
64.0256
63.9142
63.8023
63.6899
63.5773
63.4646
63.3518
63.239
63.1265
63.0143
62.9026
62.7913
62.6807
62.5707
62.4616
62.3533
62.246
62.1397
62.0345
61.9304
61.8275
61.7258
61.6253
61.5262
61.4284
61.3319
61.2368
61.143
61.0507
60.9597
60.8702
60.7821
60.6954
60.6101
60.5263
60.4439
60.3629
60.2834
60.2053
60.1286
60.0534
59.9797
59.9074
59.8366
59.7674
59.6997
59.6335
59.5689
59.5059
59.4445
59.3848
59.3269
59.2706
59.2162
59.1636
59.1129
59.0641
59.0172
58.9724
58.9297
58.8892
58.8508
58.8146
58.7808
58.7493
58.7202
58.6936
58.6695
58.648
58.6291
58.6128
58.5993
58.5885
58.5805
58.5753
58.573
58.5736
58.5772
58.5837
58.5932
58.6057
58.6212
58.6398
58.6615
58.6862
58.7139
58.7448
58.7787
58.8156
58.8556
58.8987
58.9447
58.9938
59.0458
59.1008
59.1587
59.2195
59.2831
59.3495
59.4187
59.4906
59.5651
59.6422
59.7219
59.804
59.8885
59.9754
60.0645
60.1559
60.2493
60.3447
60.4421
60.5413
60.6423
60.7449
60.8491
60.9548
61.0618
61.17
61.2794
61.3899
61.5013
61.6134
61.7264
61.8399
61.9538
62.0682
62.1828
62.2976
62.4124
62.5272
62.6418
62.7561
62.87
62.9834
63.0963
63.2084
63.3199
63.4304
63.54
63.6486
63.7561
63.8624
63.9674
64.0712
64.1735
64.2745
64.3739
64.4718
64.5682
64.6629
64.756
64.8473
64.937
65.0249
65.1111
65.1955
65.2781
65.359
65.438
65.5152
65.5907
65.6643
65.7362
65.8063
65.8746
65.9412
66.0061
66.0693
66.1308
66.1906
66.2488
66.3054
66.3604
66.4139
66.4658
66.5163
66.5653
66.6129
66.6591
66.704
66.7475
66.7898
66.8308
66.8706
66.9092
66.9467
66.9831
67.0184
67.0527
67.086
67.1184
67.1498
67.1803
67.2101
67.2389
67.2671
67.2943
67.3213
67.3464
67.374
67.3935
67.4322
67.2037
67.2017
67.1976
67.1914
67.1831
67.1727
67.1603
67.1457
67.129
67.1101
67.0891
67.0659
67.0405
67.0129
66.9831
66.951
66.9166
66.8799
66.8409
66.7995
66.7558
66.7096
66.661
66.61
66.5566
66.5006
66.4422
66.3813
66.3179
66.252
66.1836
66.1127
66.0394
65.9635
65.8853
65.8047
65.7217
65.6364
65.5488
65.4591
65.3671
65.2731
65.1771
65.0792
64.9795
64.878
64.775
64.6704
64.5644
64.4571
64.3486
64.2391
64.1287
64.0176
63.9057
63.7934
63.6806
63.5676
63.4544
63.3412
63.2281
63.1153
63.0027
62.8906
62.779
62.6681
62.5579
62.4486
62.3401
62.2325
62.1261
62.0207
61.9164
61.8134
61.7116
61.611
61.5118
61.4139
61.3174
61.2222
61.1284
61.0361
60.9451
60.8556
60.7674
60.6807
60.5954
60.5116
60.4292
60.3482
60.2686
60.1905
60.1138
60.0386
59.9648
59.8925
59.8217
59.7524
59.6846
59.6184
59.5537
59.4906
59.4292
59.3694
59.3113
59.2549
59.2004
59.1476
59.0968
59.0478
59.0009
58.9559
58.9131
58.8723
58.8338
58.7975
58.7635
58.7319
58.7027
58.6759
58.6517
58.63
58.6109
58.5946
58.5809
58.57
58.5619
58.5566
58.5542
58.5548
58.5582
58.5647
58.5741
58.5866
58.6021
58.6206
58.6422
58.6669
58.6947
58.7255
58.7595
58.7964
58.8365
58.8796
58.9257
58.9748
59.0269
59.082
59.14
59.2009
59.2646
59.3311
59.4004
59.4725
59.5472
59.6244
59.7043
59.7866
59.8713
59.9584
60.0478
60.1393
60.233
60.3287
60.4263
60.5258
60.6271
60.73
60.8345
60.9405
61.0478
61.1564
61.2662
61.377
61.4887
61.6013
61.7145
61.8284
61.9428
62.0575
62.1725
62.2877
62.4029
62.518
62.633
62.7476
62.8619
62.9757
63.0889
63.2015
63.3132
63.4241
63.5341
63.643
63.7508
63.8574
63.9628
64.0668
64.1694
64.2706
64.3703
64.4685
64.5651
64.66
64.7533
64.8448
64.9347
65.0228
65.1091
65.1936
65.2764
65.3573
65.4365
65.5138
65.5893
65.6631
65.735
65.8052
65.8735
65.9402
66.0051
66.0683
66.1298
66.1896
66.2478
66.3044
66.3594
66.4128
66.4648
66.5152
66.5642
66.6117
66.6579
66.7027
66.7462
66.7884
66.8293
66.8691
66.9076
66.9451
66.9814
67.0167
67.0509
67.0841
67.1164
67.1478
67.1783
67.2079
67.2367
67.2648
67.292
67.3189
67.344
67.3715
67.3909
67.4295
67.2037
67.2017
67.1976
67.1915
67.1832
67.1728
67.1604
67.1458
67.1291
67.1103
67.0893
67.0662
67.0408
67.0132
66.9834
66.9514
66.917
66.8803
66.8413
66.7999
66.7562
66.71
66.6614
66.6103
66.5568
66.5008
66.4423
66.3813
66.3177
66.2517
66.1831
66.112
66.0385
65.9624
65.8839
65.803
65.7197
65.634
65.5461
65.4559
65.3636
65.2691
65.1726
65.0742
64.974
64.872
64.7683
64.6632
64.5566
64.4487
64.3397
64.2296
64.1186
64.0068
63.8944
63.7815
63.6681
63.5546
63.4409
63.3271
63.2135
63.1002
62.9872
62.8747
62.7627
62.6514
62.5408
62.4311
62.3224
62.2146
62.1078
62.0022
61.8978
61.7946
61.6926
61.5919
61.4926
61.3946
61.298
61.2028
61.109
61.0166
60.9256
60.836
60.7479
60.6612
60.5759
60.492
60.4096
60.3286
60.249
60.1709
60.0942
60.0189
59.9451
59.8728
59.8019
59.7325
59.6646
59.5983
59.5335
59.4703
59.4087
59.3488
59.2905
59.234
59.1793
59.1264
59.0753
59.0262
58.9791
58.9339
58.8909
58.8499
58.8112
58.7747
58.7405
58.7087
58.6793
58.6523
58.6279
58.606
58.5868
58.5703
58.5564
58.5454
58.5371
58.5317
58.5292
58.5296
58.533
58.5394
58.5487
58.5611
58.5766
58.5951
58.6167
58.6413
58.6691
58.6999
58.7339
58.7709
58.811
58.8541
58.9003
58.9495
59.0017
59.0569
59.115
59.1761
59.2399
59.3067
59.3762
59.4484
59.5233
59.6008
59.6809
59.7634
59.8484
59.9358
60.0255
60.1173
60.2113
60.3074
60.4054
60.5052
60.6069
60.7102
60.8151
60.9215
61.0293
61.1383
61.2485
61.3598
61.472
61.585
61.6988
61.8131
61.928
62.0432
62.1587
62.2744
62.3901
62.5058
62.6212
62.7364
62.8512
62.9655
63.0792
63.1922
63.3045
63.4158
63.5262
63.6356
63.7438
63.8508
63.9566
64.061
64.164
64.2655
64.3656
64.4641
64.5609
64.6562
64.7497
64.8415
64.9316
65.0199
65.1065
65.1912
65.2741
65.3552
65.4345
65.512
65.5876
65.6614
65.7334
65.8037
65.8721
65.9388
66.0037
66.0669
66.1285
66.1883
66.2465
66.3031
66.358
66.4114
66.4633
66.5137
66.5627
66.6101
66.6563
66.701
66.7444
66.7865
66.8274
66.8671
66.9056
66.9429
66.9792
67.0144
67.0485
67.0816
67.1138
67.1451
67.1755
67.2051
67.2338
67.2618
67.2889
67.3157
67.3407
67.3681
67.3874
67.4259
67.2037
67.2017
67.1977
67.1915
67.1832
67.1729
67.1605
67.1459
67.1293
67.1105
67.0896
67.0664
67.0411
67.0136
66.9838
66.9518
66.9175
66.8808
66.8418
66.8004
66.7567
66.7105
66.6618
66.6107
66.5571
66.501
66.4424
66.3813
66.3176
66.2513
66.1826
66.1112
66.0374
65.9611
65.8822
65.8009
65.7172
65.6311
65.5427
65.452
65.3591
65.2641
65.1671
65.068
64.9671
64.8644
64.7601
64.6542
64.5469
64.4383
64.3286
64.2177
64.106
63.9935
63.8803
63.7666
63.6526
63.5383
63.4239
63.3095
63.1953
63.0814
62.9678
62.8547
62.7422
62.6305
62.5195
62.4094
62.3002
62.1921
62.085
61.9792
61.8745
61.7711
61.6689
61.5681
61.4686
61.3705
61.2738
61.1786
61.0847
60.9922
60.9012
60.8117
60.7235
60.6368
60.5515
60.4676
60.3852
60.3042
60.2246
60.1464
60.0697
59.9944
59.9205
59.8481
59.7771
59.7077
59.6397
59.5732
59.5083
59.445
59.3832
59.3231
59.2647
59.208
59.153
59.0999
59.0486
58.9993
58.9519
58.9065
58.8632
58.822
58.783
58.7463
58.7118
58.6797
58.6501
58.6229
58.5982
58.5761
58.5567
58.5399
58.5259
58.5146
58.5062
58.5006
58.498
58.4983
58.5015
58.5077
58.517
58.5293
58.5447
58.5632
58.5847
58.6093
58.6371
58.668
58.7019
58.739
58.7791
58.8224
58.8686
58.918
58.9703
59.0256
59.0839
59.1451
59.2092
59.2761
59.3458
59.4183
59.4934
59.5712
59.6516
59.7345
59.8198
59.9076
59.9976
60.0898
60.1842
60.2807
60.3791
60.4795
60.5816
60.6854
60.7908
60.8977
61.0061
61.1156
61.2264
61.3383
61.4511
61.5647
61.6791
61.7941
61.9096
62.0254
62.1416
62.2579
62.3742
62.4905
62.6066
62.7224
62.8378
62.9527
63.0671
63.1807
63.2935
63.4054
63.5164
63.6263
63.7351
63.8426
63.9489
64.0537
64.1572
64.2592
64.3597
64.4586
64.5558
64.6514
64.7453
64.8374
64.9278
65.0164
65.1032
65.1882
65.2713
65.3526
65.432
65.5097
65.5854
65.6594
65.7315
65.8018
65.8703
65.9371
66.0021
66.0653
66.1268
66.1867
66.2449
66.3014
66.3564
66.4097
66.4616
66.5119
66.5608
66.6082
66.6542
66.6989
66.7422
66.7843
66.8251
66.8646
66.903
66.9403
66.9764
67.0115
67.0455
67.0785
67.1106
67.1418
67.1721
67.2015
67.2301
67.258
67.285
67.3117
67.3366
67.3639
67.3831
67.4214
67.2037
67.2017
67.1977
67.1915
67.1833
67.173
67.1606
67.1461
67.1295
67.1108
67.0899
67.0668
67.0416
67.0141
66.9844
66.9524
66.9181
66.8814
66.8425
66.8011
66.7573
66.7111
66.6624
66.6113
66.5576
66.5014
66.4426
66.3813
66.3175
66.251
66.182
66.1104
66.0362
65.9595
65.8803
65.7985
65.7143
65.6277
65.5388
65.4475
65.3539
65.2582
65.1604
65.0606
64.959
64.8555
64.7503
64.6436
64.5354
64.4259
64.3152
64.2035
64.0908
63.9774
63.8633
63.7488
63.6339
63.5187
63.4035
63.2884
63.1734
63.0587
62.9445
62.8307
62.7176
62.6053
62.4938
62.3832
62.2736
62.1651
62.0577
61.9515
61.8465
61.7428
61.6405
61.5395
61.4399
61.3417
61.2449
61.1495
61.0556
60.9631
60.8721
60.7825
60.6943
60.6076
60.5223
60.4384
60.356
60.275
60.1954
60.1172
60.0404
59.965
59.8911
59.8186
59.7476
59.678
59.6099
59.5433
59.4782
59.4147
59.3527
59.2924
59.2338
59.1768
59.1216
59.0683
59.0167
58.9671
58.9194
58.8737
58.8301
58.7886
58.7493
58.7122
58.6775
58.6451
58.6151
58.5877
58.5627
58.5403
58.5206
58.5036
58.4893
58.4778
58.4692
58.4634
58.4606
58.4607
58.4638
58.4699
58.479
58.4912
58.5065
58.5249
58.5464
58.571
58.5988
58.6297
58.6636
58.7008
58.741
58.7843
58.8307
58.8801
58.9326
58.9881
59.0466
59.108
59.1723
59.2394
59.3094
59.3822
59.4577
59.5358
59.6165
59.6998
59.7855
59.8737
59.9641
60.0569
60.1517
60.2487
60.3477
60.4486
60.5513
60.6557
60.7617
60.8693
60.9782
61.0885
61.1999
61.3125
61.426
61.5404
61.6555
61.7712
61.8875
62.0041
62.121
62.2381
62.3552
62.4722
62.5891
62.7057
62.8218
62.9375
63.0525
63.1669
63.2804
63.393
63.5047
63.6152
63.7246
63.8328
63.9397
64.0451
64.1492
64.2517
64.3527
64.452
64.5497
64.6458
64.74
64.8326
64.9233
65.0122
65.0993
65.1846
65.268
65.3495
65.4292
65.507
65.5829
65.657
65.7292
65.7997
65.8683
65.9351
66.0001
66.0634
66.1249
66.1848
66.2429
66.2995
66.3544
66.4077
66.4595
66.5098
66.5586
66.6059
66.6518
66.6964
66.7396
66.7816
66.8222
66.8617
66.8999
66.9371
66.9731
67.008
67.0419
67.0748
67.1068
67.1378
67.1679
67.1972
67.2257
67.2535
67.2803
67.3069
67.3316
67.3588
67.3779
67.4161
67.2037
67.2017
67.1977
67.1916
67.1834
67.1731
67.1608
67.1463
67.1298
67.1111
67.0903
67.0673
67.0421
67.0147
66.985
66.953
66.9188
66.8822
66.8433
66.8019
66.7581
66.7119
66.6632
66.612
66.5582
66.5019
66.443
66.3815
66.3174
66.2507
66.1814
66.1095
66.035
65.9578
65.8781
65.7959
65.7111
65.6239
65.5343
65.4422
65.348
65.2515
65.1528
65.0521
64.9495
64.8451
64.7389
64.6312
64.522
64.4114
64.2997
64.1869
64.0731
63.9586
63.8435
63.7279
63.612
63.4959
63.3797
63.2636
63.1478
63.0322
62.9172
62.8027
62.6889
62.5759
62.4638
62.3526
62.2425
62.1335
62.0257
61.9191
61.8138
61.7099
61.6073
61.5061
61.4063
61.308
61.2111
61.1156
61.0217
60.9291
60.8381
60.7485
60.6603
60.5736
60.4883
60.4045
60.322
60.241
60.1614
60.0832
60.0064
59.931
59.857
59.7844
59.7132
59.6435
59.5753
59.5085
59.4432
59.3795
59.3173
59.2568
59.1979
59.1407
59.0852
59.0315
58.9796
58.9296
58.8816
58.8356
58.7916
58.7498
58.7101
58.6727
58.6376
58.6048
58.5745
58.5467
58.5214
58.4987
58.4787
58.4613
58.4468
58.435
58.4261
58.4201
58.417
58.4169
58.4198
58.4258
58.4348
58.4469
58.4621
58.4804
58.5018
58.5264
58.5542
58.585
58.6191
58.6562
58.6965
58.7399
58.7865
58.836
58.8887
58.9444
59.0031
59.0647
59.1293
59.1967
59.267
59.3401
59.416
59.4945
59.5756
59.6593
59.7455
59.8342
59.9252
60.0184
60.1139
60.2114
60.311
60.4126
60.5159
60.621
60.7278
60.8361
60.9458
61.0568
61.1691
61.2824
61.3968
61.512
61.628
61.7446
61.8617
61.9792
62.097
62.215
62.333
62.451
62.5687
62.6862
62.8032
62.9198
63.0357
63.1509
63.2652
63.3787
63.4911
63.6024
63.7126
63.8215
63.929
64.0352
64.1399
64.243
64.3446
64.4445
64.5427
64.6393
64.734
64.827
64.9182
65.0075
65.0949
65.1805
65.2642
65.346
65.4259
65.5039
65.58
65.6543
65.7267
65.7972
65.8659
65.9328
65.9979
66.0612
66.1228
66.1826
66.2408
66.2973
66.3521
66.4054
66.4571
66.5073
66.556
66.6033
66.6491
66.6935
66.7366
66.7784
66.819
66.8583
66.8964
66.9334
66.9692
67.004
67.0378
67.0705
67.1023
67.1332
67.1631
67.1923
67.2206
67.2482
67.2749
67.3013
67.3259
67.3529
67.3719
67.4098
67.2037
67.2017
67.1977
67.1916
67.1835
67.1732
67.1609
67.1466
67.1301
67.1115
67.0907
67.0678
67.0427
67.0153
66.9857
66.9539
66.9197
66.8831
66.8442
66.8029
66.7591
66.7129
66.6642
66.6129
66.559
66.5026
66.4436
66.3819
66.3176
66.2506
66.1809
66.1086
66.0337
65.9561
65.8758
65.793
65.7076
65.6197
65.5293
65.4365
65.3413
65.2439
65.1443
65.0426
64.9389
64.8333
64.726
64.6171
64.5067
64.3949
64.282
64.1679
64.053
63.9372
63.8209
63.7041
63.587
63.4698
63.3525
63.2353
63.1184
63.0019
62.886
62.7706
62.656
62.5422
62.4294
62.3176
62.2069
62.0974
61.9891
61.8821
61.7765
61.6722
61.5694
61.468
61.368
61.2695
61.1725
61.077
60.983
60.8904
60.7993
60.7097
60.6216
60.5349
60.4496
60.3658
60.2834
60.2024
60.1227
60.0445
59.9677
59.8922
59.8181
59.7455
59.6742
59.6043
59.5359
59.469
59.4035
59.3395
59.2771
59.2163
59.1571
59.0995
59.0437
58.9896
58.9374
58.887
58.8386
58.7922
58.7478
58.7055
58.6655
58.6276
58.5921
58.5589
58.5282
58.5
58.4743
58.4512
58.4308
58.4132
58.3983
58.3862
58.377
58.3707
58.3674
58.3671
58.3698
58.3755
58.3844
58.3963
58.4114
58.4296
58.451
58.4755
58.5033
58.5342
58.5682
58.6055
58.6458
58.6894
58.736
58.7858
58.8386
58.8945
58.9534
59.0154
59.0802
59.148
59.2187
59.2922
59.3684
59.4474
59.529
59.6132
59.6999
59.7891
59.8807
59.9745
60.0707
60.1689
60.2692
60.3715
60.4756
60.5815
60.689
60.7982
60.9088
61.0207
61.1339
61.2482
61.3635
61.4796
61.5966
61.7142
61.8323
61.9509
62.0697
62.1887
62.3078
62.4267
62.5455
62.664
62.782
62.8996
63.0165
63.1326
63.2479
63.3623
63.4757
63.5879
63.6989
63.8086
63.917
64.0239
64.1293
64.2332
64.3354
64.436
64.5349
64.632
64.7273
64.8208
64.9124
65.0021
65.09
65.1759
65.26
65.3421
65.4223
65.5005
65.5769
65.6513
65.7239
65.7945
65.8633
65.9303
65.9954
66.0588
66.1204
66.1802
66.2384
66.2948
66.3496
66.4028
66.4545
66.5046
66.5531
66.6003
66.646
66.6903
66.7332
66.7749
66.8153
66.8544
66.8924
66.9292
66.9649
66.9995
67.033
67.0656
67.0972
67.1279
67.1577
67.1866
67.2148
67.2422
67.2687
67.295
67.3193
67.3462
67.365
67.4026
67.2037
67.2017
67.1978
67.1917
67.1836
67.1734
67.1612
67.1469
67.1305
67.1119
67.0913
67.0684
67.0434
67.0162
66.9867
66.9549
66.9207
66.8843
66.8454
66.8041
66.7604
66.7141
66.6654
66.614
66.5601
66.5035
66.4443
66.3824
66.3179
66.2506
66.1806
66.1079
66.0324
65.9543
65.8735
65.79
65.7038
65.6151
65.5239
65.4301
65.334
65.2355
65.1348
65.0319
64.9271
64.8203
64.7117
64.6014
64.4896
64.3765
64.2621
64.1467
64.0303
63.9132
63.7955
63.6773
63.5589
63.4403
63.3218
63.2034
63.0854
62.9678
62.8507
62.7344
62.6189
62.5043
62.3907
62.2782
62.1668
62.0567
61.9479
61.8405
61.7344
61.6298
61.5267
61.4251
61.3249
61.2263
61.1292
61.0336
60.9395
60.847
60.7559
60.6663
60.5782
60.4915
60.4063
60.3225
60.2401
60.1591
60.0795
60.0012
59.9244
59.8489
59.7747
59.7019
59.6306
59.5605
59.492
59.4248
59.3591
59.2948
59.2321
59.171
59.1114
59.0535
58.9973
58.9428
58.8902
58.8394
58.7905
58.7436
58.6988
58.656
58.6155
58.5772
58.5412
58.5075
58.4764
58.4477
58.4215
58.3981
58.3773
58.3592
58.3439
58.3315
58.322
58.3154
58.3117
58.3112
58.3136
58.3192
58.3278
58.3396
58.3545
58.3727
58.394
58.4185
58.4462
58.4771
58.5112
58.5485
58.5889
58.6326
58.6794
58.7294
58.7824
58.8386
58.8978
58.96
59.0252
59.0933
59.1644
59.2383
59.315
59.3944
59.4766
59.5613
59.6487
59.7385
59.8307
59.9253
60.0221
60.1211
60.2222
60.3253
60.4302
60.537
60.6455
60.7556
60.8671
60.9801
61.0943
61.2096
61.326
61.4433
61.5614
61.6801
61.7994
61.9191
62.039
62.1592
62.2794
62.3995
62.5195
62.6391
62.7583
62.877
62.995
63.1123
63.2286
63.3441
63.4584
63.5717
63.6837
63.7943
63.9036
64.0114
64.1177
64.2223
64.3253
64.4266
64.5262
64.6239
64.7198
64.8139
64.906
64.9963
65.0846
65.1709
65.2554
65.3378
65.4183
65.4968
65.5734
65.6481
65.7208
65.7916
65.8605
65.9276
65.9928
66.0562
66.1178
66.1776
66.2357
66.2921
66.3469
66.4
66.4515
66.5015
66.55
66.597
66.6425
66.6867
66.7295
66.771
66.8112
66.8501
66.8879
66.9245
66.96
66.9944
67.0277
67.0601
67.0915
67.122
67.1516
67.1803
67.2082
67.2354
67.2617
67.2878
67.312
67.3386
67.3573
67.3946
67.2037
67.2018
67.1978
67.1918
67.1837
67.1736
67.1614
67.1472
67.1309
67.1125
67.0919
67.0692
67.0443
67.0171
66.9877
66.956
66.922
66.8856
66.8468
66.8056
66.7619
66.7156
66.6669
66.6155
66.5614
66.5047
66.4454
66.3833
66.3184
66.2508
66.1804
66.1073
66.0313
65.9526
65.8711
65.7869
65.7
65.6104
65.5181
65.4234
65.3261
65.2265
65.1245
65.0204
64.9141
64.8059
64.6959
64.5841
64.4708
64.3561
64.2401
64.1231
64.0051
63.8864
63.7672
63.6475
63.5276
63.4075
63.2876
63.1679
63.0485
62.9297
62.8115
62.6941
62.5775
62.462
62.3475
62.2342
62.1222
62.0114
61.9021
61.7942
61.6877
61.5827
61.4793
61.3774
61.2771
61.1783
61.0811
60.9855
60.8914
60.7988
60.7078
60.6182
60.5302
60.4435
60.3584
60.2746
60.1923
60.1113
60.0317
59.9535
59.8766
59.801
59.7268
59.6539
59.5824
59.5122
59.4435
59.3761
59.3101
59.2456
59.1825
59.121
59.0611
59.0028
58.9461
58.8912
58.8381
58.7868
58.7374
58.69
58.6446
58.6013
58.5603
58.5214
58.4849
58.4507
58.419
58.3898
58.3632
58.3392
58.318
58.2994
58.2838
58.2709
58.261
58.2541
58.2501
58.2492
58.2514
58.2567
58.2652
58.2768
58.2916
58.3096
58.3308
58.3553
58.3829
58.4138
58.448
58.4853
58.5259
58.5697
58.6167
58.6668
58.7201
58.7765
58.836
58.8986
58.9642
59.0327
59.1042
59.1786
59.2558
59.3357
59.4185
59.5038
59.5918
59.6823
59.7753
59.8706
59.9682
60.068
60.17
60.274
60.3799
60.4877
60.5972
60.7083
60.821
60.935
61.0504
61.1669
61.2845
61.403
61.5223
61.6423
61.7628
61.8838
62.0051
62.1265
62.248
62.3695
62.4907
62.6116
62.7321
62.852
62.9713
63.0898
63.2074
63.324
63.4395
63.5538
63.6669
63.7786
63.8889
63.9977
64.1049
64.2104
64.3143
64.4164
64.5167
64.6152
64.7117
64.8064
64.8992
64.99
65.0788
65.1656
65.2504
65.3332
65.4141
65.4929
65.5697
65.6446
65.7175
65.7885
65.8575
65.9247
65.99
66.0534
66.115
66.1748
66.2329
66.2893
66.3439
66.397
66.4484
66.4983
66.5466
66.5934
66.6388
66.6828
66.7254
66.7667
66.8067
66.8454
66.883
66.9193
66.9546
66.9888
67.0219
67.054
67.0852
67.1154
67.1448
67.1733
67.201
67.228
67.254
67.2799
67.3038
67.3302
67.3487
67.3857
67.2037
67.2018
67.1978
67.1919
67.1838
67.1738
67.1617
67.1476
67.1314
67.1131
67.0926
67.07
67.0453
67.0182
66.989
66.9574
66.9235
66.8872
66.8485
66.8074
66.7637
66.7175
66.6687
66.6172
66.5631
66.5063
66.4468
66.3844
66.3193
66.2513
66.1805
66.1069
66.0304
65.951
65.8688
65.7838
65.696
65.6054
65.5122
65.4163
65.3178
65.2169
65.1135
65.0079
64.9002
64.7904
64.6787
64.5652
64.4502
64.3338
64.216
64.0972
63.9775
63.8571
63.7361
63.6147
63.4931
63.3714
63.2499
63.1287
63.0079
62.8877
62.7682
62.6496
62.532
62.4154
62.3
62.1858
62.073
61.9616
61.8516
61.7431
61.6362
61.5309
61.4272
61.325
61.2245
61.1256
61.0284
60.9327
60.8386
60.746
60.655
60.5656
60.4776
60.3911
60.306
60.2223
60.14
60.0591
59.9796
59.9013
59.8244
59.7488
59.6746
59.6016
59.5299
59.4596
59.3906
59.3229
59.2567
59.1918
59.1284
59.0665
59.0062
58.9474
58.8903
58.8349
58.7812
58.7293
58.6794
58.6314
58.5855
58.5416
58.4999
58.4605
58.4233
58.3886
58.3563
58.3265
58.2994
58.2749
58.2531
58.2341
58.2179
58.2046
58.1943
58.187
58.1826
58.1814
58.1833
58.1883
58.1966
58.208
58.2226
58.2405
58.2616
58.286
58.3136
58.3445
58.3787
58.4162
58.4569
58.5008
58.5479
58.5983
58.6518
58.7085
58.7684
58.8313
58.8972
58.9662
59.0382
59.113
59.1908
59.2714
59.3547
59.4407
59.5294
59.6207
59.7144
59.8106
59.9091
60.0098
60.1127
60.2177
60.3247
60.4335
60.5442
60.6564
60.7703
60.8856
61.0022
61.12
61.2389
61.3587
61.4794
61.6008
61.7227
61.8451
61.9678
62.0907
62.2137
62.3365
62.4592
62.5815
62.7034
62.8247
62.9454
63.0652
63.1841
63.302
63.4188
63.5344
63.6487
63.7615
63.8729
63.9828
64.091
64.1976
64.3024
64.4054
64.5065
64.6058
64.7031
64.7985
64.8919
64.9832
65.0726
65.1599
65.2452
65.3284
65.4096
65.4888
65.5659
65.641
65.7141
65.7853
65.8545
65.9217
65.987
66.0505
66.1121
66.1719
66.23
66.2862
66.3408
66.3937
66.445
66.4948
66.5429
66.5896
66.6348
66.6785
66.7209
66.762
66.8018
66.8403
66.8776
66.9137
66.9487
66.9827
67.0155
67.0474
67.0783
67.1083
67.1374
67.1656
67.1931
67.2198
67.2456
67.2712
67.2949
67.321
67.3393
67.3759
67.2037
67.2018
67.1979
67.192
67.184
67.1741
67.1621
67.1481
67.132
67.1138
67.0935
67.0711
67.0464
67.0196
66.9904
66.959
66.9252
66.8891
66.8505
66.8094
66.7658
66.7197
66.6709
66.6194
66.5652
66.5083
66.4486
66.386
66.3206
66.2523
66.181
66.1069
66.0298
65.9497
65.8668
65.7809
65.6921
65.6005
65.5061
65.4089
65.3091
65.2067
65.1019
64.9947
64.8852
64.7737
64.6602
64.5449
64.428
64.3096
64.1899
64.0691
63.9475
63.8251
63.7021
63.5788
63.4554
63.332
63.2087
63.0858
62.9635
62.8418
62.7209
62.6009
62.4821
62.3644
62.2479
62.1328
62.0192
61.907
61.7964
61.6874
61.5801
61.4744
61.3703
61.268
61.1673
61.0683
60.9709
60.8752
60.7812
60.6887
60.5978
60.5084
60.4205
60.3341
60.2492
60.1656
60.0835
60.0026
59.9231
59.8449
59.7681
59.6924
59.6181
59.545
59.4732
59.4027
59.3334
59.2655
59.199
59.1338
59.07
59.0077
58.9468
58.8876
58.8299
58.7739
58.7197
58.6672
58.6167
58.568
58.5214
58.4769
58.4345
58.3944
58.3566
58.3213
58.2883
58.2579
58.2302
58.205
58.1827
58.1631
58.1464
58.1327
58.1219
58.1141
58.1094
58.1078
58.1094
58.1141
58.1221
58.1332
58.1477
58.1654
58.1864
58.2107
58.2383
58.2693
58.3035
58.341
58.3818
58.4259
58.4732
58.5238
58.5776
58.6346
58.6948
58.7581
58.8245
58.8939
58.9664
59.0418
59.1201
59.2013
59.2853
59.3721
59.4615
59.5536
59.6482
59.7452
59.8447
59.9464
60.0504
60.1565
60.2646
60.3746
60.4864
60.6
60.7151
60.8317
60.9497
61.0689
61.1892
61.3106
61.4327
61.5556
61.6791
61.8031
61.9273
62.0518
62.1763
62.3008
62.425
62.5489
62.6723
62.7952
62.9173
63.0387
63.159
63.2784
63.3966
63.5135
63.6291
63.7432
63.8558
63.9669
64.0762
64.1838
64.2896
64.3936
64.4957
64.5958
64.6939
64.7901
64.8842
64.9762
65.0661
65.154
65.2398
65.3234
65.405
65.4845
65.562
65.6373
65.7107
65.782
65.8513
65.9186
65.984
66.0475
66.1091
66.1689
66.2269
66.2831
66.3376
66.3904
66.4415
66.4911
66.539
66.5855
66.6305
66.674
66.7162
66.757
66.7965
66.8348
66.8718
66.9077
66.9424
66.976
67.0086
67.0402
67.0708
67.1005
67.1293
67.1573
67.1845
67.2109
67.2364
67.2617
67.2852
67.311
67.3291
67.3653
67.2037
67.2018
67.198
67.1921
67.1842
67.1743
67.1625
67.1486
67.1326
67.1146
67.0945
67.0722
67.0477
67.0211
66.9921
66.9609
66.9273
66.8913
66.8528
66.8119
66.7684
66.7223
66.6735
66.622
66.5678
66.5108
66.4509
66.3881
66.3224
66.2537
66.182
66.1073
66.0295
65.9488
65.865
65.7782
65.6884
65.5956
65.4999
65.4014
65.3002
65.1962
65.0897
64.9807
64.8694
64.756
64.6405
64.5231
64.4041
64.2836
64.1618
64.0388
63.915
63.7904
63.6654
63.54
63.4145
63.2891
63.164
63.0393
62.9152
62.7918
62.6694
62.548
62.4278
62.3089
62.1914
62.0753
61.9608
61.8479
61.7366
61.627
61.5192
61.4131
61.3088
61.2062
61.1054
61.0063
60.9089
60.8132
60.7192
60.6269
60.5361
60.4468
60.3591
60.2729
60.1881
60.1047
60.0227
59.942
59.8626
59.7845
59.7076
59.632
59.5576
59.4844
59.4124
59.3417
59.2723
59.2041
59.1372
59.0716
59.0074
58.9446
58.8832
58.8234
58.7652
58.7086
58.6537
58.6006
58.5493
58.5
58.4527
58.4074
58.3643
58.3235
58.285
58.2489
58.2152
58.1842
58.1557
58.1299
58.1069
58.0868
58.0695
58.0552
58.0439
58.0357
58.0305
58.0285
58.0297
58.0341
58.0418
58.0527
58.067
58.0845
58.1054
58.1296
58.1572
58.1881
58.2224
58.26
58.3009
58.3451
58.3927
58.4435
58.4976
58.5549
58.6154
58.6791
58.746
58.8159
58.8889
58.9649
59.0439
59.1257
59.2104
59.298
59.3882
59.4811
59.5766
59.6747
59.7751
59.8779
59.983
60.0902
60.1996
60.3108
60.424
60.5389
60.6554
60.7735
60.893
61.0137
61.1356
61.2585
61.3823
61.5069
61.632
61.7577
61.8837
62.0098
62.1361
62.2622
62.3882
62.5138
62.6389
62.7634
62.8872
63.0102
63.1321
63.253
63.3727
63.4911
63.6081
63.7237
63.8376
63.9499
64.0605
64.1693
64.2762
64.3812
64.4843
64.5854
64.6844
64.7813
64.8762
64.9689
65.0595
65.1479
65.2342
65.3184
65.4004
65.4802
65.558
65.6336
65.7072
65.7787
65.8481
65.9155
65.981
66.0445
66.1061
66.1659
66.2238
66.2799
66.3342
66.3869
66.4379
66.4872
66.535
66.5812
66.626
66.6693
66.7112
66.7517
66.7909
66.8289
66.8656
66.9012
66.9356
66.969
67.0012
67.0325
67.0628
67.0922
67.1207
67.1483
67.1752
67.2013
67.2265
67.2515
67.2747
67.3002
67.3181
67.3537
67.2037
67.2018
67.198
67.1922
67.1844
67.1747
67.1629
67.1492
67.1334
67.1156
67.0956
67.0735
67.0493
67.0228
66.9941
66.963
66.9296
66.8938
66.8555
66.8147
66.7714
66.7254
66.6767
66.6252
66.5709
66.5138
66.4538
66.3908
66.3247
66.2557
66.1835
66.1083
66.0299
65.9483
65.8636
65.7758
65.6849
65.5909
65.4939
65.3939
65.2911
65.1854
65.0771
64.9662
64.8529
64.7373
64.6196
64.5
64.3787
64.2558
64.1316
64.0063
63.8801
63.7532
63.6258
63.4981
63.3704
63.2428
63.1156
62.9889
62.863
62.7379
62.6138
62.4909
62.3693
62.249
62.1303
62.0132
61.8978
61.784
61.6721
61.5619
61.4536
61.3472
61.2425
61.1398
61.0388
60.9397
60.8423
60.7467
60.6529
60.5606
60.47
60.381
60.2935
60.2075
60.1229
60.0397
59.9579
59.8773
59.7981
59.72
59.6432
59.5676
59.4932
59.4199
59.3478
59.2769
59.2072
59.1387
59.0714
59.0055
58.9408
58.8775
58.8156
58.7552
58.6963