/*--------------------------------*- C++ -*----------------------------------*\
| =========                 |                                                 |
| \\      /  F ield         | OpenFOAM: The Open Source CFD Toolbox           |
|  \\    /   O peration     | Version:  2306                                  |
|   \\  /    A nd           | Website:  www.openfoam.com                      |
|    \\/     M anipulation  |                                                 |
\*---------------------------------------------------------------------------*/
FoamFile
{
    version     2.0;
    format      ascii;
    arch        "LSB;label=32;scalar=64";
    class       volScalarField;
    location    "8";
    object      p;
}
// * * * * * * * * * * * * * * * * * * * * * * * * * * * * * * * * * * * * * //

dimensions      [0 2 -2 0 0 0 0];

internalField   nonuniform List<scalar> 
32768
(
0.266203
0.266069
0.265778
0.265319
0.264693
0.263904
0.262949
0.261828
0.260539
0.259079
0.257447
0.255641
0.253657
0.251495
0.24915
0.24662
0.243902
0.240992
0.237889
0.234587
0.231083
0.227375
0.223459
0.21933
0.214987
0.210424
0.20564
0.200631
0.195393
0.189925
0.184224
0.178287
0.172112
0.165699
0.159046
0.152152
0.145017
0.137641
0.130026
0.122172
0.114083
0.10576
0.0972074
0.0884289
0.0794294
0.0702144
0.0607899
0.051163
0.0413409
0.0313319
0.0211447
0.0107886
0.000273508
-0.0103904
-0.0211923
-0.0321211
-0.0431654
-0.0543135
-0.0655537
-0.076874
-0.0882624
-0.099707
-0.111196
-0.122718
-0.13426
-0.145813
-0.157365
-0.168906
-0.180425
-0.191914
-0.203362
-0.214761
-0.226104
-0.237382
-0.248589
-0.259717
-0.270761
-0.281716
-0.292575
-0.303336
-0.313993
-0.324543
-0.334982
-0.345307
-0.355516
-0.365606
-0.375573
-0.385417
-0.395135
-0.404724
-0.414183
-0.423509
-0.4327
-0.441753
-0.450667
-0.459437
-0.468062
-0.476538
-0.484861
-0.493028
-0.501035
-0.508877
-0.516549
-0.524048
-0.531367
-0.538501
-0.545445
-0.552192
-0.558737
-0.565072
-0.571192
-0.577089
-0.582757
-0.588189
-0.593378
-0.598317
-0.602999
-0.607418
-0.611567
-0.615439
-0.619028
-0.622328
-0.625333
-0.628037
-0.630436
-0.632524
-0.634298
-0.635752
-0.636884
-0.63769
-0.638167
-0.638314
-0.638129
-0.637611
-0.636758
-0.635572
-0.634052
-0.632199
-0.630015
-0.627503
-0.624665
-0.621504
-0.618023
-0.614228
-0.610123
-0.605714
-0.601005
-0.596004
-0.590718
-0.585153
-0.579317
-0.573219
-0.566867
-0.56027
-0.553437
-0.546378
-0.539104
-0.531624
-0.52395
-0.516092
-0.508061
-0.499869
-0.491528
-0.483049
-0.474444
-0.465726
-0.456906
-0.447997
-0.439011
-0.42996
-0.420856
-0.411712
-0.402539
-0.393349
-0.384153
-0.374964
-0.365792
-0.356648
-0.347543
-0.338487
-0.32949
-0.320561
-0.311709
-0.302944
-0.294272
-0.285703
-0.277243
-0.268899
-0.260678
-0.252585
-0.244625
-0.236804
-0.229126
-0.221594
-0.214212
-0.206983
-0.199909
-0.192992
-0.186234
-0.179636
-0.173198
-0.166921
-0.160805
-0.15485
-0.149054
-0.143417
-0.137937
-0.132613
-0.127442
-0.122424
-0.117554
-0.112832
-0.108255
-0.103818
-0.0995206
-0.0953585
-0.0913286
-0.0874278
-0.0836527
-0.0799999
-0.0764659
-0.0730472
-0.0697402
-0.0665415
-0.0634474
-0.0604543
-0.0575587
-0.054757
-0.0520456
-0.0494211
-0.04688
-0.0444187
-0.0420339
-0.0397221
-0.03748
-0.0353043
-0.0331917
-0.0311391
-0.0291431
-0.0272008
-0.025309
-0.0234648
-0.0216651
-0.019907
-0.0181877
-0.0165044
-0.0148542
-0.0132347
-0.0116426
-0.0100766
-0.00853089
-0.00701128
-0.00549459
-0.0040285
-0.00248177
-0.00112765
0.266364
0.266231
0.26594
0.265481
0.264856
0.264067
0.263114
0.261994
0.260705
0.259246
0.257615
0.25581
0.253828
0.251667
0.249323
0.246794
0.244078
0.241169
0.238067
0.234766
0.231263
0.227556
0.22364
0.219512
0.215168
0.210606
0.205821
0.200811
0.195573
0.190103
0.1844
0.178461
0.172284
0.165867
0.15921
0.152311
0.145171
0.13779
0.130169
0.122308
0.114212
0.105881
0.0973196
0.088532
0.0795229
0.0702976
0.0608625
0.0512244
0.0413909
0.03137
0.0211707
0.0108022
0.000274567
-0.010402
-0.0212165
-0.032158
-0.0432149
-0.0543754
-0.0656278
-0.0769599
-0.0883599
-0.0998156
-0.111315
-0.122847
-0.1344
-0.145962
-0.157522
-0.169071
-0.180597
-0.192092
-0.203547
-0.214951
-0.226299
-0.237581
-0.248791
-0.259922
-0.270969
-0.281925
-0.292786
-0.303548
-0.314206
-0.324756
-0.335195
-0.34552
-0.355728
-0.365817
-0.375784
-0.385628
-0.395345
-0.404933
-0.414391
-0.423717
-0.432908
-0.441961
-0.450874
-0.459645
-0.468271
-0.476747
-0.485072
-0.49324
-0.501249
-0.509093
-0.516768
-0.524269
-0.531591
-0.538729
-0.545676
-0.552427
-0.558976
-0.565315
-0.571439
-0.577341
-0.583014
-0.588451
-0.593644
-0.598588
-0.603275
-0.607699
-0.611853
-0.615729
-0.619323
-0.622627
-0.625637
-0.628345
-0.630748
-0.63284
-0.634617
-0.636074
-0.637209
-0.638018
-0.638498
-0.638647
-0.638464
-0.637947
-0.637095
-0.63591
-0.63439
-0.632538
-0.630354
-0.627842
-0.625003
-0.62184
-0.618359
-0.614562
-0.610455
-0.606043
-0.601332
-0.596328
-0.591038
-0.58547
-0.57963
-0.573528
-0.567172
-0.56057
-0.553732
-0.546669
-0.539389
-0.531903
-0.524223
-0.516358
-0.508321
-0.500122
-0.491773
-0.483287
-0.474675
-0.465949
-0.457121
-0.448204
-0.439209
-0.43015
-0.421037
-0.411884
-0.402702
-0.393503
-0.384299
-0.3751
-0.365919
-0.356767
-0.347652
-0.338587
-0.329581
-0.320643
-0.311783
-0.303009
-0.294329
-0.285752
-0.277284
-0.268932
-0.260703
-0.252603
-0.244636
-0.236808
-0.229124
-0.221586
-0.214198
-0.206963
-0.199884
-0.192962
-0.1862
-0.179597
-0.173156
-0.166875
-0.160756
-0.154797
-0.148999
-0.143359
-0.137877
-0.132551
-0.127379
-0.122359
-0.117489
-0.112766
-0.108187
-0.103751
-0.0994529
-0.0952907
-0.0912611
-0.0873606
-0.083586
-0.0799339
-0.0764007
-0.0729829
-0.069677
-0.0664794
-0.0633866
-0.0603949
-0.0575007
-0.0547006
-0.0519909
-0.0493681
-0.0468287
-0.0443692
-0.0419862
-0.0396763
-0.0374362
-0.0352624
-0.0331518
-0.0311012
-0.0291073
-0.027167
-0.0252773
-0.0234351
-0.0216375
-0.0198815
-0.0181643
-0.016483
-0.0148349
-0.0132174
-0.0116273
-0.0100634
-0.00851962
-0.00700219
-0.00548681
-0.0040237
-0.00247537
-0.00113145
0.266688
0.266555
0.266265
0.265807
0.265183
0.264395
0.263443
0.262324
0.261038
0.259581
0.257952
0.256149
0.25417
0.252011
0.24967
0.247144
0.244429
0.241524
0.238423
0.235124
0.231624
0.227918
0.224003
0.219876
0.215533
0.210971
0.206185
0.201174
0.195933
0.190461
0.184754
0.17881
0.172627
0.166204
0.159539
0.152631
0.145481
0.138089
0.130455
0.122582
0.11447
0.106123
0.0975449
0.088739
0.0797104
0.0704647
0.0610082
0.0513478
0.0414911
0.0314465
0.0212228
0.0108295
0.000276587
-0.0104253
-0.0212654
-0.0322323
-0.0433144
-0.0544998
-0.0657766
-0.0771326
-0.0885557
-0.100034
-0.111555
-0.123107
-0.134679
-0.146259
-0.157837
-0.169401
-0.180942
-0.192451
-0.203917
-0.215332
-0.226689
-0.237979
-0.249196
-0.260333
-0.271385
-0.282345
-0.293209
-0.303973
-0.314632
-0.325182
-0.335621
-0.345946
-0.356154
-0.366241
-0.376207
-0.386049
-0.395765
-0.405352
-0.414809
-0.424133
-0.433323
-0.442377
-0.45129
-0.460062
-0.468689
-0.477167
-0.485494
-0.493665
-0.501677
-0.509526
-0.517206
-0.524713
-0.532041
-0.539185
-0.54614
-0.552898
-0.559455
-0.565803
-0.571936
-0.577846
-0.583528
-0.588975
-0.594178
-0.599132
-0.603829
-0.608262
-0.612425
-0.616311
-0.619914
-0.623228
-0.626245
-0.628962
-0.631373
-0.633473
-0.635256
-0.636721
-0.637861
-0.638675
-0.63916
-0.639314
-0.639134
-0.63862
-0.637771
-0.636587
-0.635069
-0.633217
-0.631034
-0.62852
-0.62568
-0.622516
-0.619031
-0.615231
-0.61112
-0.606704
-0.601988
-0.596978
-0.591682
-0.586106
-0.580259
-0.574149
-0.567784
-0.561172
-0.554325
-0.54725
-0.53996
-0.532462
-0.52477
-0.516892
-0.508841
-0.500629
-0.492266
-0.483765
-0.475138
-0.466396
-0.457552
-0.448618
-0.439607
-0.43053
-0.4214
-0.41223
-0.40303
-0.393813
-0.38459
-0.375374
-0.366175
-0.357004
-0.347871
-0.338788
-0.329764
-0.320809
-0.311931
-0.30314
-0.294443
-0.285849
-0.277365
-0.268998
-0.260754
-0.252639
-0.244659
-0.236817
-0.22912
-0.221569
-0.21417
-0.206924
-0.199834
-0.192903
-0.186131
-0.17952
-0.173071
-0.166783
-0.160657
-0.154692
-0.148888
-0.143244
-0.137757
-0.132427
-0.127252
-0.12223
-0.117357
-0.112633
-0.108053
-0.103615
-0.0993171
-0.0951549
-0.0911256
-0.0872258
-0.0834523
-0.0798015
-0.0762699
-0.072854
-0.0695502
-0.066355
-0.0632647
-0.0602758
-0.0573846
-0.0545876
-0.0518811
-0.0492617
-0.0467258
-0.0442699
-0.0418907
-0.0395846
-0.0373483
-0.0351785
-0.0330718
-0.0310252
-0.0290354
-0.0270992
-0.0252136
-0.0233755
-0.0215821
-0.0198302
-0.0181172
-0.0164401
-0.0147961
-0.0131827
-0.0115967
-0.0100369
-0.00849715
-0.00698375
-0.00547224
-0.00401324
-0.00246873
-0.00113033
0.267174
0.267041
0.266752
0.266295
0.265672
0.264886
0.263936
0.26282
0.261537
0.260083
0.258458
0.256658
0.254682
0.252527
0.25019
0.247668
0.244957
0.242055
0.238958
0.235662
0.232165
0.228461
0.224549
0.220423
0.216081
0.211518
0.206731
0.201718
0.196474
0.190998
0.185285
0.179334
0.173143
0.16671
0.160033
0.153113
0.145948
0.138539
0.130886
0.122992
0.114858
0.106488
0.0978835
0.0890501
0.0799923
0.0707158
0.0612271
0.051533
0.0416416
0.031561
0.0213006
0.0108698
0.000278979
-0.0104612
-0.0213397
-0.0323449
-0.0434649
-0.0546879
-0.0660015
-0.0773934
-0.0888514
-0.100363
-0.111916
-0.1235
-0.135101
-0.146708
-0.158311
-0.169899
-0.181462
-0.19299
-0.204474
-0.215906
-0.227277
-0.238579
-0.249806
-0.260952
-0.272011
-0.282977
-0.293845
-0.304611
-0.315272
-0.325823
-0.336262
-0.346586
-0.356792
-0.366878
-0.376842
-0.386681
-0.396395
-0.40598
-0.415435
-0.424758
-0.433947
-0.443
-0.451914
-0.460687
-0.469315
-0.477796
-0.486127
-0.494303
-0.50232
-0.510175
-0.517862
-0.525377
-0.532715
-0.539869
-0.546834
-0.553604
-0.560173
-0.566534
-0.57268
-0.578605
-0.584301
-0.589762
-0.59498
-0.599948
-0.60466
-0.609108
-0.613285
-0.617186
-0.620802
-0.624129
-0.62716
-0.62989
-0.632312
-0.634423
-0.636217
-0.637691
-0.638841
-0.639663
-0.640156
-0.640315
-0.640141
-0.639632
-0.638787
-0.637606
-0.636089
-0.634238
-0.632054
-0.62954
-0.626697
-0.62353
-0.620042
-0.616237
-0.61212
-0.607697
-0.602973
-0.597954
-0.592649
-0.587063
-0.581204
-0.575081
-0.568703
-0.562078
-0.555215
-0.548125
-0.540818
-0.533303
-0.525592
-0.517695
-0.509625
-0.501391
-0.493007
-0.484484
-0.475833
-0.467068
-0.4582
-0.449242
-0.440205
-0.431103
-0.421947
-0.412749
-0.403523
-0.394279
-0.385029
-0.375785
-0.366559
-0.35736
-0.348201
-0.33909
-0.330039
-0.321057
-0.312153
-0.303336
-0.294615
-0.285996
-0.277488
-0.269098
-0.260831
-0.252694
-0.244692
-0.23683
-0.229113
-0.221544
-0.214127
-0.206865
-0.199759
-0.192813
-0.186028
-0.179404
-0.172942
-0.166644
-0.160508
-0.154534
-0.148722
-0.14307
-0.137577
-0.132242
-0.127062
-0.122035
-0.117159
-0.112432
-0.107851
-0.103412
-0.099113
-0.0949508
-0.090922
-0.0870233
-0.0832513
-0.0796025
-0.0760734
-0.0726603
-0.0693598
-0.0661681
-0.0630817
-0.060097
-0.0572102
-0.0544178
-0.0517163
-0.049102
-0.0465713
-0.0441209
-0.0417472
-0.0394468
-0.0372163
-0.0350524
-0.0329518
-0.0309112
-0.0289274
-0.0269974
-0.025118
-0.0232861
-0.0214989
-0.0197533
-0.0180465
-0.0163756
-0.0147378
-0.0131307
-0.0115508
-0.00999719
-0.00846348
-0.00695613
-0.00545063
-0.00399764
-0.00245924
-0.00112661
0.267821
0.267689
0.2674
0.266945
0.266324
0.265541
0.264594
0.263481
0.262201
0.260752
0.259131
0.257336
0.255365
0.253215
0.250884
0.248366
0.245661
0.242764
0.239672
0.236381
0.232887
0.229187
0.225277
0.221153
0.216812
0.212249
0.207461
0.202445
0.197198
0.191715
0.185995
0.180035
0.173833
0.167387
0.160695
0.153757
0.146572
0.13914
0.131463
0.123542
0.115378
0.106976
0.0983368
0.0894664
0.0803695
0.0710517
0.0615196
0.0517805
0.0418423
0.0317137
0.0214039
0.0109228
0.000281022
-0.0105106
-0.0214406
-0.0324971
-0.0436682
-0.0549415
-0.0663044
-0.0777445
-0.0892492
-0.100806
-0.112403
-0.124027
-0.135667
-0.147311
-0.158948
-0.170568
-0.18216
-0.193715
-0.205222
-0.216675
-0.228064
-0.239383
-0.250624
-0.261781
-0.272849
-0.283822
-0.294695
-0.305465
-0.316128
-0.32668
-0.337119
-0.347441
-0.357645
-0.367729
-0.377689
-0.387525
-0.397236
-0.406818
-0.41627
-0.425591
-0.434779
-0.443831
-0.452745
-0.461519
-0.47015
-0.478635
-0.48697
-0.495152
-0.503177
-0.51104
-0.518738
-0.526264
-0.533614
-0.540781
-0.547761
-0.554547
-0.561132
-0.56751
-0.573674
-0.579617
-0.585332
-0.590812
-0.59605
-0.601038
-0.605769
-0.610237
-0.614434
-0.618353
-0.621989
-0.625334
-0.628382
-0.631129
-0.633567
-0.635693
-0.637502
-0.638989
-0.640151
-0.640984
-0.641486
-0.641655
-0.641488
-0.640985
-0.640144
-0.638967
-0.637453
-0.635603
-0.633419
-0.630903
-0.628058
-0.624886
-0.621393
-0.617581
-0.613457
-0.609024
-0.60429
-0.59926
-0.593941
-0.588342
-0.582468
-0.576329
-0.569933
-0.563289
-0.556406
-0.549295
-0.541965
-0.534427
-0.526691
-0.518769
-0.510672
-0.502411
-0.493998
-0.485445
-0.476764
-0.467968
-0.459067
-0.450076
-0.441006
-0.431869
-0.422678
-0.413445
-0.404182
-0.394902
-0.385616
-0.376336
-0.367072
-0.357837
-0.348641
-0.339495
-0.330408
-0.32139
-0.312451
-0.303599
-0.294844
-0.286192
-0.277652
-0.26923
-0.260933
-0.252767
-0.244737
-0.236848
-0.229105
-0.221511
-0.21407
-0.206785
-0.199659
-0.192693
-0.185889
-0.179248
-0.172771
-0.166458
-0.160308
-0.154322
-0.148499
-0.142838
-0.137336
-0.131993
-0.126807
-0.121775
-0.116895
-0.112164
-0.10758
-0.10314
-0.0988401
-0.0946779
-0.0906498
-0.0867526
-0.0829827
-0.0793366
-0.0758107
-0.0724015
-0.0691053
-0.0659184
-0.0628372
-0.059858
-0.0569772
-0.0541911
-0.051496
-0.0488885
-0.046365
-0.0439218
-0.0415555
-0.0392627
-0.03704
-0.034884
-0.0327914
-0.0307589
-0.0287833
-0.0268615
-0.0249903
-0.0231668
-0.0213879
-0.0196506
-0.0179521
-0.0162895
-0.0146601
-0.0130612
-0.0114896
-0.00994411
-0.00841854
-0.00691928
-0.00542184
-0.00397678
-0.00244646
-0.00112132
0.268629
0.268497
0.26821
0.267756
0.267138
0.266358
0.265415
0.264307
0.263032
0.261587
0.259972
0.258184
0.256219
0.254076
0.25175
0.24924
0.246541
0.243651
0.240564
0.237279
0.23379
0.230095
0.226189
0.222067
0.217727
0.213165
0.208376
0.203357
0.198104
0.192615
0.186886
0.180915
0.174699
0.168236
0.161525
0.154565
0.147355
0.139896
0.132188
0.124232
0.116032
0.107588
0.098906
0.0899892
0.080843
0.0714732
0.0618866
0.0520907
0.0420936
0.0319042
0.0215322
0.0109878
0.000281717
-0.0105747
-0.0215696
-0.032691
-0.0439263
-0.055263
-0.0666881
-0.0781889
-0.0897524
-0.101366
-0.113017
-0.124693
-0.136382
-0.148072
-0.159752
-0.171411
-0.183039
-0.194627
-0.206164
-0.217643
-0.229056
-0.240394
-0.251652
-0.262823
-0.273902
-0.284884
-0.295763
-0.306538
-0.317203
-0.327755
-0.338193
-0.348513
-0.358714
-0.368794
-0.37875
-0.388582
-0.398288
-0.407866
-0.417315
-0.426633
-0.435819
-0.44487
-0.453784
-0.46256
-0.471194
-0.479683
-0.488024
-0.496214
-0.504248
-0.512122
-0.519832
-0.527372
-0.534737
-0.541921
-0.54892
-0.555725
-0.562331
-0.56873
-0.574917
-0.580884
-0.586623
-0.592127
-0.59739
-0.602403
-0.607159
-0.611652
-0.615873
-0.619817
-0.623476
-0.626844
-0.629915
-0.632682
-0.635141
-0.637286
-0.639112
-0.640616
-0.641793
-0.64264
-0.643155
-0.643334
-0.643177
-0.642682
-0.641847
-0.640675
-0.639163
-0.637315
-0.635131
-0.632613
-0.629764
-0.626588
-0.623088
-0.619268
-0.615133
-0.61069
-0.605942
-0.600898
-0.595564
-0.589946
-0.584053
-0.577894
-0.571476
-0.564808
-0.557901
-0.550763
-0.543406
-0.535838
-0.528072
-0.520118
-0.511987
-0.503692
-0.495243
-0.486653
-0.477933
-0.469097
-0.460156
-0.451123
-0.442011
-0.432831
-0.423596
-0.414319
-0.405011
-0.395685
-0.386353
-0.377027
-0.367718
-0.358436
-0.349194
-0.340002
-0.33087
-0.321808
-0.312825
-0.30393
-0.295132
-0.286438
-0.277858
-0.269396
-0.261061
-0.252858
-0.244792
-0.236869
-0.229093
-0.221468
-0.213998
-0.206685
-0.199533
-0.192542
-0.185715
-0.179052
-0.172555
-0.166223
-0.160057
-0.154056
-0.148219
-0.142546
-0.137033
-0.131681
-0.126487
-0.121448
-0.116563
-0.111828
-0.107241
-0.102798
-0.0984976
-0.0943354
-0.0903083
-0.0864129
-0.0826457
-0.079003
-0.0754813
-0.0720769
-0.0687861
-0.0656052
-0.0625306
-0.0595584
-0.056685
-0.0539068
-0.05122
-0.0486211
-0.0461063
-0.0436723
-0.0413154
-0.0390322
-0.0368192
-0.034673
-0.0325904
-0.0305681
-0.0286027
-0.0266912
-0.0248304
-0.0230173
-0.0212488
-0.0195219
-0.0178339
-0.0161817
-0.0145627
-0.0129741
-0.0114128
-0.00987764
-0.00836229
-0.00687315
-0.0053858
-0.00395062
-0.00243045
-0.00111464
0.269597
0.269466
0.26918
0.268729
0.268114
0.267338
0.266399
0.265296
0.264027
0.262589
0.260981
0.2592
0.257243
0.255108
0.252791
0.250289
0.247598
0.244715
0.241637
0.238358
0.234876
0.231186
0.227285
0.223167
0.218829
0.214267
0.209476
0.204454
0.199196
0.193699
0.18796
0.181975
0.175743
0.169261
0.162527
0.155541
0.148301
0.140808
0.133063
0.125066
0.11682
0.108328
0.0995931
0.0906202
0.0814143
0.0719816
0.0623289
0.0524641
0.0423956
0.0321326
0.0216852
0.0110638
0.00027979
-0.0106552
-0.0217289
-0.0329289
-0.0442421
-0.0556556
-0.067156
-0.0787302
-0.0903649
-0.102047
-0.113763
-0.125502
-0.13725
-0.148995
-0.160727
-0.172434
-0.184105
-0.195732
-0.207305
-0.218815
-0.230255
-0.241617
-0.252895
-0.264082
-0.275174
-0.286166
-0.297052
-0.307831
-0.318498
-0.32905
-0.339486
-0.349804
-0.36
-0.370075
-0.380026
-0.389852
-0.399552
-0.409125
-0.418569
-0.427884
-0.437067
-0.446116
-0.455031
-0.463808
-0.472445
-0.480939
-0.489288
-0.497486
-0.505532
-0.513419
-0.521144
-0.528701
-0.536085
-0.54329
-0.55031
-0.557139
-0.56377
-0.570197
-0.576411
-0.582406
-0.588174
-0.593709
-0.599001
-0.604045
-0.608832
-0.613354
-0.617606
-0.621579
-0.625267
-0.628662
-0.63176
-0.634553
-0.637036
-0.639205
-0.641053
-0.642577
-0.643772
-0.644636
-0.645166
-0.645358
-0.645212
-0.644726
-0.6439
-0.642733
-0.641225
-0.639378
-0.637194
-0.634674
-0.631821
-0.628638
-0.62513
-0.621301
-0.617154
-0.612697
-0.607934
-0.602873
-0.597519
-0.59188
-0.585965
-0.579781
-0.573336
-0.56664
-0.559703
-0.552534
-0.545143
-0.53754
-0.529737
-0.521744
-0.513574
-0.505236
-0.496744
-0.488109
-0.479344
-0.47046
-0.461471
-0.452388
-0.443224
-0.433992
-0.424704
-0.415373
-0.406011
-0.396631
-0.387243
-0.377861
-0.368496
-0.35916
-0.349862
-0.340615
-0.331428
-0.322312
-0.313275
-0.304328
-0.295479
-0.286735
-0.278105
-0.269596
-0.261215
-0.252967
-0.244859
-0.236894
-0.229079
-0.221417
-0.213911
-0.206564
-0.19938
-0.192359
-0.185504
-0.178815
-0.172294
-0.16594
-0.159754
-0.153735
-0.147881
-0.142193
-0.136668
-0.131304
-0.1261
-0.121054
-0.116162
-0.111422
-0.106831
-0.102386
-0.0980846
-0.0939225
-0.0898966
-0.0860035
-0.0822395
-0.078601
-0.0750844
-0.0716858
-0.0684016
-0.0652281
-0.0621613
-0.0591976
-0.0563333
-0.0535645
-0.0508877
-0.0482991
-0.045795
-0.043372
-0.0410264
-0.0387547
-0.0365534
-0.0344192
-0.0323487
-0.0303385
-0.0283855
-0.0264864
-0.024638
-0.0228374
-0.0210815
-0.0193672
-0.0176917
-0.0160521
-0.0144455
-0.0128694
-0.0113206
-0.0097977
-0.00829463
-0.00681766
-0.00534245
-0.00391914
-0.00241121
-0.00110658
0.270725
0.270594
0.27031
0.269862
0.26925
0.268479
0.267545
0.266449
0.265187
0.263757
0.262157
0.260385
0.258437
0.256312
0.254004
0.251512
0.248832
0.245958
0.242889
0.239619
0.236145
0.232462
0.228566
0.224453
0.220118
0.215557
0.210765
0.205739
0.200476
0.19497
0.189218
0.183219
0.176967
0.170463
0.163703
0.156686
0.149411
0.141879
0.13409
0.126045
0.117746
0.109197
0.1004
0.0913613
0.0820851
0.0725781
0.0628476
0.0529014
0.0427486
0.0323987
0.0218621
0.0111498
0.000273676
-0.0107542
-0.021921
-0.0332138
-0.044619
-0.0561231
-0.0677124
-0.0793731
-0.0910916
-0.102854
-0.114648
-0.12646
-0.138277
-0.150087
-0.161879
-0.173641
-0.185364
-0.197037
-0.20865
-0.220197
-0.231668
-0.243057
-0.254358
-0.265563
-0.27667
-0.287672
-0.298566
-0.309349
-0.320017
-0.330569
-0.341002
-0.351315
-0.361506
-0.371574
-0.381517
-0.391336
-0.401029
-0.410595
-0.420033
-0.429343
-0.438522
-0.44757
-0.456484
-0.465263
-0.473904
-0.482404
-0.490761
-0.49897
-0.507028
-0.514931
-0.522674
-0.530251
-0.537657
-0.544887
-0.551934
-0.558791
-0.565452
-0.57191
-0.578157
-0.584185
-0.589989
-0.595558
-0.600887
-0.605966
-0.610789
-0.615347
-0.619634
-0.623642
-0.627364
-0.630792
-0.633922
-0.636745
-0.639258
-0.641453
-0.643327
-0.644875
-0.646092
-0.646976
-0.647523
-0.647731
-0.647599
-0.647124
-0.646306
-0.645146
-0.643642
-0.641798
-0.639613
-0.63709
-0.634233
-0.631043
-0.627526
-0.623684
-0.619525
-0.615051
-0.61027
-0.605188
-0.599812
-0.594149
-0.588207
-0.581994
-0.575519
-0.56879
-0.561818
-0.554611
-0.547181
-0.539537
-0.531691
-0.523654
-0.515436
-0.50705
-0.498507
-0.48982
-0.481
-0.472061
-0.463014
-0.453873
-0.444649
-0.435356
-0.426006
-0.416612
-0.407186
-0.397741
-0.388289
-0.378842
-0.369411
-0.360009
-0.350647
-0.341335
-0.332084
-0.322904
-0.313805
-0.304796
-0.295886
-0.287083
-0.278396
-0.269831
-0.261395
-0.253095
-0.244936
-0.236923
-0.229062
-0.221355
-0.213807
-0.206421
-0.199199
-0.192143
-0.185255
-0.178536
-0.171987
-0.165607
-0.159397
-0.153357
-0.147484
-0.141778
-0.136238
-0.130862
-0.125646
-0.12059
-0.115691
-0.110945
-0.10635
-0.101903
-0.0976
-0.0934381
-0.0894137
-0.0855234
-0.0817633
-0.0781298
-0.0746191
-0.0712275
-0.0679511
-0.0647861
-0.0617287
-0.058775
-0.0559213
-0.0531637
-0.0504985
-0.047922
-0.0454306
-0.0430204
-0.040688
-0.0384298
-0.0362423
-0.0341221
-0.0320657
-0.0300699
-0.0281313
-0.0262467
-0.024413
-0.022627
-0.0208857
-0.0191861
-0.0175253
-0.0159004
-0.0143084
-0.012747
-0.0112126
-0.00970418
-0.00821547
-0.00675274
-0.00529174
-0.00388231
-0.0023887
-0.00109712
0.27201
0.271881
0.271599
0.271153
0.270547
0.26978
0.268853
0.267764
0.26651
0.26509
0.2635
0.261738
0.259801
0.257687
0.255392
0.252911
0.250242
0.24738
0.244322
0.241063
0.237598
0.233924
0.230035
0.225927
0.221596
0.217036
0.212244
0.207215
0.201945
0.196429
0.190665
0.184648
0.178376
0.171846
0.165056
0.158004
0.15069
0.143113
0.135274
0.127173
0.118814
0.110198
0.101331
0.092215
0.0828575
0.0732647
0.0634438
0.0534035
0.0431529
0.0327022
0.0220622
0.0112445
0.000261501
-0.0108741
-0.0221489
-0.0335492
-0.045061
-0.0566701
-0.0683623
-0.0801231
-0.0919385
-0.103794
-0.115677
-0.127573
-0.13947
-0.151354
-0.163215
-0.175041
-0.186822
-0.198547
-0.210207
-0.221795
-0.233302
-0.244721
-0.256046
-0.267272
-0.278394
-0.289407
-0.300309
-0.311095
-0.321765
-0.332314
-0.342743
-0.35305
-0.363233
-0.373292
-0.383227
-0.393036
-0.40272
-0.412277
-0.421708
-0.431011
-0.440186
-0.44923
-0.458144
-0.466924
-0.475569
-0.484076
-0.492442
-0.500664
-0.508737
-0.516658
-0.524421
-0.532022
-0.539454
-0.546712
-0.55379
-0.56068
-0.567376
-0.57387
-0.580155
-0.586223
-0.592067
-0.597678
-0.603048
-0.608169
-0.613034
-0.617634
-0.621962
-0.62601
-0.629771
-0.633238
-0.636404
-0.639263
-0.641809
-0.644037
-0.64594
-0.647515
-0.648758
-0.649665
-0.650233
-0.650459
-0.650342
-0.64988
-0.649072
-0.647919
-0.646421
-0.644579
-0.642394
-0.639868
-0.637005
-0.633808
-0.630279
-0.626425
-0.622249
-0.617758
-0.612956
-0.607851
-0.60245
-0.596758
-0.590786
-0.58454
-0.578029
-0.571263
-0.56425
-0.557002
-0.549526
-0.541836
-0.53394
-0.525851
-0.517579
-0.509137
-0.500536
-0.491789
-0.482908
-0.473904
-0.464792
-0.455583
-0.446291
-0.436927
-0.427506
-0.418039
-0.40854
-0.399021
-0.389494
-0.379971
-0.370465
-0.360988
-0.35155
-0.342164
-0.332838
-0.323585
-0.314414
-0.305334
-0.296355
-0.287484
-0.27873
-0.2701
-0.261602
-0.253241
-0.245024
-0.236956
-0.229041
-0.221283
-0.213687
-0.206255
-0.19899
-0.191894
-0.184968
-0.178214
-0.171632
-0.165223
-0.158986
-0.15292
-0.147026
-0.141301
-0.135743
-0.130352
-0.125124
-0.120057
-0.115149
-0.110397
-0.105797
-0.101347
-0.0970425
-0.092881
-0.0888585
-0.0849713
-0.0812158
-0.0775882
-0.0740845
-0.0707009
-0.0674335
-0.0642785
-0.0612318
-0.0582897
-0.0554482
-0.0527035
-0.0500518
-0.0474893
-0.0450123
-0.042617
-0.0402998
-0.0380572
-0.0358855
-0.0337813
-0.0317412
-0.0297618
-0.0278398
-0.0259718
-0.0241549
-0.0223857
-0.0206612
-0.0189785
-0.0173345
-0.0157265
-0.0141513
-0.0126065
-0.0110888
-0.00959697
-0.00812473
-0.00667831
-0.00523361
-0.00384008
-0.0023629
-0.00108625
0.273453
0.273324
0.273045
0.272603
0.272001
0.271241
0.270322
0.269241
0.267997
0.266587
0.265008
0.263259
0.261335
0.259234
0.256952
0.254485
0.25183
0.248982
0.245936
0.24269
0.239236
0.235572
0.231692
0.227591
0.223265
0.218708
0.213916
0.208884
0.203607
0.198082
0.192303
0.186268
0.179972
0.173414
0.166591
0.1595
0.152141
0.144514
0.136618
0.128455
0.120026
0.111336
0.102387
0.0931842
0.0837341
0.0740432
0.0641193
0.0539713
0.0436089
0.0330429
0.0222846
0.0113463
0.000241056
-0.0110177
-0.022416
-0.0339393
-0.045573
-0.057302
-0.0691116
-0.0809866
-0.0929123
-0.104874
-0.116858
-0.12885
-0.140837
-0.152806
-0.164745
-0.176642
-0.188488
-0.200271
-0.211984
-0.223617
-0.235163
-0.246615
-0.257967
-0.269215
-0.280353
-0.291378
-0.302286
-0.313076
-0.323744
-0.33429
-0.344713
-0.355011
-0.365184
-0.375232
-0.385155
-0.394952
-0.404625
-0.414171
-0.423592
-0.432888
-0.442056
-0.451097
-0.460009
-0.468791
-0.47744
-0.485955
-0.494332
-0.502567
-0.510657
-0.518599
-0.526385
-0.534013
-0.541475
-0.548766
-0.555879
-0.562807
-0.569543
-0.576079
-0.582408
-0.588521
-0.594411
-0.600069
-0.605487
-0.610657
-0.615569
-0.620217
-0.624592
-0.628687
-0.632493
-0.636004
-0.639213
-0.642112
-0.644696
-0.64696
-0.648897
-0.650504
-0.651776
-0.652709
-0.6533
-0.653547
-0.653447
-0.653
-0.652204
-0.65106
-0.649568
-0.647728
-0.645543
-0.643014
-0.640145
-0.636938
-0.633398
-0.629529
-0.625336
-0.620824
-0.615999
-0.610868
-0.605437
-0.599714
-0.593707
-0.587424
-0.580874
-0.574065
-0.567007
-0.559711
-0.552185
-0.544441
-0.53649
-0.528343
-0.52001
-0.511505
-0.502839
-0.494023
-0.485072
-0.475996
-0.466809
-0.457524
-0.448154
-0.438711
-0.429208
-0.419659
-0.410077
-0.400473
-0.390861
-0.381254
-0.371662
-0.362099
-0.352576
-0.343105
-0.333695
-0.324359
-0.315105
-0.305945
-0.296886
-0.287938
-0.279108
-0.270405
-0.261836
-0.253406
-0.245123
-0.236991
-0.229015
-0.2212
-0.213549
-0.206065
-0.198751
-0.191609
-0.184641
-0.177847
-0.171229
-0.164786
-0.158518
-0.152425
-0.146505
-0.140758
-0.135181
-0.129773
-0.12453
-0.119452
-0.114534
-0.109775
-0.10517
-0.100716
-0.0964107
-0.0922497
-0.0882294
-0.0843461
-0.0805959
-0.076975
-0.0734793
-0.0701049
-0.0668478
-0.0637041
-0.0606698
-0.0577408
-0.0549133
-0.0521833
-0.0495468
-0.0470002
-0.0445396
-0.0421611
-0.0398612
-0.0376362
-0.0354824
-0.0333964
-0.0313747
-0.0294138
-0.0275105
-0.0256614
-0.0238634
-0.0221132
-0.0204078
-0.0187441
-0.0171192
-0.0155301
-0.0139739
-0.012448
-0.0109491
-0.00947593
-0.00802228
-0.00659428
-0.00516797
-0.0037924
-0.00233377
-0.00107397
0.275051
0.274924
0.274647
0.27421
0.273614
0.272861
0.27195
0.270879
0.269646
0.268248
0.266682
0.264947
0.263038
0.260952
0.258685
0.256235
0.253595
0.250763
0.247733
0.2445
0.241061
0.237409
0.233539
0.229448
0.225128
0.220575
0.215783
0.210749
0.205466
0.19993
0.194136
0.188081
0.181761
0.175172
0.168311
0.161178
0.153769
0.146086
0.138127
0.129893
0.121388
0.112613
0.103573
0.0942722
0.0847176
0.0749159
0.0648756
0.0546059
0.0441171
0.0334205
0.0225283
0.0114535
0.000209764
-0.0111886
-0.0227266
-0.0343891
-0.0461605
-0.0580251
-0.0699672
-0.0819711
-0.0940212
-0.106102
-0.1182
-0.1303
-0.142388
-0.154451
-0.166477
-0.178454
-0.190371
-0.20222
-0.213989
-0.225672
-0.23726
-0.248748
-0.260129
-0.271399
-0.282554
-0.29359
-0.304504
-0.315295
-0.325961
-0.336501
-0.346915
-0.357201
-0.367362
-0.377396
-0.387304
-0.397087
-0.406745
-0.416278
-0.425687
-0.434973
-0.444134
-0.453169
-0.462079
-0.470862
-0.479516
-0.488039
-0.496427
-0.504678
-0.512788
-0.520752
-0.528566
-0.536223
-0.54372
-0.551048
-0.558201
-0.565172
-0.571953
-0.578537
-0.584916
-0.591081
-0.597024
-0.602736
-0.608208
-0.613432
-0.618399
-0.623102
-0.62753
-0.631677
-0.635535
-0.639096
-0.642352
-0.645297
-0.647925
-0.65023
-0.652205
-0.653848
-0.655152
-0.656115
-0.656732
-0.657002
-0.656923
-0.656492
-0.65571
-0.654575
-0.653089
-0.651253
-0.649068
-0.646536
-0.64366
-0.640443
-0.636889
-0.633004
-0.628791
-0.624256
-0.619405
-0.614245
-0.608782
-0.603024
-0.596979
-0.590655
-0.58406
-0.577204
-0.570096
-0.562746
-0.555164
-0.547361
-0.539348
-0.531136
-0.522736
-0.51416
-0.50542
-0.496529
-0.487499
-0.478342
-0.469072
-0.459702
-0.450244
-0.440712
-0.431119
-0.421478
-0.411802
-0.402104
-0.392396
-0.382693
-0.373005
-0.363346
-0.353727
-0.34416
-0.334656
-0.325226
-0.315881
-0.306629
-0.297481
-0.288446
-0.279532
-0.270746
-0.262097
-0.25359
-0.245232
-0.237029
-0.228985
-0.221105
-0.213392
-0.20585
-0.198482
-0.191288
-0.184272
-0.177434
-0.170775
-0.164294
-0.157992
-0.151868
-0.145921
-0.140148
-0.13455
-0.129123
-0.123865
-0.118773
-0.113845
-0.109077
-0.104467
-0.10001
-0.095703
-0.0915427
-0.0875251
-0.0836462
-0.0799021
-0.0762888
-0.0728022
-0.0694383
-0.0661929
-0.063062
-0.0600415
-0.0571273
-0.0543155
-0.0516019
-0.0489827
-0.0464539
-0.0440116
-0.041652
-0.0393715
-0.0371661
-0.0350324
-0.0329667
-0.0309656
-0.0290255
-0.0271431
-0.0253151
-0.0235382
-0.0218093
-0.0201251
-0.0184827
-0.0168789
-0.015311
-0.013776
-0.0122712
-0.0107932
-0.0093409
-0.007908
-0.00650055
-0.00509475
-0.0037392
-0.00230128
-0.00106026
0.276804
0.276679
0.276405
0.275972
0.275383
0.274638
0.273736
0.272677
0.271456
0.270071
0.268521
0.266801
0.264909
0.26284
0.260592
0.258159
0.255538
0.252724
0.249712
0.246496
0.243073
0.239435
0.235579
0.231498
0.227186
0.222638
0.217849
0.212813
0.207524
0.201978
0.196169
0.190093
0.183746
0.177123
0.170223
0.163043
0.15558
0.147834
0.139806
0.131494
0.122903
0.114035
0.104893
0.0954828
0.0858113
0.0758858
0.0657149
0.0553087
0.044678
0.0338348
0.0227922
0.0115639
0.000164648
-0.0113904
-0.0230854
-0.0349041
-0.0468301
-0.0588466
-0.0709372
-0.0830852
-0.0952743
-0.107489
-0.119713
-0.131932
-0.144132
-0.1563
-0.168422
-0.180487
-0.192483
-0.204402
-0.216234
-0.22797
-0.239604
-0.251129
-0.262541
-0.273834
-0.285004
-0.29605
-0.306969
-0.317759
-0.32842
-0.338952
-0.349353
-0.359625
-0.369769
-0.379786
-0.389676
-0.39944
-0.409081
-0.418598
-0.427993
-0.437266
-0.446417
-0.455446
-0.464353
-0.473136
-0.481795
-0.490326
-0.498727
-0.506995
-0.515127
-0.523117
-0.530961
-0.538653
-0.546187
-0.553557
-0.560756
-0.567775
-0.574608
-0.581247
-0.587682
-0.593905
-0.599907