/*--------------------------------*- C++ -*----------------------------------*\
| =========                 |                                                 |
| \\      /  F ield         | OpenFOAM: The Open Source CFD Toolbox           |
|  \\    /   O peration     | Version:  2306                                  |
|   \\  /    A nd           | Website:  www.openfoam.com                      |
|    \\/     M anipulation  |                                                 |
\*---------------------------------------------------------------------------*/
FoamFile
{
    version     2.0;
    format      ascii;
    arch        "LSB;label=32;scalar=64";
    class       surfaceScalarField;
    location    "8";
    object      phi;
}
// * * * * * * * * * * * * * * * * * * * * * * * * * * * * * * * * * * * * * //

dimensions      [0 3 -1 0 0 0 0];

oriented        oriented;

internalField   nonuniform List<scalar> 
65152
(
0.00625051
-5.06115e-07
0.00625203
-1.52029e-06
0.00625456
-2.53512e-06
0.00625811
-3.55173e-06
0.00626269
-4.57181e-06
0.00626828
-5.59645e-06
0.00627491
-6.62635e-06
0.00628257
-7.66226e-06
0.00629128
-8.70498e-06
0.00630103
-9.7553e-06
0.00631184
-1.08139e-05
0.00632373
-1.18815e-05
0.00633668
-1.29585e-05
0.00635073
-1.40454e-05
0.00636587
-1.51426e-05
0.00638212
-1.62503e-05
0.00639949
-1.73686e-05
0.00641799
-1.84976e-05
0.00643763
-1.96371e-05
0.00645841
-2.07869e-05
0.00648036
-2.19466e-05
0.00650347
-2.31155e-05
0.00652777
-2.4293e-05
0.00655325
-2.54782e-05
0.00657992
-2.667e-05
0.00660778
-2.78672e-05
0.00663685
-2.90682e-05
0.00666712
-3.02716e-05
0.0066986
-3.14754e-05
0.00673128
-3.26778e-05
0.00676515
-3.38766e-05
0.00680022
-3.50694e-05
0.00683648
-3.62538e-05
0.0068739
-3.74271e-05
0.00691249
-3.85866e-05
0.00695222
-3.97293e-05
0.00699307
-4.08523e-05
0.00703502
-4.19524e-05
0.00707805
-4.30266e-05
0.00712212
-4.40716e-05
0.00716721
-4.50843e-05
0.00721327
-4.60615e-05
0.00726027
-4.70001e-05
0.00730816
-4.78971e-05
0.00735691
-4.87496e-05
0.00740647
-4.95548e-05
0.00745678
-5.03102e-05
0.00750779
-5.10134e-05
0.00755946
-5.16622e-05
0.00761171
-5.22547e-05
0.0076645
-5.27894e-05
0.00771776
-5.32649e-05
0.00777144
-5.36803e-05
0.00782548
-5.40348e-05
0.00787981
-5.43281e-05
0.00793437
-5.45602e-05
0.0079891
-5.47315e-05
0.00804394
-5.48424e-05
0.00809884
-5.48941e-05
0.00815372
-5.48876e-05
0.00820855
-5.48247e-05
0.00826325
-5.47069e-05
0.00831779
-5.45364e-05
0.00837211
-5.43155e-05
0.00842615
-5.40464e-05
0.00847988
-5.37318e-05
0.00853326
-5.33743e-05
0.00858624
-5.29768e-05
0.00863878
-5.25421e-05
0.00869085
-5.20731e-05
0.00874242
-5.15726e-05
0.00879347
-5.10437e-05
0.00884396
-5.04889e-05
0.00889387
-4.99112e-05
0.00894318
-4.93131e-05
0.00899188
-4.86972e-05
0.00903994
-4.80658e-05
0.00908737
-4.74212e-05
0.00913413
-4.67654e-05
0.00918023
-4.61002e-05
0.00922566
-4.54274e-05
0.00927041
-4.47484e-05
0.00931447
-4.40644e-05
0.00935785
-4.33765e-05
0.00940053
-4.26854e-05
0.00944252
-4.19918e-05
0.00948382
-4.12961e-05
0.00952442
-4.05984e-05
0.00956432
-3.98987e-05
0.00960351
-3.91968e-05
0.00964201
-3.84924e-05
0.00967979
-3.77848e-05
0.00971687
-3.70734e-05
0.00975322
-3.63572e-05
0.00978886
-3.56354e-05
0.00982376
-3.49068e-05
0.00985793
-3.41703e-05
0.00989136
-3.34247e-05
0.00992403
-3.26685e-05
0.00995593
-3.19006e-05
0.00998705
-3.11195e-05
0.0100174
-3.03239e-05
0.0100469
-2.95124e-05
0.0100756
-2.86838e-05
0.0101034
-2.78366e-05
0.0101304
-2.69699e-05
0.0101565
-2.60823e-05
0.0101816
-2.51728e-05
0.0102059
-2.42405e-05
0.0102292
-2.32845e-05
0.0102515
-2.2304e-05
0.0102728
-2.12985e-05
0.010293
-2.02673e-05
0.0103122
-1.92102e-05
0.0103304
-1.81268e-05
0.0103474
-1.70171e-05
0.0103633
-1.5881e-05
0.010378
-1.47187e-05
0.0103915
-1.35305e-05
0.0104038
-1.23167e-05
0.0104149
-1.10779e-05
0.0104247
-9.81477e-06
0.0104332
-8.52799e-06
0.0104405
-7.21846e-06
0.0104464
-5.88714e-06
0.0104509
-4.53509e-06
0.0104541
-3.16346e-06
0.0104558
-1.77349e-06
0.0104562
-3.6657e-07
0.0104551
1.05614e-06
0.0104526
2.49296e-06
0.0104487
3.94254e-06
0.0104433
5.40331e-06
0.0104364
6.87367e-06
0.0104281
8.35201e-06
0.0104182
9.83669e-06
0.0104069
1.1326e-05
0.0103941
1.28183e-05
0.0103798
1.43119e-05
0.010364
1.5805e-05
0.0103467
1.72959e-05
0.0103279
1.87828e-05
0.0103076
2.02641e-05
0.0102859
2.17379e-05
0.0102627
2.32025e-05
0.010238
2.46562e-05
0.0102119
2.60971e-05
0.0101844
2.75236e-05
0.0101555
2.89338e-05
0.0101252
3.03261e-05
0.0100935
3.16986e-05
0.0100604
3.30497e-05
0.010026
3.43775e-05
0.00999035
3.56804e-05
0.00995339
3.69566e-05
0.00991518
3.82044e-05
0.00987576
3.94221e-05
0.00983515
4.06079e-05
0.00979339
4.17602e-05
0.00975052
4.28774e-05
0.00970656
4.39578e-05
0.00966156
4.49998e-05
0.00961556
4.60019e-05
0.00956859
4.69626e-05
0.00952071
4.78803e-05
0.00947196
4.87537e-05
0.00942238
4.95814e-05
0.00937202
5.03622e-05
0.00932092
5.10948e-05
0.00926914
5.17782e-05
0.00921673
5.24114e-05
0.00916374
5.29934e-05
0.00911022
5.35234e-05
0.00905622
5.40008e-05
0.00900179
5.4425e-05
0.00894699
5.47955e-05
0.00889188
5.51121e-05
0.00883651
5.53745e-05
0.00878093
5.55827e-05
0.00872519
5.57369e-05
0.00866935
5.58372e-05
0.00861347
5.58841e-05
0.00855759
5.58782e-05
0.00850177
5.58199e-05
0.00844606
5.57103e-05
0.00839051
5.55502e-05
0.00833517
5.53407e-05
0.00828008
5.5083e-05
0.00822531
5.47784e-05
0.00817088
5.44284e-05
0.00811684
5.40345e-05
0.00806325
5.35984e-05
0.00801012
5.31216e-05
0.00795752
5.26062e-05
0.00790546
5.20539e-05
0.007854
5.14666e-05
0.00780315
5.08464e-05
0.00775296
5.01952e-05
0.00770344
4.95152e-05
0.00765463
4.88084e-05
0.00760655
4.80769e-05
0.00755923
4.73227e-05
0.00751268
4.65481e-05
0.00746693
4.5755e-05
0.00742198
4.49454e-05
0.00737786
4.41216e-05
0.00733458
4.32853e-05
0.00729214
4.24386e-05
0.00725055
4.15833e-05
0.00720983
4.07213e-05
0.00716998
3.98544e-05
0.00713099
3.89843e-05
0.00709288
3.81127e-05
0.00705564
3.72411e-05
0.00701927
3.6371e-05
0.00698377
3.5504e-05
0.00694912
3.46413e-05
0.00691534
3.37843e-05
0.00688241
3.29341e-05
0.00685031
3.2092e-05
0.00681906
3.12589e-05
0.00678862
3.04359e-05
0.006759
2.96239e-05
0.00673017
2.88237e-05
0.00670214
2.80361e-05
0.00667487
2.72618e-05
0.00664837
2.65014e-05
0.00662262
2.57555e-05
0.00659759
2.50247e-05
0.00657328
2.43094e-05
0.00654967
2.36099e-05
0.00652675
2.29267e-05
0.00650449
2.226e-05
0.00648288
2.16101e-05
0.0064619
2.09772e-05
0.00644154
2.03615e-05
0.00642177
1.97631e-05
0.00640259
1.91822e-05
0.00638397
1.86189e-05
0.0063659
1.80731e-05
0.00634836
1.7545e-05
0.00633132
1.70346e-05
0.00631478
1.65418e-05
0.00629871
1.60666e-05
0.0062831
1.56089e-05
0.00626793
1.51688e-05
0.00625319
1.47461e-05
0.00623885
1.43407e-05
0.0062249
1.39524e-05
0.00621131
1.35815e-05
0.00619809
1.32267e-05
0.0061852
1.28896e-05
0.00617263
1.25671e-05
0.00616037
1.2258e-05
0.00614839
1.19809e-05
1.16362e-05
0.00625051
-1.01273e-06
0.00625203
-3.03873e-06
0.00625456
-5.06733e-06
0.00625811
-7.10049e-06
0.00626267
-9.14029e-06
0.00626827
-1.11888e-05
0.00627489
-1.32478e-05
0.00628254
-1.53189e-05
0.00629124
-1.74038e-05
0.00630099
-1.95039e-05
0.0063118
-2.16207e-05
0.00632367
-2.37555e-05
0.00633662
-2.59092e-05
0.00635066
-2.80828e-05
0.0063658
-3.02771e-05
0.00638204
-3.24925e-05
0.0063994
-3.47294e-05
0.00641789
-3.69877e-05
0.00643752
-3.92671e-05
0.0064583
-4.15673e-05
0.00648024
-4.38874e-05
0.00650335
-4.62262e-05
0.00652764
-4.85823e-05
0.00655312
-5.0954e-05
0.00657979
-5.3339e-05
0.00660765
-5.57349e-05
0.00663672
-5.81388e-05
0.006667
-6.05475e-05
0.00669848
-6.29574e-05
0.00673117
-6.53646e-05
0.00676506
-6.77646e-05
0.00680014
-7.01529e-05
0.00683641
-7.25245e-05
0.00687386
-7.48741e-05
0.00691247
-7.71961e-05
0.00695222
-7.94847e-05
0.0069931
-8.17339e-05
0.00703509
-8.39374e-05
0.00707815
-8.60891e-05
0.00712226
-8.81824e-05
0.00716739
-9.02111e-05
0.0072135
-9.21688e-05
0.00726055
-9.40491e-05
0.00730849
-9.58462e-05
0.0073573
-9.75541e-05
0.00740691
-9.91672e-05
0.00745728
-0.00010068
0.00750836
-0.000102089
0.00756008
-0.000103389
0.0076124
-0.000104575
0.00766526
-0.000105646
0.00771859
-0.000106598
0.00777234
-0.00010743
0.00782645
-0.000108139
0.00788085
-0.000108726
0.00793548
-0.00010919
0.00799028
-0.000109532
0.00804519
-0.000109753
0.00810015
-0.000109855
0.0081551
-0.00010984
0.00820999
-0.000109713
0.00826476
-0.000109475
0.00831935
-0.000109132
0.00837372
-0.000108687
0.00842782
-0.000108147
0.00848161
-0.000107515
0.00853503
-0.000106797
0.00858805
-0.000105999
0.00864064
-0.000105127
0.00869275
-0.000104186
0.00874436
-0.000103182
0.00879544
-0.000102121
0.00884596
-0.000101009
0.00889589
-9.98506e-05
0.00894523
-9.86518e-05
0.00899395
-9.74175e-05
0.00904204
-9.61524e-05
0.00908948
-9.4861e-05
0.00913626
-9.35474e-05
0.00918238
-9.22154e-05
0.00922782
-9.08682e-05
0.00927258
-8.95088e-05
0.00931665
-8.81396e-05
0.00936004
-8.67628e-05
0.00940273
-8.538e-05
0.00944474
-8.39923e-05
0.00948604
-8.26005e-05
0.00952665
-8.1205e-05
0.00956655
-7.98057e-05
0.00960576
-7.84023e-05
0.00964426
-7.69938e-05
0.00968205
-7.55792e-05
0.00971914
-7.4157e-05
0.00975551
-7.27256e-05
0.00979115
-7.12829e-05
0.00982607
-6.98268e-05
0.00986026
-6.83549e-05
0.0098937
-6.68647e-05
0.00992638
-6.53536e-05
0.0099583
-6.3819e-05
0.00998944
-6.2258e-05
0.0100198
-6.06679e-05
0.0100493
-5.90461e-05
0.010078
-5.73899e-05
0.0101059
-5.56968e-05
0.0101329
-5.39642e-05
0.010159
-5.21899e-05
0.0101842
-5.03718e-05
0.0102085
-4.85078e-05
0.0102318
-4.65964e-05
0.0102541
-4.46359e-05
0.0102754
-4.26252e-05
0.0102957
-4.05631e-05
0.010315
-3.84488e-05
0.0103331
-3.6282e-05
0.0103502
-3.40623e-05
0.0103661
-3.17898e-05
0.0103808
-2.94647e-05
0.0103944
-2.70877e-05
0.0104067
-2.46594e-05
0.0104178
-2.2181e-05
0.0104277
-1.96536e-05
0.0104362
-1.7079e-05
0.0104434
-1.44587e-05
0.0104494
-1.17948e-05
0.0104539
-9.0893e-06
0.0104571
-6.34458e-06
0.0104589
-3.56312e-06
0.0104593
-7.47378e-07
0.0104582
2.09948e-06
0.0104557
4.97495e-06
0.0104518
7.8759e-06
0.0104464
1.07993e-05
0.0104395
1.37419e-05
0.0104312
1.67005e-05
0.0104214
1.96718e-05
0.01041
2.26524e-05
0.0103972
2.5639e-05
0.0103829
2.86282e-05
0.0103671
3.16164e-05
0.0103498
3.46002e-05
0.010331
3.75761e-05
0.0103107
4.05406e-05
0.010289
4.34903e-05
0.0102657
4.64215e-05
0.0102411
4.93308e-05
0.0102149
5.22148e-05
0.0101874
5.50697e-05
0.0101584
5.78922e-05
0.0101281
6.06788e-05
0.0100964
6.34259e-05
0.0100633
6.613e-05
0.0100289
6.87877e-05
0.00999315
7.13955e-05
0.00995616
7.39498e-05
0.00991791
7.64473e-05
0.00987845
7.88846e-05
0.0098378
8.12581e-05
0.009796
8.35647e-05
0.00975307
8.58009e-05
0.00970907
8.79635e-05
0.00966402
9.00493e-05
0.00961797
9.20551e-05
0.00957095
9.39781e-05
0.00952301
9.58151e-05
0.00947421
9.75633e-05
0.00942457
9.92202e-05
0.00937415
0.000100783
0.00932299
0.00010225
0.00927115
0.000103618
0.00921868
0.000104885
0.00916562
0.00010605
0.00911203
0.000107111
0.00905797
0.000108066
0.00900348
0.000108915
0.00894862
0.000109656
0.00889344
0.00011029
0.008838
0.000110815
0.00878235
0.000111231
0.00872655
0.000111539
0.00867065
0.00011174
0.0086147
0.000111833
0.00855876
0.00011182
0.00850287
0.000111703
0.0084471
0.000111483
0.00839149
0.000111161
0.00833609
0.000110741
0.00828095
0.000110224
0.00822611
0.000109614
0.00817163
0.000108912
0.00811754
0.000108123
0.00806389
0.000107249
0.00801072
0.000106293
0.00795806
0.00010526
0.00790596
0.000104154
0.00785445
0.000102977
0.00780357
0.000101734
0.00775333
0.00010043
0.00770378
9.90677e-05
0.00765494
9.76518e-05
0.00760683
9.61866e-05
0.00755947
9.46761e-05
0.0075129
9.31245e-05
0.00746711
9.15361e-05
0.00742214
8.99149e-05
0.007378
8.8265e-05
0.0073347
8.65903e-05
0.00729224
8.48948e-05
0.00725064
8.31823e-05
0.00720991
8.14564e-05
0.00717004
7.97207e-05
0.00713105
7.79787e-05
0.00709292
7.62336e-05
0.00705568
7.44887e-05
0.0070193
7.2747e-05
0.00698379
7.10114e-05
0.00694915
6.92846e-05
0.00691537
6.75691e-05
0.00688243
6.58675e-05
0.00685034
6.4182e-05
0.00681909
6.25147e-05
0.00678865
6.08676e-05
0.00675904
5.92426e-05
0.00673022
5.76412e-05
0.00670219
5.60652e-05
0.00667493
5.45158e-05
0.00664844
5.29943e-05
0.0066227
5.15019e-05
0.00659768
5.00397e-05
0.00657338
4.86084e-05
0.00654978
4.7209e-05
0.00652687
4.58421e-05
0.00650462
4.45083e-05
0.00648302
4.32082e-05
0.00646206
4.19422e-05
0.00644171
4.07105e-05
0.00642196
3.95136e-05
0.00640279
3.83517e-05
0.00638418
3.72249e-05
0.00636612
3.61333e-05
0.00634859
3.50771e-05
0.00633157
3.40561e-05
0.00631504
3.30705e-05
0.00629898
3.21201e-05
0.00628339
3.12049e-05
0.00626823
3.03248e-05
0.0062535
2.94794e-05
0.00623917
2.86688e-05
0.00622523
2.78926e-05
0.00621166
2.71503e-05
0.00619845
2.64425e-05
0.00618557
2.57652e-05
0.00617301
2.51301e-05
0.00616077
2.44972e-05
0.00614876
2.39933e-05
2.32237e-05
0.00625051
-1.51801e-06
0.00625202
-4.55484e-06
0.00625455
-7.59564e-06
0.00625809
-1.06435e-05
0.00626265
-1.37015e-05
0.00626824
-1.67725e-05
0.00627485
-1.98593e-05
0.00628249
-2.29643e-05
0.00629118
-2.60901e-05
0.00630092
-2.9239e-05
0.00631171
-3.24131e-05
0.00632357
-3.56143e-05
0.0063365
-3.88442e-05
0.00635052
-4.21042e-05
0.00636564
-4.53954e-05
0.00638187
-4.87187e-05
0.00639921
-5.20743e-05
0.00641769
-5.54625e-05
0.0064373
-5.88829e-05
0.00645807
-6.23346e-05
0.00648
-6.58166e-05
0.0065031
-6.93271e-05
0.00652738
-7.2864e-05
0.00655285
-7.64246e-05
0.00657952
-8.00058e-05
0.00660739
-8.36037e-05
0.00663646
-8.72141e-05
0.00666675
-9.08321e-05
0.00669824
-9.44524e-05
0.00673095
-9.8069e-05
0.00676486
-0.000101675
0.00679997
-0.000105264
0.00683627
-0.000108829
0.00687376
-0.000112361
0.00691242
-0.000115851
0.00695222
-0.000119292
0.00699316
-0.000122674
0.00703521
-0.000125988
0.00707835
-0.000129224
0.00712254
-0.000132372
0.00716775
-0.000135423
0.00721395
-0.000138368
0.0072611
-0.000141196
0.00730915
-0.0001439
0.00735806
-0.000146469
0.00740779
-0.000148895
0.00745828
-0.000151171
0.00750948
-0.00015329
0.00756134
-0.000155244
0.00761379
-0.000157028
0.00766678
-0.000158638
0.00772025
-0.000160069
0.00777414
-0.000161318
0.00782839
-0.000162383
0.00788292
-0.000163263
0.00793769
-0.000163958
0.00799263
-0.00016447
0.00804768
-0.000164799
0.00810277
-0.000164949
0.00815785
-0.000164923
0.00821287
-0.000164727
0.00826776
-0.000164366
0.00832247
-0.000163845
0.00837696
-0.000163173
0.00843117
-0.000162355
0.00848505
-0.0001614
0.00853857
-0.000160316
0.00859168
-0.000159112
0.00864435
-0.000157796
0.00869655
-0.000156378
0.00874823
-0.000154864
0.00879937
-0.000153266
0.00884995
-0.00015159
0.00889995
-0.000149846
0.00894934
-0.000148041
0.00899811
-0.000146184
0.00904623
-0.00014428
0.00909371
-0.000142338
0.00914053
-0.000140363
0.00918667
-0.00013836
0.00923214
-0.000136335
0.00927692
-0.000134293
0.00932102
-0.000132236
0.00936442
-0.000130169
0.00940714
-0.000128093
0.00944915
-0.00012601
0.00949047
-0.000123921
0.0095311
-0.000121828
0.00957102
-0.000119729
0.00961024
-0.000117625
0.00964876
-0.000115513
0.00968658
-0.000113393
0.00972368
-0.000111261
0.00976007
-0.000109116
0.00979574
-0.000106954
0.00983069
-0.000104773
0.0098649
-0.000102568
0.00989837
-0.000100335
0.00993109
-9.80718e-05
0.00996304
-9.57728e-05
0.00999422
-9.34344e-05
0.0100246
-9.10523e-05
0.0100542
-8.86225e-05
0.0100829
-8.6141e-05
0.0101108
-8.36039e-05
0.0101379
-8.10075e-05
0.010164
-7.83483e-05
0.0101893
-7.56231e-05
0.0102136
-7.28289e-05
0.010237
-6.99632e-05
0.0102594
-6.70236e-05
0.0102808
-6.40083e-05
0.0103011
-6.09156e-05
0.0103204
-5.77445e-05
0.0103386
-5.4494e-05
0.0103557
-5.1164e-05
0.0103717
-4.77543e-05
0.0103865
-4.42655e-05
0.0104001
-4.06983e-05
0.0104125
-3.7054e-05
0.0104236
-3.33342e-05
0.0104335
-2.95408e-05
0.0104421
-2.5676e-05
0.0104494
-2.17426e-05
0.0104554
-1.77434e-05
0.0104599
-1.36817e-05
0.0104632
-9.5609e-06
0.010465
-5.38477e-06
0.0104654
-1.15708e-06
0.0104644
3.11746e-06
0.0104619
7.43504e-06
0.010458
1.1791e-05
0.0104526
1.61807e-05
0.0104458
2.05993e-05
0.0104374
2.5042e-05
0.0104276
2.95039e-05
0.0104163
3.39797e-05
0.0104034
3.84646e-05
0.0103891
4.29533e-05
0.0103733
4.74406e-05
0.010356
5.19214e-05
0.0103371
5.63903e-05
0.0103168
6.08422e-05
0.0102951
6.52717e-05
0.0102718
6.96737e-05
0.0102471
7.40427e-05
0.0102209
7.83736e-05
0.0101934
8.26611e-05
0.0101643
8.69e-05
0.0101339
9.10848e-05
0.0101022
9.52105e-05
0.010069
9.92717e-05
0.0100345
0.000103263
0.00999875
0.00010718
0.00996169
0.000111016
0.00992337
0.000114767
0.00988382
0.000118428
0.00984309
0.000121993
0.0098012
0.000125458
0.00975818
0.000128816
0.00971408
0.000132065
0.00966893
0.000135198
0.00962277
0.000138211
0.00957565
0.000141099
0.00952761
0.000143859
0.00947869
0.000146485
0.00942893
0.000148974
0.00937839
0.000151322
0.00932712
0.000153525
0.00927516
0.000155579
0.00922256
0.000157483
0.00916938
0.000159233
0.00911566
0.000160826
0.00906147
0.000162261
0.00900685
0.000163535
0.00895186
0.000164648
0.00889655
0.000165599
0.00884098
0.000166386
0.0087852
0.000167011
0.00872926
0.000167473
0.00867323
0.000167772
0.00861715
0.000167911
0.00856108
0.00016789
0.00850507
0.000167712
0.00844918
0.000167379
0.00839344
0.000166895
0.00833792
0.000166261
0.00828266
0.000165483
0.00822772
0.000164563
0.00817312
0.000163507
0.00811893
0.000162318
0.00806517
0.000161002
0.0080119
0.000159564
0.00795915
0.00015801
0.00790696
0.000156345
0.00785536
0.000154575
0.00780439
0.000152706
0.00775408
0.000150744
0.00770445
0.000148695
0.00765554
0.000146565
0.00760736
0.000144362
0.00755995
0.00014209
0.00751331
0.000139758
0.00746748
0.000137369
0.00742246
0.000134932
0.00737828
0.000132452
0.00733493
0.000129935
0.00729244
0.000127386
0.00725081
0.000124813
0.00721005
0.000122219
0.00717016
0.000119611
0.00713114
0.000116993
0.00709301
0.000114371
0.00705574
0.000111749
0.00701936
0.000109133
0.00698384
0.000106526
0.0069492
0.000103932
0.00691541
0.000101355
0.00688248
9.87994e-05
0.00685039
9.6268e-05
0.00681914
9.37642e-05
0.00678872
9.12909e-05
0.00675911
8.88508e-05
0.00673031
8.64465e-05
0.00670229
8.40802e-05
0.00667505
8.17541e-05
0.00664858
7.94701e-05
0.00662285
7.72299e-05
0.00659786
7.5035e-05
0.00657358
7.28868e-05
0.00655
7.07864e-05
0.00652711
6.8735e-05
0.00650488
6.67334e-05
0.00648331
6.47824e-05
0.00646237
6.28827e-05
0.00644204
6.10347e-05
0.00642232
5.92389e-05
0.00640317
5.74956e-05
0.00638459
5.58051e-05
0.00636656
5.41675e-05
0.00634905
5.2583e-05
0.00633206
5.10516e-05
0.00631556
4.95731e-05
0.00629953
4.81477e-05
0.00628396
4.67751e-05
0.00626883
4.5455e-05
0.00625412
4.41873e-05
0.00623982
4.29716e-05
0.0062259
4.18078e-05
0.00621236
4.06946e-05
0.00619917
3.96339e-05
0.00618631
3.86178e-05
0.00617377
3.76684e-05
0.00616156
3.67165e-05
0.00614958
3.59675e-05
3.48037e-05
0.0062505
-2.02204e-06
0.00625202
-6.06729e-06
0.00625454
-1.01178e-05
0.00625807
-1.4178e-05
0.00626262
-1.82518e-05
0.00626819
-2.23431e-05
0.00627479
-2.64555e-05
0.00628242
-3.05925e-05
0.00629109
-3.47575e-05
0.0063008
-3.89536e-05
0.00631157
-4.31836e-05
0.00632341
-4.74501e-05
0.00633632
-5.17553e-05
0.00635031
-5.61011e-05
0.00636541
-6.0489e-05
0.00638161
-6.49202e-05
0.00639893
-6.93952e-05
0.00641738
-7.39142e-05
0.00643698
-7.84767e-05
0.00645772
-8.30818e-05
0.00647963
-8.77279e-05
0.00650272
-9.24129e-05
0.00652699
-9.71338e-05
0.00655245
-0.000101887
0.00657912
-0.000106669
0.00660699
-0.000111474
0.00663607
-0.000116296
0.00666636
-0.000121129
0.00669788
-0.000125966
0.00673061
-0.000130799
0.00676455
-0.00013562
0.00679971
-0.000140418
0.00683606
-0.000145183
0.00687361
-0.000149906
0.00691233
-0.000154575
0.00695222
-0.000159178
0.00699324
-0.000163702
0.00703539
-0.000168136
0.00707863
-0.000172466
0.00712294
-0.00017668
0.00716828
-0.000180764
0.00721462
-0.000184705
0.00726191
-0.000188491
0.00731012
-0.00019211
0.0073592
-0.000195549
0.00740911
-0.000198797
0.00745978
-0.000201843
0.00751117
-0.000204678
0.00756321
-0.000207293
0.00761587
-0.00020968
0.00766906
-0.000211833
0.00772274
-0.000213746
0.00777684
-0.000215415
0.00783129
-0.000216837
0.00788604
-0.000218011
0.00794101
-0.000218936
0.00799616
-0.000219615
0.00805141
-0.000220049
0.00810671
-0.000220244
0.00816198
-0.000220202
0.00821719
-0.000219933
0.00827227
-0.000219441
0.00832716
-0.000218737
0.00838181
-0.000217828
0.00843618
-0.000216725
0.00849022
-0.000215439
0.00854389
-0.000213981
0.00859714
-0.000212362
0.00864993
-0.000210593
0.00870224
-0.000208688
0.00875403
-0.000206656
0.00880528
-0.000204511
0.00885595
-0.000202264
0.00890603
-0.000199926
0.0089555
-0.000197507
0.00900433
-0.000195018
0.00905252
-0.00019247
0.00910005
-0.00018987
0.00914692
-0.000187227
0.00919311
-0.000184548
0.00923861
-0.000181841
0.00928343
-0.000179112
0.00932756
-0.000176364
0.00937099
-0.000173603
0.00941373
-0.000170832
0.00945578
-0.000168052
0.00949712
-0.000165266
0.00953777
-0.000162474
0.00957771
-0.000159677
0.00961696
-0.000156872
0.00965551
-0.000154058
0.00969335
-0.000151234
0.00973048
-0.000148395
0.00976691
-0.000145539
0.00980261
-0.000142662
0.0098376
-0.000139758
0.00987185
-0.000136823
0.00990537
-0.000133852
0.00993814
-0.000130839
0.00997014
-0.00012778
0.0100014
-0.000124668
0.0100318
-0.000121497
0.0100615
-0.000118263
0.0100903
-0.00011496
0.0101183
-0.000111582
0.0101454
-0.000108124
0.0101716
-0.000104583
0.0101969
-0.000100953
0.0102213
-9.72309e-05
0.0102448
-9.34126e-05
0.0102673
-8.94953e-05
0.0102887
-8.54764e-05
0.0103092
-8.13537e-05
0.0103286
-7.71258e-05
0.0103468
-7.27915e-05
0.010364
-6.83504e-05
0.0103801
-6.38025e-05
0.010395
-5.91485e-05
0.0104087
-5.43894e-05
0.0104211
-4.95268e-05
0.0104324
-4.4563e-05
0.0104423
-3.95004e-05
0.010451
-3.43423e-05
0.0104583
-2.90921e-05
0.0104643
-2.37537e-05
0.010469
-1.83315e-05
0.0104723
-1.28302e-05
0.0104741
-7.25468e-06
0.0104746
-1.61011e-06
0.0104736
4.09722e-06
0.0104712
9.86219e-06
0.0104673
1.56786e-05
0.0104619
2.15402e-05
0.0104551
2.74405e-05
0.0104468
3.33731e-05
0.0104369
3.93313e-05
0.0104256
4.53083e-05
0.0104128
5.12974e-05
0.0103984
5.72917e-05
0.0103826
6.32842e-05
0.0103652
6.9268e-05
0.0103464
7.5236e-05
0.0103261
8.11812e-05
0.0103042
8.70968e-05
0.0102809
9.29755e-05
0.0102562
9.88103e-05
0.0102299
0.000104594
0.0102023
0.00011032
0.0101732
0.000115982
0.0101427
0.000121571
0.0101108
0.000127081
0.0100776
0.000132505
0.010043
0.000137836
0.0100072
0.000143068
0.00996997
0.000148192
0.00993154
0.000153203
0.00989187
0.000158093
0.00985101
0.000162855
0.00980899
0.000167483
0.00976583
0.00017197
0.00972159
0.00017631
0.00967629
0.000180495
0.00962998
0.000184521
0.0095827
0.00018838
0.00953449
0.000192066
0.0094854
0.000195575
0.00943548
0.0001989
0.00938476
0.000202037
0.00933331
0.00020498
0.00928116
0.000207725
0.00922838
0.000210268
0.00917501
0.000212605
0.0091211
0.000214733
0.00906671
0.000216649
0.00901189
0.000218351
0.00895671
0.000219837
0.0089012
0.000221105
0.00884543
0.000222156
0.00878945
0.000222988
0.00873332
0.000223602
0.0086771
0.000224
0.00862082
0.000224183
0.00856456
0.000224152
0.00850836
0.000223911
0.00845228
0.000223462
0.00839636
0.000222811
0.00834066
0.000221961
0.00828523
0.000220916
0.00823011
0.000219683
0.00817535
0.000218267
0.00812099
0.000216674
0.00806709
0.000214911
0.00801366
0.000212985
0.00796077
0.000210904
0.00790844
0.000208674
0.00785671
0.000206304
0.00780562
0.000203802
0.00775519
0.000201175
0.00770545
0.000198433
0.00765643
0.000195584
0.00760815
0.000192635
0.00756065
0.000189596
0.00751393
0.000186476
0.00746802
0.000183281
0.00742293
0.000180021
0.00737868
0.000176704
0.00733527
0.000173338
0.00729273
0.000169931
0.00725105
0.000166489
0.00721025
0.000163022
0.00717033
0.000159536
0.00713128
0.000156037
0.00709312
0.000152533
0.00705584
0.00014903
0.00701944
0.000145533
0.00698392
0.00014205
0.00694926
0.000138584
0.00691548
0.000135142
0.00688255
0.000131729
0.00685047
0.000128348
0.00681923
0.000125004
0.00678882
0.000121701
0.00675922
0.000118443
0.00673044
0.000115233
0.00670244
0.000112074
0.00667523
0.000108969
0.00664878
0.00010592
0.00662308
0.00010293
0.00659811
0.000100001
0.00657387
9.71338e-05
0.00655032
9.43312e-05
0.00652746
9.1594e-05
0.00650527
8.89234e-05
0.00648373
8.63206e-05
0.00646283
8.37863e-05
0.00644254
8.13212e-05
0.00642286
7.8926e-05
0.00640375
7.66009e-05
0.00638521
7.43464e-05
0.00636722
7.21626e-05
0.00634975
7.00497e-05
0.00633279
6.80077e-05
0.00631633
6.60366e-05
0.00630034
6.41362e-05
0.00628481
6.23063e-05
0.00626972
6.05466e-05
0.00625505
5.88569e-05
0.00624078
5.72366e-05
0.00622691
5.56855e-05
0.0062134
5.42019e-05
0.00620024
5.27889e-05
0.00618743
5.14347e-05
0.00617492
5.01708e-05
0.00616274
4.89011e-05
0.0061508
4.79057e-05
4.63527e-05
0.0062505
-2.52442e-06
0.00625201
-7.57476e-06
0.00625452
-1.26318e-05
0.00625805
-1.7701e-05
0.00626258
-2.27874e-05
0.00626814
-2.7896e-05
0.00627471
-3.30312e-05
0.00628232
-3.81976e-05
0.00629096
-4.33994e-05
0.00630064
-4.86404e-05
0.00631139
-5.39244e-05
0.00632319
-5.92547e-05
0.00633607
-6.4634e-05
0.00635003
-7.00648e-05
0.00636509
-7.55491e-05
0.00638126
-8.10883e-05
0.00639855
-8.66833e-05
0.00641697
-9.23341e-05
0.00643653
-9.80405e-05
0.00645725
-0.000103801
0.00647914
-0.000109615
0.0065022
-0.000115478
0.00652646
-0.000121387
0.00655191
-0.000127338
0.00657856
-0.000133326
0.00660643
-0.000139344
0.00663552
-0.000145385
0.00666584
-0.000151442
0.00669737
-0.000157505
0.00673014
-0.000163564
0.00676413
-0.000169608
0.00679933
-0.000175626
0.00683576
-0.000181604
0.00687338
-0.00018753
0.00691219
-0.000193389
0.00695218
-0.000199167
0.00699333
-0.000204847
0.00703561
-0.000210414
0.00707899
-0.000215852
0.00712346
-0.000221145
0.00716897
-0.000226275
0.00721549
-0.000231226
0.00726298
-0.000235983
0.0073114
-0.000240529
0.0073607
-0.00024485
0.00741084
-0.00024893
0.00746175
-0.000252757
0.00751339
-0.000256319
0.0075657
-0.000259602
0.00761862
-0.000262599
0.00767209
-0.000265301
0.00772604
-0.0002677
0.00778042
-0.000269791
0.00783515
-0.000271572
0.00789018
-0.00027304
0.00794544
-0.000274194
0.00800086
-0.000275038
0.00805639
-0.000275574
0.00811195
-0.000275807
0.00816749
-0.000275744
0.00822295
-0.000275393
0.00827828
-0.000274763
0.0083334
-0.000273865
0.00838829
-0.000272711
0.00844287
-0.000271313
0.00849712
-0.000269684
0.00855098
-0.00026784
0.00860441
-0.000265793
0.00865737
-0.00026356
0.00870984
-0.000261155
0.00876178
-0.000258594
0.00881316
-0.00025589
0.00886395
-0.00025306
0.00891415
-0.000250116
0.00896371
-0.000247073
0.00901264
-0.000243943
0.00906091
-0.00024074
0.00910851
-0.000237473
0.00915544
-0.000234155
0.00920168
-0.000230793
0.00924724
-0.000227398
0.0092921
-0.000223975
0.00933627
-0.000220533
0.00937974
-0.000217074
0.00942252
-0.000213605
0.00946459
-0.000210127
0.00950597
-0.000206642
0.00954664
-0.000203152
0.00958662
-0.000199655
0.0096259
-0.000196151
0.00966448
-0.000192638
0.00970236
-0.000189112
0.00973953
-0.000185569
0.009776
-0.000182006
0.00981175
-0.000178416
0.00984679
-0.000174794
0.0098811
-0.000171134
0.00991468
-0.000167429
0.00994751
-0.000163673
0.00997959
-0.000159857
0.0100109
-0.000155976
0.0100414
-0.000152023
0.0100711
-0.000147989
0.0101001
-0.000143868
0.0101281
-0.000139654
0.0101553
-0.00013534
0.0101817
-0.00013092
0.0102071
-0.000126388
0.0102316
-0.000121741
0.0102552
-0.000116973
0.0102778
-0.000112079
0.0102994
-0.000107058
0.0103199
-0.000101906
0.0103394
-9.66219e-05
0.0103578
-9.12035e-05
0.0103751
-8.56505e-05
0.0103913
-7.9963e-05
0.0104063
-7.41418e-05
0.0104201
-6.81882e-05
0.0104326
-6.21044e-05
0.010444
-5.5893e-05
0.010454
-4.95574e-05
0.0104628
-4.31014e-05
0.0104702
-3.65295e-05
0.0104763
-2.98467e-05
0.010481
-2.30583e-05
0.0104844
-1.61705e-05
0.0104863
-9.18932e-06
0.0104868
-2.12111e-06
0.0104859
5.0257e-06
0.0104835
1.22452e-05
0.0104797
1.95293e-05
0.0104743
2.68702e-05
0.0104675
3.42598e-05
0.0104592
4.169e-05
0.0104494
4.91524e-05
0.0104381
5.66385e-05
0.0104252
6.41398e-05
0.0104109
7.16476e-05
0.010395
7.91533e-05
0.0103776
8.66482e-05
0.0103587
9.41234e-05
0.0103383
0.00010157
0.0103164
0.00010898
0.0102931
0.000116343
0.0102682
0.000123652
0.0102419
0.000130897
0.0102142
0.00013807
0.010185
0.000145162
0.0101544
0.000152163
0.0101224
0.000159066
0.0100891
0.000165861
0.0100544
0.00017254
0.0100183
0.000179094
0.00998102
0.000185514
0.00994243
0.000191792
0.0099026
0.000197919
0.00986157
0.000203886
0.00981937
0.000209685
0.00977603
0.000215308
0.00973159
0.000220746
0.0096861
0.000225991
0.00963958
0.000231036
0.00959209
0.000235872
0.00954367
0.000240492
0.00949435
0.000244889
0.0094442
0.000249056
0.00939324
0.000252987
0.00934155
0.000256675
0.00928916
0.000260115
0.00923612
0.000263302
0.0091825
0.00026623
0.00912834
0.000268896
0.00907369
0.000271296
0.00901861
0.000273427
0.00896316
0.000275288
0.00890739
0.000276875
0.00885136
0.000278189
0.00879512
0.000279229
0.00873873
0.000279995
0.00868224
0.000280489
0.00862571
0.000280713
0.00856919
0.00028067
0.00851274
0.000280362
0.0084564
0.000279795
0.00840024
0.000278972
0.0083443
0.0002779
0.00828864
0.000276584
0.00823329
0.000275031
0.00817831
0.000273249
0.00812374
0.000271245
0.00806962
0.000269028
0.008016
0.000266606
0.00796291
0.000263989
0.0079104
0.000261187
0.0078585
0.000258208
0.00780723
0.000255064
0.00775664
0.000251765
0.00770676
0.00024832
0.0076576
0.000244742
0.0076092
0.000241039
0.00756157
0.000237224
0.00751474
0.000233306
0.00746872
0.000229297
0.00742354
0.000225205
0.0073792
0.000221043
0.00733572
0.000216819
0.0072931
0.000212545
0.00725136
0.000208228
0.00721051
0.000203879
0.00717054
0.000199507
0.00713145
0.00019512
0.00709326
0.000190727
0.00705595
0.000186335
0.00701953
0.000181952
0.006984
0.000177586
0.00694934
0.000173244
0.00691555
0.000168931
0.00688262
0.000164654
0.00685055
0.000160419
0.00681933
0.00015623
0.00678893
0.000152094
0.00675936
0.000148014
0.0067306
0.000143994
0.00670264
0.000140039
0.00667546
0.000136151
0.00664904
0.000132335
0.00662338
0.000128593
0.00659845
0.000124926
0.00657425
0.000121339
0.00655075
0.000117832
0.00652793
0.000114407
0.00650579
0.000111066
0.0064843
0.00010781
0.00646345
0.000104641
0.00644321
0.000101558
0.00642357
9.8562e-05