/*--------------------------------*- C++ -*----------------------------------*\
| =========                 |                                                 |
| \\      /  F ield         | OpenFOAM: The Open Source CFD Toolbox           |
|  \\    /   O peration     | Version:  2306                                  |
|   \\  /    A nd           | Website:  www.openfoam.com                      |
|    \\/     M anipulation  |                                                 |
\*---------------------------------------------------------------------------*/
FoamFile
{
    version     2.0;
    format      ascii;
    arch        "LSB;label=32;scalar=64";
    class       volScalarField;
    location    "8";
    object      T;
}
// * * * * * * * * * * * * * * * * * * * * * * * * * * * * * * * * * * * * * //

dimensions      [0 0 0 1 0 0 0];

internalField   nonuniform List<scalar> 
32768
(
300
300
300
300
300
300
300
300
300
300
300
300
300
300
300
300
300
300
300
300
300
300
300
300
300
300
300
300
300
300
300
300
300
300
300
300
300
300
300
300
300
300
300
300
300
300
300
300
300
300
300
300
300
300
300
300
300
300
300
300
300
300
300
300
300
300
300
300
300
300
300
300
300
300
300
300
300
300
299.999
299.999
299.999
299.999
299.999
299.999
299.999
299.999
299.998
299.998
299.998
299.997
299.997
299.997
299.996
299.996
299.995
299.995
299.994
299.993
299.993
299.992
299.991
299.99
299.988
299.987
299.986
299.984
299.983
299.981
299.979
299.977
299.974
299.972
299.969
299.966
299.963
299.96
299.956
299.953
299.948
299.944
299.939
299.934
299.929
299.923
299.917
299.911
299.904
299.897
299.889
299.881
299.872
299.863
299.854
299.844
299.833
299.822
299.811
299.799
299.786
299.773
299.759
299.744
299.729
299.714
299.697
299.68
299.663
299.644
299.626
299.606
299.586
299.565
299.543
299.521
299.498
299.474
299.45
299.425
299.4
299.373
299.346
299.319
299.29
299.261
299.232
299.202
299.171
299.14
299.108
299.075
299.042
299.008
298.974
298.939
298.903
298.868
298.831
298.794
298.757
298.719
298.681
298.642
298.602
298.563
298.523
298.482
298.441
298.4
298.358
298.316
298.273
298.23
298.187
298.143
298.099
298.054
298.009
297.964
297.918
297.871
297.824
297.777
297.728
297.679
297.629
297.578
297.526
297.473
297.419
297.362
297.304
297.244
297.181
297.116
297.047
296.974
296.896
296.813
296.724
296.628
296.523
296.41
296.285
296.149
295.998
295.831
295.647
295.442
295.214
294.959
294.675
294.354
293.992
293.576
293.089
292.501
291.759
290.766
289.341
287.153
283.578
277.455
266.617
247.019
211.121
144.888
22.2257
-205.318
-627.585
-1410.95
-2863.1
-5552.34
-10527
-19718.4
-36680.6
-67941.7
300
300
300
300
300
300
300
300
300
300
300
300
300
300
300
300
300
300
300
300
300
300
300
300
300
300
300
300
300
300
300
300
300
300
300
300
300
300
300
300
300
300
300
300
300
300
300
300
300
300
300
300
300
300
300
300
300
300
300
300
300
300
300
300
300
300
300
300
300
300
300
300
300
300
300
300
300
300
299.999
299.999
299.999
299.999
299.999
299.999
299.999
299.998
299.998
299.998
299.998
299.997
299.997
299.996
299.996
299.995
299.995
299.994
299.993
299.993
299.992
299.991
299.99
299.989
299.987
299.986
299.984
299.983
299.981
299.979
299.977
299.975
299.972
299.969
299.967
299.964
299.96
299.957
299.953
299.949
299.944
299.94
299.934
299.929
299.923
299.917
299.911
299.904
299.897
299.889
299.881
299.873
299.864
299.854
299.844
299.834
299.823
299.811
299.799
299.786
299.773
299.759
299.745
299.73
299.714
299.698
299.681
299.663
299.645
299.626
299.607
299.587
299.566
299.544
299.522
299.499
299.476
299.452
299.427
299.402
299.375
299.349
299.321
299.293
299.265
299.235
299.205
299.175
299.144
299.112
299.08
299.047
299.013
298.979
298.945
298.91
298.874
298.838
298.802
298.765
298.727
298.689
298.651
298.612
298.573
298.533
298.493
298.452
298.411
298.37
298.328
298.286
298.244
298.201
298.158
298.114
298.07
298.025
297.98
297.935
297.889
297.843
297.796
297.748
297.7
297.651
297.601
297.55
297.499
297.446
297.391
297.335
297.277
297.217
297.154
297.089
297.02
296.947
296.869
296.786
296.697
296.601
296.497
296.383
296.259
296.122
295.972
295.805
295.62
295.415
295.187
294.933
294.648
294.327
293.965
293.548
293.061
292.474
291.731
290.738
289.314
287.125
283.551
277.431
266.596
247.004
211.116
144.9
22.2649
-205.236
-627.439
-1410.72
-2862.77
-5551.96
-10526.8
-19718.8
-36683.2
-67950
300
300
300
300
300
300
300
300
300
300
300
300
300
300
300
300
300
300
300
300
300
300
300
300
300
300
300
300
300
300
300
300
300
300
300
300
300
300
300
300
300
300
300
300
300
300
300
300
300
300
300
300
300
300
300
300
300
300
300
300
300
300
300
300
300
300
300
300
300
300
300
300
300
300
300
300
299.999
299.999
299.999
299.999
299.999
299.999
299.999
299.998
299.998
299.998
299.998
299.997
299.997
299.997
299.996
299.996
299.995
299.994
299.994
299.993
299.992
299.991
299.99
299.989
299.988
299.986
299.985
299.983
299.982
299.98
299.978
299.975
299.973
299.97
299.967
299.964
299.961
299.957
299.954
299.95
299.945
299.94
299.935
299.93
299.924
299.918
299.912
299.905
299.898
299.89
299.882
299.874
299.865
299.855
299.845
299.835
299.824
299.812
299.8
299.788
299.775
299.761
299.746
299.731
299.716
299.7
299.683
299.665
299.647
299.629
299.609
299.589
299.569
299.547
299.525
299.503
299.48
299.456
299.431
299.406
299.38
299.354
299.327
299.299
299.271
299.242
299.212
299.182
299.152
299.12
299.089
299.056
299.023
298.99
298.956
298.922
298.887
298.851
298.815
298.779
298.742
298.705
298.667
298.629
298.591
298.552
298.512
298.473
298.432
298.392
298.351
298.31
298.268
298.226
298.184
298.141
298.098
298.055
298.011
297.967
297.922
297.877
297.831
297.785
297.738
297.691
297.643
297.595
297.545
297.494
297.443
297.39
297.336
297.28
297.222
297.163
297.1
297.035
296.966
296.893
296.816
296.733
296.644
296.548
296.444
296.331
296.206
296.07
295.919
295.752
295.568
295.363
295.135
294.88
294.595
294.275
293.912
293.495
293.008
292.42
291.678
290.684
289.261
287.073
283.501
277.384
266.557
246.976
211.109
144.928
22.3495
-205.064
-627.139
-1410.24
-2862.11
-5551.18
-10526.3
-19719.8
-36688.6
-67966.8
300
300
300
300
300
300
300
300
300
300
300
300
300
300
300
300
300
300
300
300
300
300
300
300
300
300
300
300
300
300
300
300
300
300
300
300
300
300
300
300
300
300
300
300
300
300
300
300
300
300
300
300
300
300
300
300
300
300
300
300
300
300
300
300
300
300
300
300
300
300
300
300
300
300
300
299.999
299.999
299.999
299.999
299.999
299.999
299.999
299.998
299.998
299.998
299.997
299.997
299.997
299.996
299.996
299.995
299.994
299.994
299.993
299.992
299.991
299.99
299.989
299.988
299.986
299.985
299.983
299.981
299.979
299.977
299.975
299.972
299.969
299.966
299.963
299.96
299.956
299.952
299.948
299.943
299.938
299.933
299.928
299.922
299.915
299.909
299.902
299.894
299.886
299.878
299.869
299.859
299.85
299.839
299.828
299.817
299.805
299.792
299.779
299.766
299.751
299.736
299.721
299.705
299.688
299.671
299.653
299.634
299.615
299.595
299.575
299.554
299.532
299.51
299.487
299.463
299.439
299.414
299.388
299.362
299.335
299.308
299.28
299.252
299.223
299.193
299.163
299.132
299.101
299.069
299.037
299.004
298.971
298.937
298.903
298.868
298.833
298.798
298.762
298.725
298.689
298.652
298.614
298.576
298.538
298.499
298.46
298.421
298.381
298.341
298.301
298.26
298.219
298.178
298.136
298.094
298.051
298.009
297.966
297.922
297.878
297.834
297.789
297.744
297.698
297.652
297.605
297.558
297.509
297.46
297.41
297.359
297.307
297.253
297.198
297.14
297.081
297.019
296.954
296.885
296.813
296.736
296.653
296.565
296.469
296.365
296.252
296.127
295.991
295.84
295.674
295.489
295.284
295.056
294.801
294.516
294.195
293.832
293.416
292.928
292.34
291.598
290.605
289.182
286.996
283.427
277.316
266.499
246.937
211.102
144.973
22.479
-204.802
-626.684
-1409.53
-2861.11
-5550.02
-10525.5
-19721.2
-36696.7
-67992.1
300
300
300
300
300
300
300
300
300
300
300
300
300
300
300
300
300
300
300
300
300
300
300
300
300
300
300
300
300
300
300
300
300
300
300
300
300
300
300
300
300
300
300
300
300
300
300
300
300
300
300
300
300
300
300
300
300
300
300
300
300
300
300
300
300
300
300
300
300
300
300
300
300
299.999
299.999
299.999
299.999
299.999
299.999
299.999
299.998
299.998
299.998
299.997
299.997
299.997
299.996
299.996
299.995
299.994
299.993
299.993
299.992
299.991
299.99
299.988
299.987
299.985
299.984
299.982
299.98
299.978
299.976
299.973
299.97
299.967
299.964
299.961
299.957
299.953
299.949
299.944
299.939
299.934
299.928
299.922
299.916
299.909
299.902
299.894
299.886
299.877
299.868
299.859
299.849
299.838
299.827
299.815
299.803
299.79
299.776
299.762
299.748
299.732
299.716
299.7
299.683
299.665
299.647
299.628
299.608
299.587
299.566
299.545
299.523
299.5
299.476
299.452
299.427
299.402
299.376
299.35
299.322
299.295
299.267
299.238
299.208
299.179
299.148
299.117
299.086
299.054
299.022
298.989
298.956
298.923
298.889
298.854
298.82
298.784
298.749
298.713
298.677
298.64
298.603
298.566
298.528
298.491
298.452
298.414
298.375
298.336
298.297
298.257
298.217
298.177
298.137
298.096
298.055
298.014
297.972
297.93
297.888
297.845
297.802
297.759
297.715
297.671
297.626
297.581
297.536
297.489
297.443
297.395
297.346
297.297
297.247
297.195
297.142
297.087
297.03
296.971
296.909
296.845
296.777
296.705
296.628
296.546
296.458
296.362
296.259
296.146
296.022
295.885
295.735
295.568
295.384
295.179
294.95
294.695
294.41
294.089
293.726
293.309
292.822
292.234
291.491
290.499
289.077
286.893
283.329
277.225
266.423
246.886
211.092
145.034
22.6524
-204.454
-626.077
-1408.58
-2859.77
-5548.48
-10524.6
-19723.1
-36707.5
-68025.9
300
300
300
300
300
300
300
300
300
300
300
300
300
300
300
300
300
300
300
300
300
300
300
300
300
300
300
300
300
300
300
300
300
300
300
300
300
300
300
300
300
300
300
300
300
300
300
300
300
300
300
300
300
300
300
300
300
300
300
300
300
300
300
300
300
300
300
300
300
300
300
299.999
299.999
299.999
299.999
299.999
299.999
299.999
299.998
299.998
299.998
299.997
299.997
299.996
299.996
299.995
299.995
299.994
299.993
299.992
299.991
299.99
299.989
299.988
299.986
299.984
299.983
299.981
299.979
299.976
299.974
299.971
299.968
299.965
299.961
299.957
299.953
299.949
299.944
299.939
299.934
299.928
299.922
299.915
299.908
299.9
299.892
299.884
299.875
299.865
299.855
299.844
299.833
299.821
299.809
299.796
299.783
299.768
299.753
299.738
299.722
299.705
299.688
299.669
299.651
299.631
299.611
299.59
299.569
299.547
299.524
299.5
299.476
299.451
299.426
299.4
299.374
299.347
299.319
299.291
299.262
299.232
299.203
299.172
299.141
299.11
299.078
299.046
299.014
298.981
298.947
298.913
298.879
298.845
298.81
298.775
298.739
298.704
298.668
298.631
298.595
298.558
298.521
298.484
298.446
298.409
298.371
298.332
298.294
298.256
298.217
298.178
298.139
298.099
298.06
298.02
297.98
297.94
297.899
297.858
297.817
297.776
297.734
297.693
297.65
297.608
297.565
297.522
297.478
297.434
297.389
297.343
297.297
297.25
297.203
297.154
297.104
297.054
297.001
296.947
296.891
296.833
296.772
296.708
296.641
296.569
296.493
296.411
296.324
296.229
296.125
296.012
295.889
295.753
295.602
295.436
295.251
295.046
294.818
294.563
294.278
293.957
293.593
293.176
292.688
292.1
291.358
290.366
288.945
286.764
283.205
277.112
266.327
246.821
211.08
145.109
22.8688
-204.018
-625.32
-1407.39
-2858.11
-5546.56
-10523.4
-19725.6
-36721
-68068.3
300
300
300
300
300
300
300
300
300
300
300
300
300
300
300
300
300
300
300
300
300
300
300
300
300
300
300
300
300
300
300
300
300
300
300
300
300
300
300
300
300
300
300
300
300
300
300
300
300
300
300
300
300
300
300
300
300
300
300
300
300
300
300
300
300
300
300
300
300
299.999
299.999
299.999
299.999
299.999
299.999
299.999
299.998
299.998
299.998
299.997
299.997
299.996
299.996
299.995
299.994
299.994
299.993
299.992
299.991
299.989
299.988
299.987
299.985
299.983
299.981
299.979
299.977
299.974
299.971
299.968
299.965
299.961
299.957
299.953
299.949
299.944
299.938
299.933
299.927
299.92
299.913
299.906
299.898
299.889
299.88
299.871
299.86
299.85
299.838
299.826
299.814
299.801
299.787
299.772
299.757
299.741
299.724
299.707
299.689
299.67
299.65
299.63
299.609
299.587
299.565
299.541
299.517
299.493
299.468
299.442
299.415
299.388
299.36
299.331
299.302
299.272
299.242
299.211
299.18
299.148
299.116
299.083
299.05
299.017
298.983
298.948
298.914
298.879
298.844
298.808
298.772
298.736
298.7
298.663
298.627
298.59
298.553
298.516
298.478
298.441
298.403
298.366
298.328
298.29
298.252
298.214
298.176
298.137
298.099
298.06
298.022
297.983
297.944
297.905
297.866
297.827
297.787
297.748
297.708
297.668
297.628
297.588
297.547
297.506
297.465
297.424
297.382
297.339
297.297
297.254
297.21
297.166
297.121
297.075
297.028
296.981
296.932
296.882
296.831
296.778
296.723
296.665
296.605
296.542
296.475
296.405
296.329
296.248
296.161
296.067
295.964
295.851
295.728
295.592
295.442
295.276
295.092
294.887
294.658
294.403
294.118
293.797
293.433
293.016
292.528
291.939
291.197
290.206
288.787
286.609
283.057
276.975
266.212
246.743
211.065
145.198
23.127
-203.498
-624.414
-1405.97
-2856.12
-5544.27
-10522
-19728.5
-36737.3
-68119.2
300
300
300
300
300
300
300
300
300
300
300
300
300
300
300
300
300
300
300
300
300
300
300
300
300
300
300
300
300
300
300
300
300
300
300
300
300
300
300
300
300
300
300
300
300
300
300
300
300
300
300
300
300
300
300
300
300
300
300
300
300
300
300
300
300
300
300
299.999
299.999
299.999
299.999
299.999
299.999
299.998
299.998
299.998
299.998
299.997
299.997
299.996
299.996
299.995
299.994
299.993
299.992
299.991
299.99
299.989
299.987
299.986
299.984
299.982
299.98
299.977
299.975
299.972
299.969
299.965
299.962
299.958
299.953
299.948
299.943
299.938
299.932
299.925
299.919
299.911
299.903
299.895
299.886
299.876
299.866
299.855
299.844
299.832
299.819
299.805
299.791
299.776
299.76
299.743
299.726
299.708
299.689
299.669
299.648
299.627
299.605
299.582
299.558
299.533
299.507
299.481
299.454
299.426
299.398
299.369
299.339
299.308
299.277
299.245
299.212
299.179
299.146
299.112
299.077
299.042
299.006
298.97
298.934
298.897
298.86
298.823
298.786
298.748
298.71
298.672
298.634
298.595
298.557
298.518
298.48
298.441
298.402
298.364
298.325
298.286
298.248
298.209
298.171
298.132
298.094
298.055
298.017
297.978
297.94
297.902
297.863
297.825
297.787
297.749
297.711
297.672
297.634
297.596
297.557
297.519
297.48
297.441
297.402
297.363
297.324
297.285
297.245
297.205
297.164
297.123
297.082
297.04
296.998
296.955
296.912
296.867
296.822
296.776
296.729
296.68
296.63
296.578
296.524
296.468
296.409
296.347
296.281
296.211
296.137
296.057
295.97
295.876
295.774
295.662
295.539
295.404
295.254
295.088
294.904
294.699
294.471
294.216
293.93
293.609
293.245
292.827
292.339
291.75
291.009
290.018
288.601
286.427
282.882
276.815
266.076
246.65
211.045
145.3
23.4256
-202.894
-623.362
-1404.32
-2853.81
-5541.6
-10520.3
-19732
-36756.3
-68178.7
300
300
300
300
300
300
300
300
300
300
300
300
300
300
300
300
300
300
300
300
300
300
300
300
300
300
300
300
300
300
300
300
300
300
300
300
300
300
300
300
300
300
300
300
300
300
300
300
300
300
300
300
300
300
300
300
300
300
300
300
300
300
300
300
300
300
299.999
299.999
299.999
299.999
299.999
299.998
299.998
299.998
299.998
299.997
299.997
299.996
299.995
299.995
299.994
299.993
299.992
299.991
299.99
299.988
299.986
299.985
299.983
299.981
299.978
299.976
299.973
299.969
299.966
299.962
299.958
299.953
299.949
299.943
299.938
299.931
299.925
299.917
299.91
299.901
299.892
299.883
299.872
299.862
299.85
299.838
299.825
299.811
299.796
299.78
299.764
299.747
299.729
299.71
299.69
299.669
299.647
299.624
299.601
299.576
299.551
299.524
299.497
299.469
299.44
299.409
299.379
299.347
299.314
299.281
299.247
299.212
299.176
299.14
299.103
299.066
299.028
298.99
298.951
298.911
298.872
298.831
298.791
298.75
298.709
298.668
298.627
298.586
298.544
298.503
298.461
298.42
298.378
298.337
298.296
298.254
298.213
298.172
298.132
298.091
298.051
298.011
297.971
297.931
297.892
297.853
297.814
297.775
297.737
297.698
297.66
297.622
297.585
297.547
297.51
297.472
297.435
297.398
297.361
297.324
297.287
297.25
297.213
297.176
297.138
297.101
297.063
297.026
296.987
296.949
296.911
296.872
296.832
296.792
296.752
296.711
296.669
296.626
296.583
296.538
296.492
296.445
296.397
296.346
296.294
296.239
296.181
296.121
296.056
295.988
295.914
295.835
295.749
295.656
295.555
295.444
295.321
295.187
295.037
294.872
294.688
294.483
294.255
293.999
293.714
293.392
293.028
292.61
292.121
291.533
290.791
289.801
288.386
286.217
282.681
276.629
265.918
246.541
211.02
145.414
23.7629
-202.209
-622.167
-1402.44
-2851.17
-5538.57
-10518.5
-19736
-36778.2
-68246.8
300
300
300
300
300
300
300
300
300
300
300
300
300
300
300
300
300
300
300
300
300
300
300
300
300
300
300
300
300
300
300
300
300
300
300
300
300
300
300
300
300
300
300
300
300
300
300
300
300
300
300
300
300
300
300
300
300
300
300
300
300
300
300
300
299.999
299.999
299.999
299.999
299.999
299.999
299.998
299.998
299.998
299.997
299.997
299.996
299.995
299.995
299.994
299.993
299.992
299.99
299.989
299.987
299.986
299.984
299.982
299.979
299.977
299.974
299.97
299.967
299.963
299.959
299.954
299.949
299.944
299.938
299.931
299.924
299.917
299.909
299.9
299.89
299.88
299.869
299.858
299.845
299.832
299.818
299.803
299.787
299.77
299.753
299.734
299.714
299.693
299.671
299.649
299.625
299.6
299.573
299.546
299.518
299.488
299.458
299.426
299.394
299.36
299.326
299.29
299.253
299.216
299.178
299.138
299.098
299.058
299.016
298.974
298.931
298.888
298.844
298.8
298.755
298.71
298.665
298.619
298.573
298.527
298.481
298.435
298.389
298.343
298.297
298.252
298.206
298.161
298.115
298.071
298.026
297.982
297.938
297.895
297.852
297.809
297.767
297.725
297.684
297.643
297.603
297.563
297.523
297.484
297.446
297.408
297.37
297.332
297.295
297.259
297.222
297.186
297.15
297.114
297.079
297.044
297.008
296.973
296.938
296.903
296.868
296.833
296.798
296.762
296.727
296.691
296.655
296.619
296.582
296.545
296.507
296.469
296.43
296.391
296.35
296.309
296.266
296.222
296.177
296.131
296.082
296.031
295.978
295.922
295.863
295.8
295.733
295.661
295.583
295.498
295.406
295.306
295.195
295.074
294.94
294.791
294.626
294.442
294.237
294.009
293.754
293.468
293.146
292.782
292.363
291.875
291.286
290.545
289.556
288.143
285.979
282.452
276.418
265.739
246.417
210.989
145.538
24.1374
-201.445
-620.83
-1400.34
-2848.23
-5535.18
-10516.4
-19740.5
-36802.8
-68323.6
300
300
300
300
300
300
300
300
300
300
300
300
300
300
300
300
300
300
300
300
300
300
300
300
300
300
300
300
300
300
300
300
300
300
300
300
300
300
300
300
300
300
300
300
300
300
300
300
300
300
300
300
300
300
300
300
300
300
300
300
300
300
299.999
299.999
299.999
299.999
299.999
299.999
299.998
299.998
299.998
299.997
299.997
299.996
299.995
299.994
299.994
299.992
299.991
299.99
299.988
299.987
299.985
299.983
299.98
299.978
299.975
299.972
299.968
299.964
299.96
299.955
299.95
299.945
299.938
299.932
299.925
299.917
299.908
299.899
299.889
299.878
299.867
299.855
299.842
299.827
299.812
299.796
299.779
299.761
299.742
299.722
299.7
299.677
299.654
299.628
299.602
299.574
299.546
299.515
299.484
299.451
299.417
299.382
299.345
299.308
299.269
299.229
299.187
299.145
299.102
299.057
299.012
298.966
298.919
298.871
298.822
298.773
298.723
298.673
298.622
298.571
298.519
298.467
298.415
298.363
298.311
298.259
298.207
298.155
298.103
298.052
298
297.95
297.899
297.849
297.8
297.751
297.703
297.655
297.608
297.562
297.516
297.472
297.427
297.384
297.341
297.299
297.258
297.217
297.177
297.138
297.099
297.061
297.024
296.987
296.951
296.915
296.88
296.846
296.811
296.778
296.744
296.711
296.678
296.645
296.613
296.581
296.548
296.516
296.484
296.451
296.419
296.386
296.353
296.32
296.287
296.253
296.219
296.184
296.148
296.112
296.075
296.037
295.999
295.959
295.917
295.874
295.83
295.784
295.735
295.684
295.63
295.573
295.511
295.446
295.375
295.299
295.216
295.125
295.026
294.916
294.796
294.662
294.514
294.349
294.166
293.962
293.733
293.478
293.192
292.87
292.505
292.087
291.598
291.009
290.268
289.28
287.87
285.711
282.195
276.18
265.536
246.274
210.95
145.67
24.5468
-200.605
-619.357
-1398.01
-2844.97
-5531.44
-10514.2
-19745.6
-36830.2
-68409.2
300
300
300
300
300
300
300
300
300
300
300
300
300
300
300
300
300
300
300
300
300
300
300
300
300
300
300
300
300
300
300
300
300
300
300
300
300
300
300
300
300
300
300
300
300
300
300
300
300
300
300
300
300
300
300
300
300
300
300
300
300
299.999
299.999
299.999
299.999
299.999
299.998
299.998
299.998
299.997
299.997
299.996
299.995
299.994
299.993
299.992
299.991
299.99
299.988
299.986
299.984
299.982
299.979
299.977
299.973
299.97
299.966
299.962
299.957
299.952
299.946
299.94
299.933
299.926
299.918
299.909
299.899
299.889
299.878
299.866
299.853
299.839
299.824
299.808
299.791
299.773
299.753
299.733
299.711
299.688
299.663
299.637
299.609
299.581
299.55
299.518
299.485
299.45
299.414
299.376
299.337
299.296
299.253
299.21
299.164
299.118
299.07
299.021
298.97
298.919
298.866
298.812
298.758
298.702
298.646
298.588
298.531
298.472
298.414
298.354
298.295
298.235
298.175
298.115
298.056
297.996
297.937
297.878
297.819
297.76
297.703
297.646
297.589
297.533
297.478
297.424
297.371
297.318
297.267
297.216
297.167
297.118
297.071
297.024
296.979
296.934
296.891
296.849
296.808
296.767
296.728
296.69
296.652
296.616
296.58
296.545
296.511
296.478
296.445
296.413
296.382
296.351
296.32
296.29
296.261
296.231
296.202
296.173
296.145
296.116
296.087
296.059
296.03
296.001
295.971
295.942
295.912
295.882
295.851
295.82
295.787
295.755
295.721
295.686
295.651
295.614
295.575
295.535
295.494
295.45
295.404
295.355
295.303
295.248
295.189
295.126
295.057
294.982
294.901
294.812
294.713
294.605
294.486
294.353
294.206
294.042
293.859
293.655
293.427
293.172
292.886
292.563
292.198
291.779
291.29
290.701
289.96
288.973
287.566
285.413
281.908
275.915
265.308
246.113
210.901
145.809
24.9891
-199.691
-617.749
-1395.48
-2841.42
-5527.35
-10511.7
-19751.3
-36860.5
-68503.4
300
300
300
300
300
300
300
300
300
300
300
300
300
300
300
300
300
300
300
300
300
300
300
300
300
300
300
300
300
300
300
300
300
300
300
300
300
300
300
300
300
300
300
300
300
300
300
300
300
300
300
300
300
300
300
300
300
300
300
299.999
299.999
299.999
299.999
299.999
299.998
299.998
299.998
299.997
299.997
299.996
299.995
299.994
299.993
299.992
299.991
299.989
299.988
299.986
299.984
299.981
299.978
299.975
299.972
299.968
299.964
299.959
299.954
299.948
299.942
299.935
299.928
299.919
299.91
299.901
299.89
299.879
299.866
299.853
299.838
299.822
299.805
299.787
299.768
299.747
299.725
299.702
299.677
299.65
299.622
299.592
299.561
299.528
299.493
299.456
299.418
299.377
299.335
299.291
299.246
299.198
299.149
299.099
299.046
298.992
298.936
298.879
298.82
298.76
298.699
298.636
298.572
298.507
298.442
298.375
298.308
298.24
298.172
298.103
298.034
297.965
297.895
297.826
297.757
297.688
297.62
297.552
297.485
297.418
297.352
297.287
297.223
297.16
297.098
297.037
296.977
296.919
296.862
296.806
296.752
296.699
296.647
296.597
296.548
296.501
296.455
296.41
296.367
296.326
296.285
296.246
296.209
296.172
296.137
296.103
296.07
296.038
296.007
295.977
295.948
295.919
295.892
295.865
295.838
295.813
295.787
295.762
295.737
295.713
295.689
295.665
295.64
295.616
295.592
295.567
295.543
295.518
295.492
295.466
295.439
295.412
295.384
295.355
295.326
295.295
295.263
295.229
295.195
295.158
295.12
295.079
295.036
294.99
294.941
294.889
294.832
294.771
294.704
294.632
294.552
294.465
294.368
294.261
294.143
294.012
293.865
293.702
293.52
293.316
293.088
292.833
292.547
292.225
291.859
291.44
290.95
290.36
289.62
288.634
287.23
285.084
281.591
275.621
265.055
245.931
210.842
145.953
25.4618
-198.706
-616.012
-1392.73
-2837.57
-5522.93
-10509.1
-19757.5
-36893.7
-68606.6
300
300
300
300
300
300
300
300
300
300
300
300
300
300
300
300
300
300
300
300
300
300
300
300
300
300
300
300
300
300
300
300
300
300
300
300
300
300
300
300
300
300
300
300
300
300
300
300
300
300
300
300
300
300
300
300
300
300
299.999
299.999
299.999
299.999
299.999
299.998
299.998
299.997
299.997
299.996
299.995
299.994
299.993
299.992
299.991
299.989
299.988
299.986
299.983
299.981
299.978
299.974
299.971
299.967
299.962
299.957
299.951
299.945
299.938
299.931
299.922
299.913
299.903
299.892
299.88
299.868
299.854
299.839
299.822
299.805
299.786
299.765
299.744
299.72
299.695
299.668
299.64
299.61
299.578
299.544
299.508
299.47
299.429
299.387
299.343
299.297
299.248
299.197
299.145
299.09
299.033
298.974
298.913
298.85
298.785
298.718
298.649
298.579
298.507
298.434
298.36
298.284
298.207
298.13
298.051
297.972
297.892
297.812
297.731
297.65
297.57
297.489
297.409
297.329
297.25
297.172
297.094
297.017
296.941
296.867
296.794
296.722
296.651
296.582
296.515
296.449
296.385
296.322
296.262
296.203
296.147
296.092
296.039
295.988
295.938
295.891
295.846
295.802
295.76
295.72
295.682
295.646
295.611
295.577
295.545
295.515
295.486
295.458
295.431
295.406
295.382
295.358
295.336
295.314
295.293
295.273
295.253
295.233
295.214
295.195
295.177
295.158
295.14
295.121
295.102
295.083
295.064
295.044
295.024
295.003
294.982
294.96
294.936
294.912
294.887
294.861
294.833
294.804
294.774
294.741
294.707
294.67
294.63
294.588
294.542
294.493
294.439
294.38
294.316
294.246
294.169
294.083
293.989
293.884
293.767
293.637
293.491
293.329
293.147
292.944
292.717
292.462
292.176
291.853
291.487
291.067
290.577
289.987
289.247
288.263
286.862
284.722
281.243
275.297
264.775
245.728
210.769
146.099
25.9622
-197.655
-614.149
-1389.78
-2833.42
-5518.17
-10506.3
-19764.3
-36929.7
-68718.6
300
300
300
300
300
300
300
300
300
300
300
300
300
300
300
300
300
300
300
300
300
300
300
300
300
300
300
300
300
300
300
300
300
300
300
300
300
300
300
300
300
300
300
300
300
300
300
300
300
300
300
300
300
300
300
300
299.999
299.999
299.999
299.999
299.999
299.998
299.998
299.997
299.997
299.996
299.996
299.995
299.994
299.992
299.991
299.989
299.987
299.985
299.983
299.98
299.977
299.974
299.97
299.965
299.96
299.955
299.949
299.942
299.934
299.926
299.917
299.907
299.896
299.884
299.871
299.857
299.841
299.824
299.806
299.786
299.765
299.742
299.718
299.691
299.663
299.633
299.6
299.566
299.53
299.491
299.45
299.406
299.36
299.312
299.261
299.208
299.152
299.093
299.032
298.969
298.903
298.834
298.763
298.69
298.614
298.536
298.456
298.375
298.291
298.205
298.118
298.029
297.94
297.848
297.756
297.664
297.57
297.476
297.382
297.287
297.193
297.099
297.006
296.913
296.82
296.729
296.639
296.55
296.462
296.376
296.291
296.209
296.128
296.049
295.972
295.897
295.825
295.754
295.686
295.621
295.558
295.497
295.439
295.383
295.33
295.279
295.231
295.185
295.141
295.099
295.06
295.023
294.989
294.956
294.925
294.897
294.87
294.844
294.821
294.799
294.778
294.759
294.741
294.724
294.708
294.693
294.679
294.665
294.652
294.64
294.628
294.616
294.604
294.593
294.581
294.569
294.557
294.545
294.532
294.519
294.505
294.49
294.475
294.459
294.442
294.423
294.404
294.383
294.36
294.336
294.311
294.283
294.253
294.22
294.185
294.146
294.104
294.058
294.008
293.953
293.892
293.824
293.75
293.666
293.574
293.471
293.356
293.227
293.083
292.922
292.741
292.538
292.311
292.056
291.77
291.447
291.081
290.66
290.17
289.58
288.84
287.857
286.459
284.326
280.861
274.941
264.466
245.5
210.682
146.246
26.4873
-196.54
-612.166
-1386.64
-2829
-5513.1
-10503.4
-19771.8
-36968.7
-68839.6
300
300
300
300
300
300
300
300
300
300
300
300
300
300
300
300
300
300
300
300
300
300
300
300
300
300
300
300
300
300
300
300
300
300
300
300
300
300
300
300
300
300
300
300
300
300
300
300
300
300
300
300
300
300
300
299.999
299.999
299.999
299.999
299.998
299.998
299.998
299.997
299.997
299.996
299.995
299.994
299.993
299.991
299.989
299.988
299.985
299.983
299.98
299.977
299.973
299.969
299.964
299.959
299.953
299.946
299.939
299.931
299.922
299.912
299.901
299.889
299.876
299.861
299.845
299.828
299.809
299.789
299.767
299.744
299.718
299.69
299.661
299.629
299.595
299.558
299.52
299.478
299.434
299.387
299.338
299.285
299.23
299.172
299.11
299.046
298.979
298.908
298.835
298.758
298.679
298.597
298.511
298.423
298.333
298.24
298.144
298.046
297.946
297.844
297.74
297.635
297.528
297.42
297.311
297.201
297.091
296.98
296.87
296.759
296.649
296.539
296.43
296.322
296.216
296.11
296.006
295.904
295.804
295.706
295.61
295.517
295.426
295.338
295.252
295.169
295.089
295.012
294.938
294.867
294.8
294.735
294.673
294.615
294.56
294.507
294.458
294.412
294.369
294.329
294.291
294.256
294.224
294.195
294.168
294.143
294.121
294.101
294.083
294.067
294.052
294.039
294.028
294.018
294.009
294.002
293.995
293.99
293.985
293.98
293.977
293.973
293.97
293.967
293.964
293.96
293.957
293.953
293.949
293.944
293.938
293.932
293.925
293.917
293.908
293.897
293.886
293.872
293.858
293.842
293.823
293.803
293.781
293.756
293.728
293.698
293.664
293.626
293.585
293.538
293.487
293.429
293.365
293.293
293.213
293.123
293.022
292.908
292.781
292.639
292.479
292.299
292.097
291.87
291.616
291.329
291.006
290.639
290.218
289.727
289.137
288.397
287.415
286.02
283.895
280.444
274.552
264.126
245.248
210.578
146.39
27.0341
-195.365
-610.068
-1383.3
-2824.31
-5507.73
-10500.3
-19779.8
-37010.6
-68969.6
300
300
300
300
300
300
300
300
300
300
300
300
300
300
300
300
300
300
300
300
300
300
300
300
300
300
300
300
300
300
300
300
300
300
300
300
300
300
300
300
300
300
300
300
300
300
300
300
300
300
300
300
300
300
299.999
299.999
299.999
299.999
299.998
299.998
299.997
299.997
299.996
299.995
299.994
299.993
299.991
299.99
299.988
299.986
299.983
299.98
299.977
299.973
299.968
299.963
299.958
299.951
299.944
299.936
299.928
299.918
299.907
299.895
299.882
299.867
299.852
299.834
299.815
299.795
299.772
299.748
299.721
299.693
299.662
299.629
299.593
299.555
299.514
299.47
299.423
299.374
299.32
299.264
299.205
299.141
299.075
299.005
298.931
298.854
298.773
298.688
298.6
298.508
298.412
298.314
298.211
298.106
297.997
297.886
297.771
297.654
297.535
297.413
297.29
297.164