/*--------------------------------*- C++ -*----------------------------------*\
| =========                 |                                                 |
| \\      /  F ield         | OpenFOAM: The Open Source CFD Toolbox           |
|  \\    /   O peration     | Version:  2306                                  |
|   \\  /    A nd           | Website:  www.openfoam.com                      |
|    \\/     M anipulation  |                                                 |
\*---------------------------------------------------------------------------*/
FoamFile
{
    version     2.0;
    format      ascii;
    arch        "LSB;label=32;scalar=64";
    class       volVectorField;
    location    "8";
    object      U;
}
// * * * * * * * * * * * * * * * * * * * * * * * * * * * * * * * * * * * * * //

dimensions      [0 1 -1 0 0 0 0];

internalField   nonuniform List<vector> 
32768
(
(1.00001 -4.04098e-05 0)
(1.00017 -0.000121439 0)
(1.00049 -0.000202625 0)
(1.00097 -0.000283972 0)
(1.00162 -0.000365583 0)
(1.00244 -0.000447556 0)
(1.00341 -0.000529956 0)
(1.00456 -0.00061284 0)
(1.00587 -0.000696269 0)
(1.00734 -0.000780305 0)
(1.00899 -0.000865003 0)
(1.0108 -0.000950414 0)
(1.01279 -0.00103658 0)
(1.01495 -0.00112354 0)
(1.01728 -0.00121131 0)
(1.0198 -0.00129993 0)
(1.02249 -0.00138939 0)
(1.02535 -0.00147971 0)
(1.0284 -0.00157086 0)
(1.03164 -0.00166284 0)
(1.03506 -0.0017556 0)
(1.03866 -0.0018491 0)
(1.04245 -0.00194328 0)
(1.04643 -0.00203808 0)
(1.05061 -0.0021334 0)
(1.05497 -0.00222915 0)
(1.05952 -0.0023252 0)
(1.06427 -0.00242144 0)
(1.06921 -0.00251771 0)
(1.07434 -0.00261387 0)
(1.07967 -0.00270973 0)
(1.08518 -0.00280512 0)
(1.09089 -0.00289982 0)
(1.09678 -0.00299364 0)
(1.10287 -0.00308635 0)
(1.10913 -0.00317771 0)
(1.11558 -0.0032675 0)
(1.1222 -0.00335546 0)
(1.129 -0.00344134 0)
(1.13597 -0.00352489 0)
(1.14311 -0.00360585 0)
(1.1504 -0.00368397 0)
(1.15784 -0.00375901 0)
(1.16544 -0.00383073 0)
(1.17317 -0.00389888 0)
(1.18104 -0.00396326 0)
(1.18903 -0.00402366 0)
(1.19714 -0.00407988 0)
(1.20535 -0.00413175 0)
(1.21367 -0.00417913 0)
(1.22207 -0.00422189 0)
(1.23056 -0.00425992 0)
(1.23912 -0.00429314 0)
(1.24774 -0.00432151 0)
(1.25641 -0.00434498 0)
(1.26512 -0.00436356 0)
(1.27387 -0.00437728 0)
(1.28264 -0.00438618 0)
(1.29142 -0.00439034 0)
(1.3002 -0.00438986 0)
(1.30898 -0.00438487 0)
(1.31775 -0.0043755 0)
(1.32649 -0.00436191 0)
(1.3352 -0.00434428 0)
(1.34387 -0.00432281 0)
(1.35249 -0.0042977 0)
(1.36106 -0.00426916 0)
(1.36957 -0.00423743 0)
(1.37802 -0.00420271 0)
(1.38639 -0.00416525 0)
(1.39468 -0.00412528 0)
(1.40289 -0.00408302 0)
(1.41101 -0.00403871 0)
(1.41905 -0.00399255 0)
(1.42699 -0.00394475 0)
(1.43483 -0.00389553 0)
(1.44257 -0.00384507 0)
(1.45021 -0.00379355 0)
(1.45774 -0.00374113 0)
(1.46517 -0.00368795 0)
(1.4725 -0.00363416 0)
(1.47971 -0.00357987 0)
(1.48682 -0.00352518 0)
(1.49381 -0.00347017 0)
(1.5007 -0.0034149 0)
(1.50747 -0.00335943 0)
(1.51413 -0.00330378 0)
(1.52069 -0.00324797 0)
(1.52713 -0.003192 0)
(1.53345 -0.00313584 0)
(1.53967 -0.00307948 0)
(1.54577 -0.00302287 0)
(1.55176 -0.00296594 0)
(1.55764 -0.00290864 0)
(1.56339 -0.00285088 0)
(1.56904 -0.00279258 0)
(1.57456 -0.00273364 0)
(1.57997 -0.00267397 0)
(1.58526 -0.00261346 0)
(1.59043 -0.002552 0)
(1.59547 -0.00248949 0)
(1.60038 -0.00242582 0)
(1.60517 -0.00236088 0)
(1.60983 -0.00229457 0)
(1.61435 -0.00222678 0)
(1.61874 -0.00215742 0)
(1.62298 -0.0020864 0)
(1.62708 -0.00201363 0)
(1.63104 -0.00193904 0)
(1.63484 -0.00186255 0)
(1.63849 -0.0017841 0)
(1.64198 -0.00170365 0)
(1.6453 -0.00162116 0)
(1.64846 -0.00153659 0)
(1.65145 -0.00144992 0)
(1.65426 -0.00136115 0)
(1.6569 -0.00127027 0)
(1.65934 -0.0011773 0)
(1.66161 -0.00108225 0)
(1.66367 -0.000985164 0)
(1.66555 -0.000886079 0)
(1.66722 -0.000785045 0)
(1.66869 -0.000682125 0)
(1.66995 -0.000577385 0)
(1.671 -0.000470905 0)
(1.67183 -0.000362768 0)
(1.67245 -0.000253066 0)
(1.67285 -0.000141899 0)
(1.67302 -2.93629e-05 0)
(1.67296 8.44169e-05 0)
(1.67268 0.000199328 0)
(1.67217 0.000315257 0)
(1.67142 0.000432082 0)
(1.67044 0.000549676 0)
(1.66922 0.000667907 0)
(1.66776 0.000786645 0)
(1.66607 0.000905757 0)
(1.66414 0.0010251 0)
(1.66197 0.00114455 0)
(1.65956 0.00126397 0)
(1.65691 0.0013832 0)
(1.65403 0.00150212 0)
(1.6509 0.00162059 0)
(1.64754 0.00173846 0)
(1.64395 0.00185559 0)
(1.64012 0.00197185 0)
(1.63606 0.00208709 0)
(1.63177 0.00220117 0)
(1.62725 0.00231396 0)
(1.62251 0.00242531 0)
(1.61755 0.00253508 0)
(1.61236 0.00264313 0)
(1.60697 0.00274933 0)
(1.60136 0.00285353 0)
(1.59555 0.0029556 0)
(1.58954 0.00305539 0)
(1.58333 0.00315277 0)
(1.57692 0.00324761 0)
(1.57033 0.00333977 0)
(1.56356 0.00342912 0)
(1.55661 0.00351553 0)
(1.54949 0.00359886 0)
(1.54221 0.00367901 0)
(1.53477 0.00375584 0)
(1.52718 0.00382923 0)
(1.51945 0.00389908 0)
(1.51158 0.00396529 0)
(1.50359 0.00402773 0)
(1.49547 0.00408633 0)
(1.48723 0.00414099 0)
(1.4789 0.00419163 0)
(1.47046 0.00423819 0)
(1.46194 0.00428058 0)
(1.45334 0.00431877 0)
(1.44466 0.0043527 0)
(1.43592 0.00438235 0)
(1.42712 0.00440768 0)
(1.41828 0.00442868 0)
(1.4094 0.00444535 0)
(1.4005 0.00445769 0)
(1.39157 0.00446573 0)
(1.38263 0.0044695 0)
(1.37369 0.00446904 0)
(1.36475 0.00446441 0)
(1.35582 0.00445566 0)
(1.34692 0.00444288 0)
(1.33805 0.00442615 0)
(1.32921 0.00440557 0)
(1.32042 0.00438124 0)
(1.31168 0.00435327 0)
(1.303 0.0043218 0)
(1.29439 0.00428694 0)
(1.28585 0.00424884 0)
(1.27739 0.00420765 0)
(1.26902 0.0041635 0)
(1.26073 0.00411657 0)
(1.25255 0.00406699 0)
(1.24446 0.00401494 0)
(1.23648 0.00396059 0)
(1.22862 0.00390408 0)
(1.22087 0.00384561 0)
(1.21323 0.00378532 0)
(1.20572 0.00372339 0)
(1.19834 0.00365998 0)
(1.19108 0.00359527 0)
(1.18395 0.0035294 0)
(1.17696 0.00346253 0)
(1.1701 0.00339483 0)
(1.16338 0.00332645 0)
(1.1568 0.00325753 0)
(1.15035 0.00318821 0)
(1.14404 0.00311864 0)
(1.13787 0.00304894 0)
(1.13185 0.00297924 0)
(1.12596 0.00290967 0)
(1.12021 0.00284033 0)
(1.1146 0.00277134 0)
(1.10912 0.00270281 0)
(1.10378 0.00263482 0)
(1.09858 0.00256747 0)
(1.09352 0.00250084 0)
(1.08858 0.00243502 0)
(1.08378 0.00237008 0)
(1.0791 0.00230608 0)
(1.07455 0.00224308 0)
(1.07013 0.00218115 0)
(1.06583 0.00212033 0)
(1.06165 0.00206067 0)
(1.05759 0.00200222 0)
(1.05364 0.001945 0)
(1.04981 0.00188905 0)
(1.04609 0.00183439 0)
(1.04247 0.00178106 0)
(1.03896 0.00172907 0)
(1.03556 0.00167845 0)
(1.03225 0.00162919 0)
(1.02904 0.00158133 0)
(1.02593 0.00153485 0)
(1.0229 0.00148979 0)
(1.01997 0.00144612 0)
(1.01712 0.00140387 0)
(1.01435 0.00136304 0)
(1.01167 0.00132361 0)
(1.00906 0.00128559 0)
(1.00653 0.00124897 0)
(1.00406 0.00121376 0)
(1.00167 0.00117994 0)
(0.999346 0.00114751 0)
(0.997085 0.00111643 0)
(0.994878 0.00108676 0)
(0.992746 0.00105836 0)
(0.990629 0.0010314 0)
(0.988663 0.00100558 0)
(0.986503 0.00098091 0)
(0.984977 0.000958831 0)
(0.981943 0.000930521 0)
(1.00001 -0.000121405 0)
(1.00017 -0.00036454 0)
(1.00049 -0.000608058 0)
(1.00097 -0.000852092 0)
(1.00162 -0.00109692 0)
(1.00243 -0.00134281 0)
(1.00341 -0.00158996 0)
(1.00455 -0.00183857 0)
(1.00586 -0.00208881 0)
(1.00734 -0.00234088 0)
(1.00898 -0.00259495 0)
(1.0108 -0.00285116 0)
(1.01278 -0.00310964 0)
(1.01494 -0.0033705 0)
(1.01727 -0.00363383 0)
(1.01978 -0.00389968 0)
(1.02247 -0.00416809 0)
(1.02534 -0.00443906 0)
(1.02839 -0.00471256 0)
(1.03162 -0.00498853 0)
(1.03504 -0.00526688 0)
(1.03864 -0.00554745 0)
(1.04243 -0.00583009 0)
(1.04641 -0.00611457 0)
(1.05059 -0.00640064 0)
(1.05495 -0.00668799 0)
(1.0595 -0.00697629 0)
(1.06425 -0.00726515 0)
(1.06919 -0.00755413 0)
(1.07432 -0.00784277 0)
(1.07965 -0.00813053 0)
(1.08517 -0.00841687 0)
(1.09088 -0.00870119 0)
(1.09677 -0.00898285 0)
(1.10286 -0.00926119 0)
(1.10913 -0.0095355 0)
(1.11558 -0.00980509 0)
(1.12221 -0.0100692 0)
(1.12902 -0.0103271 0)
(1.13599 -0.0105779 0)
(1.14313 -0.010821 0)
(1.15043 -0.0110556 0)
(1.15789 -0.0112809 0)
(1.16549 -0.0114963 0)
(1.17323 -0.0117009 0)
(1.1811 -0.0118942 0)
(1.1891 -0.0120756 0)
(1.19722 -0.0122444 0)
(1.20545 -0.0124001 0)
(1.21377 -0.0125423 0)
(1.22219 -0.0126707 0)
(1.23069 -0.0127848 0)
(1.23926 -0.0128845 0)
(1.24789 -0.0129696 0)
(1.25657 -0.01304 0)
(1.26529 -0.0130956 0)
(1.27405 -0.0131367 0)
(1.28283 -0.0131633 0)
(1.29162 -0.0131757 0)
(1.30042 -0.0131741 0)
(1.30921 -0.013159 0)
(1.31798 -0.0131307 0)
(1.32673 -0.0130897 0)
(1.33545 -0.0130366 0)
(1.34413 -0.012972 0)
(1.35277 -0.0128964 0)
(1.36134 -0.0128106 0)
(1.36986 -0.0127151 0)
(1.37831 -0.0126108 0)
(1.38669 -0.0124982 0)
(1.39499 -0.012378 0)
(1.4032 -0.012251 0)
(1.41133 -0.0121178 0)
(1.41937 -0.0119792 0)
(1.42731 -0.0118356 0)
(1.43516 -0.0116877 0)
(1.4429 -0.0115362 0)
(1.45055 -0.0113814 0)
(1.45808 -0.011224 0)
(1.46552 -0.0110644 0)
(1.47284 -0.0109029 0)
(1.48006 -0.0107399 0)
(1.48717 -0.0105758 0)
(1.49416 -0.0104107 0)
(1.50105 -0.0102448 0)
(1.50782 -0.0100784 0)
(1.51449 -0.00991139 0)
(1.52104 -0.00974396 0)
(1.52748 -0.00957606 0)
(1.53381 -0.00940763 0)
(1.54003 -0.00923858 0)
(1.54613 -0.00906878 0)
(1.55212 -0.00889806 0)
(1.558 -0.00872621 0)
(1.56376 -0.008553 0)
(1.56941 -0.00837816 0)
(1.57494 -0.00820143 0)
(1.58035 -0.0080225 0)
(1.58564 -0.00784105 0)
(1.5908 -0.00765677 0)
(1.59585 -0.00746933 0)
(1.60077 -0.0072784 0)
(1.60556 -0.00708366 0)
(1.61022 -0.0068848 0)
(1.61475 -0.00668151 0)
(1.61913 -0.0064735 0)
(1.62338 -0.00626048 0)
(1.62749 -0.00604222 0)
(1.63145 -0.00581848 0)
(1.63525 -0.00558904 0)
(1.63891 -0.00535373 0)
(1.6424 -0.00511239 0)
(1.64573 -0.00486491 0)
(1.6489 -0.0046112 0)
(1.65189 -0.00435118 0)
(1.6547 -0.00408483 0)
(1.65734 -0.00381215 0)
(1.6598 -0.00353319 0)
(1.66206 -0.00324799 0)
(1.66413 -0.00295667 0)
(1.66601 -0.00265933 0)
(1.66769 -0.00235615 0)
(1.66916 -0.0020473 0)
(1.67042 -0.00173298 0)
(1.67148 -0.00141343 0)
(1.67231 -0.00108891 0)
(1.67293 -0.000759691 0)
(1.67333 -0.000426068 0)
(1.67351 -8.83526e-05 0)
(1.67345 0.000253115 0)
(1.67317 0.000597993 0)
(1.67266 0.000945926 0)
(1.67191 0.00129654 0)
(1.67093 0.00164947 0)
(1.66972 0.00200431 0)
(1.66826 0.00236067 0)
(1.66657 0.00271815 0)
(1.66464 0.00307634 0)
(1.66247 0.00343483 0)
(1.66006 0.00379321 0)
(1.65741 0.00415107 0)
(1.65452 0.00450797 0)
(1.6514 0.00486351 0)
(1.64803 0.00521727 0)
(1.64443 0.00556881 0)
(1.6406 0.00591773 0)
(1.63654 0.0062636 0)
(1.63225 0.00660599 0)
(1.62772 0.00694449 0)
(1.62298 0.00727868 0)
(1.61801 0.00760813 0)
(1.61283 0.00793243 0)
(1.60743 0.00825116 0)
(1.60182 0.00856389 0)
(1.596 0.00887022 0)
(1.58998 0.00916973 0)
(1.58376 0.00946201 0)
(1.57735 0.00974665 0)
(1.57075 0.0100233 0)
(1.56397 0.0102914 0)
(1.55702 0.0105507 0)
(1.54989 0.0108009 0)
(1.5426 0.0110414 0)
(1.53515 0.011272 0)
(1.52756 0.0114923 0)
(1.51981 0.0117019 0)
(1.51194 0.0119006 0)
(1.50393 0.012088 0)
(1.4958 0.0122639 0)
(1.48756 0.0124279 0)
(1.47921 0.0125799 0)
(1.47077 0.0127196 0)
(1.46224 0.0128468 0)
(1.45362 0.0129614 0)
(1.44493 0.0130632 0)
(1.43618 0.0131522 0)
(1.42738 0.0132281 0)
(1.41853 0.0132911 0)
(1.40964 0.0133411 0)
(1.40072 0.0133781 0)
(1.39178 0.0134022 0)
(1.38283 0.0134134 0)
(1.37388 0.013412 0)
(1.36493 0.013398 0)
(1.35599 0.0133716 0)
(1.34708 0.0133332 0)
(1.3382 0.0132829 0)
(1.32935 0.013221 0)
(1.32055 0.0131479 0)
(1.31181 0.0130639 0)
(1.30312 0.0129693 0)
(1.2945 0.0128646 0)
(1.28595 0.0127501 0)
(1.27748 0.0126264 0)
(1.2691 0.0124938 0)
(1.26081 0.0123528 0)
(1.25262 0.0122039 0)
(1.24453 0.0120476 0)
(1.23654 0.0118843 0)
(1.22867 0.0117147 0)
(1.22091 0.0115391 0)
(1.21327 0.011358 0)
(1.20576 0.0111721 0)
(1.19837 0.0109817 0)
(1.19111 0.0107874 0)
(1.18398 0.0105896 0)
(1.17698 0.0103888 0)
(1.17012 0.0101856 0)
(1.1634 0.0099803 0)
(1.15681 0.00977339 0)
(1.15036 0.0095653 0)
(1.14405 0.00935644 0)
(1.13788 0.00914722 0)
(1.13185 0.008938 0)
(1.12596 0.00872916 0)
(1.12021 0.00852104 0)
(1.1146 0.00831397 0)
(1.10913 0.00810826 0)
(1.10379 0.0079042 0)
(1.09859 0.00770206 0)
(1.09352 0.00750211 0)
(1.08859 0.00730457 0)
(1.08378 0.00710967 0)
(1.07911 0.0069176 0)
(1.07456 0.00672856 0)
(1.07014 0.00654271 0)
(1.06584 0.00636021 0)
(1.06166 0.00618119 0)
(1.0576 0.00600578 0)
(1.05366 0.00583409 0)
(1.04982 0.0056662 0)
(1.0461 0.00550222 0)
(1.04249 0.0053422 0)
(1.03898 0.00518622 0)
(1.03558 0.00503432 0)
(1.03228 0.00488655 0)
(1.02907 0.00474294 0)
(1.02596 0.00460352 0)
(1.02293 0.00446832 0)
(1.02 0.00433733 0)
(1.01716 0.00421058 0)
(1.01439 0.00408807 0)
(1.01171 0.00396979 0)
(1.0091 0.00385575 0)
(1.00657 0.00374591 0)
(1.00411 0.00364028 0)
(1.00172 0.00353883 0)
(0.999396 0.00344154 0)
(0.997138 0.00334837 0)
(0.994933 0.0032593 0)
(0.992803 0.00317427 0)
(0.990687 0.00309314 0)
(0.988723 0.00301646 0)
(0.986564 0.00294119 0)
(0.985042 0.00287856 0)
(0.98201 0.00278908 0)
(1.00001 -0.000202429 0)
(1.00017 -0.000607521 0)
(1.00049 -0.00101317 0)
(1.00097 -0.00141974 0)
(1.00162 -0.00182764 0)
(1.00243 -0.00223728 0)
(1.00341 -0.00264902 0)
(1.00455 -0.00306319 0)
(1.00585 -0.00348011 0)
(1.00733 -0.00390009 0)
(1.00897 -0.00432342 0)
(1.01078 -0.00475033 0)
(1.01276 -0.00518106 0)
(1.01492 -0.00561579 0)
(1.01725 -0.00605465 0)
(1.01976 -0.00649775 0)
(1.02244 -0.00694515 0)
(1.02531 -0.00739685 0)
(1.02835 -0.00785281 0)
(1.03158 -0.00831292 0)
(1.035 -0.00877703 0)
(1.0386 -0.0092449 0)
(1.04239 -0.00971625 0)
(1.04637 -0.0101907 0)
(1.05054 -0.0106679 0)
(1.05491 -0.0111473 0)
(1.05946 -0.0116282 0)
(1.06421 -0.0121102 0)
(1.06915 -0.0125924 0)
(1.07429 -0.0130741 0)
(1.07962 -0.0135544 0)
(1.08514 -0.0140323 0)
(1.09085 -0.0145069 0)
(1.09676 -0.0149771 0)
(1.10285 -0.0154418 0)
(1.10913 -0.0158999 0)
(1.11559 -0.01635 0)
(1.12223 -0.0167911 0)
(1.12904 -0.0172217 0)
(1.13603 -0.0176407 0)
(1.14318 -0.0180468 0)
(1.1505 -0.0184386 0)
(1.15797 -0.018815 0)
(1.16558 -0.0191747 0)
(1.17334 -0.0195165 0)
(1.18124 -0.0198394 0)
(1.18925 -0.0201422 0)
(1.19739 -0.0204241 0)
(1.20564 -0.0206842 0)
(1.21399 -0.0209217 0)
(1.22242 -0.0211359 0)
(1.23094 -0.0213264 0)
(1.23953 -0.0214927 0)
(1.24819 -0.0216346 0)
(1.25689 -0.0217519 0)
(1.26564 -0.0218446 0)
(1.27442 -0.0219129 0)
(1.28322 -0.0219569 0)
(1.29203 -0.0219772 0)
(1.30085 -0.0219741 0)
(1.30966 -0.0219484 0)
(1.31845 -0.0219006 0)
(1.32722 -0.0218317 0)
(1.33596 -0.0217426 0)
(1.34466 -0.0216341 0)
(1.35331 -0.0215075 0)
(1.3619 -0.0213636 0)
(1.37043 -0.0212038 0)
(1.3789 -0.021029 0)
(1.38729 -0.0208405 0)
(1.3956 -0.0206395 0)
(1.40383 -0.020427 0)
(1.41197 -0.0202043 0)
(1.42001 -0.0199724 0)
(1.42797 -0.0197324 0)
(1.43582 -0.0194853 0)
(1.44357 -0.0192321 0)
(1.45122 -0.0189736 0)
(1.45876 -0.0187107 0)
(1.4662 -0.0184442 0)
(1.47353 -0.0181746 0)
(1.48075 -0.0179026 0)
(1.48786 -0.0176287 0)
(1.49486 -0.0173533 0)
(1.50175 -0.0170767 0)
(1.50853 -0.0167991 0)
(1.5152 -0.0165208 0)
(1.52175 -0.0162417 0)
(1.5282 -0.0159619 0)
(1.53453 -0.0156812 0)
(1.54075 -0.0153996 0)
(1.54685 -0.0151167 0)
(1.55285 -0.0148324 0)
(1.55873 -0.0145462 0)
(1.56449 -0.0142578 0)
(1.57014 -0.0139667 0)
(1.57568 -0.0136724 0)
(1.58109 -0.0133745 0)
(1.58639 -0.0130724 0)
(1.59156 -0.0127656 0)
(1.59661 -0.0124535 0)
(1.60154 -0.0121356 0)
(1.60633 -0.0118113 0)
(1.611 -0.0114802 0)
(1.61553 -0.0111417 0)
(1.61993 -0.0107952 0)
(1.62419 -0.0104404 0)
(1.6283 -0.0100769 0)
(1.63227 -0.00970415 0)
(1.63608 -0.0093219 0)
(1.63975 -0.00892983 0)
(1.64325 -0.00852768 0)
(1.64659 -0.00811526 0)
(1.64976 -0.0076924 0)
(1.65276 -0.007259 0)
(1.65559 -0.00681502 0)
(1.65824 -0.00636046 0)
(1.6607 -0.00589538 0)
(1.66297 -0.00541988 0)
(1.66505 -0.00493413 0)
(1.66694 -0.00443833 0)
(1.66862 -0.00393276 0)
(1.6701 -0.0034177 0)
(1.67137 -0.00289351 0)
(1.67243 -0.00236057 0)
(1.67328 -0.00181932 0)
(1.6739 -0.00127022 0)
(1.67431 -0.000713754 0)
(1.67449 -0.000150463 0)
(1.67444 0.000419112 0)
(1.67416 0.000994389 0)
(1.67365 0.00157477 0)
(1.67291 0.00215964 0)
(1.67193 0.00274835 0)
(1.67071 0.00334027 0)
(1.66926 0.00393473 0)
(1.66757 0.00453106 0)
(1.66564 0.00512858 0)
(1.66346 0.0057266 0)
(1.66105 0.00632445 0)
(1.6584 0.00692141 0)
(1.65551 0.0075168 0)
(1.65238 0.0081099 0)
(1.64901 0.00870004 0)
(1.64541 0.00928649 0)
(1.64157 0.00986855 0)
(1.6375 0.0104455 0)
(1.6332 0.0110167 0)
(1.62867 0.0115814 0)
(1.62392 0.0121389 0)
(1.61894 0.0126886 0)
(1.61375 0.0132296 0)
(1.60834 0.0137613 0)
(1.60272 0.0142831 0)
(1.59689 0.0147941 0)
(1.59086 0.0152938 0)
(1.58463 0.0157815 0)
(1.5782 0.0162564 0)
(1.57159 0.0167179 0)
(1.5648 0.0171653 0)
(1.55783 0.017598 0)
(1.55068 0.0180153 0)
(1.54338 0.0184166 0)
(1.53591 0.0188014 0)
(1.5283 0.0191689 0)
(1.52054 0.0195187 0)
(1.51264 0.0198502 0)
(1.50462 0.0201629 0)
(1.49647 0.0204563 0)
(1.48821 0.02073 0)
(1.47984 0.0209836 0)
(1.47138 0.0212166 0)
(1.46283 0.0214289 0)
(1.45419 0.02162 0)
(1.44548 0.0217898 0)
(1.43671 0.0219381 0)
(1.42789 0.0220648 0)
(1.41901 0.0221698 0)
(1.4101 0.022253 0)
(1.40116 0.0223146 0)
(1.3922 0.0223546 0)
(1.38323 0.0223732 0)
(1.37426 0.0223706 0)
(1.36529 0.022347 0)
(1.35634 0.0223029 0)
(1.3474 0.0222385 0)
(1.3385 0.0221543 0)
(1.32964 0.0220508 0)
(1.32082 0.0219285 0)
(1.31205 0.021788 0)
(1.30335 0.0216299 0)
(1.29471 0.0214549 0)
(1.28615 0.0212636 0)
(1.27766 0.0210568 0)
(1.26927 0.0208352 0)
(1.26096 0.0205997 0)
(1.25275 0.020351 0)
(1.24465 0.0200898 0)
(1.23665 0.0198172 0)
(1.22877 0.0195338 0)
(1.221 0.0192405 0)
(1.21335 0.0189381 0)
(1.20583 0.0186276 0)
(1.19843 0.0183097 0)
(1.19116 0.0179852 0)
(1.18403 0.017655 0)
(1.17702 0.0173199 0)
(1.17015 0.0169806 0)
(1.16342 0.0166379 0)
(1.15683 0.0162925 0)
(1.15038 0.0159452 0)
(1.14407 0.0155966 0)
(1.1379 0.0152474 0)
(1.13186 0.0148983 0)
(1.12597 0.0145498 0)
(1.12022 0.0142025 0)
(1.11461 0.013857 0)
(1.10913 0.0135138 0)
(1.1038 0.0131733 0)
(1.0986 0.0128361 0)
(1.09353 0.0125025 0)
(1.0886 0.012173 0)
(1.08379 0.0118479 0)
(1.07912 0.0115275 0)
(1.07458 0.0112122 0)
(1.07016 0.0109023 0)
(1.06586 0.0105979 0)
(1.06168 0.0102994 0)
(1.05763 0.0100069 0)
(1.05369 0.00972058 0)
(1.04986 0.00944065 0)
(1.04614 0.00916724 0)
(1.04253 0.00890045 0)
(1.03903 0.00864039 0)
(1.03563 0.00838716 0)
(1.03233 0.00814082 0)
(1.02912 0.00790142 0)
(1.02602 0.00766902 0)
(1.023 0.00744365 0)
(1.02007 0.00722533 0)
(1.01723 0.00701407 0)
(1.01447 0.00680989 0)
(1.01179 0.00661277 0)
(1.00919 0.0064227 0)
(1.00666 0.00623967 0)
(1.0042 0.00606364 0)
(1.00182 0.0058946 0)
(0.999498 0.00573248 0)
(0.997243 0.00557726 0)
(0.995042 0.0054288 0)
(0.992916 0.00528731 0)
(0.990804 0.00515182 0)
(0.988844 0.00502503 0)
(0.986688 0.00489821 0)
(0.98517 0.00479786 0)
(0.982143 0.00464354 0)
(1.00001 -0.000283182 0)
(1.00017 -0.000849826 0)
(1.00048 -0.00141725 0)
(1.00097 -0.00198601 0)
(1.00161 -0.00255667 0)
(1.00242 -0.00312976 0)
(1.0034 -0.0037058 0)
(1.00454 -0.00428527 0)
(1.00584 -0.00486863 0)
(1.00731 -0.00545631 0)
(1.00895 -0.00604871 0)
(1.01076 -0.00664619 0)
(1.01274 -0.00724905 0)
(1.01489 -0.00785756 0)
(1.01721 -0.00847193 0)
(1.01972 -0.00909229 0)
(1.0224 -0.00971874 0)
(1.02526 -0.0103513 0)
(1.0283 -0.0109899 0)
(1.03153 -0.0116344 0)
(1.03494 -0.0122845 0)
(1.03854 -0.0129401 0)
(1.04233 -0.0136006 0)
(1.04631 -0.0142656 0)
(1.05048 -0.0149344 0)
(1.05484 -0.0156064 0)
(1.0594 -0.0162808 0)
(1.06415 -0.0169567 0)
(1.06909 -0.017633 0)
(1.07423 -0.0183086 0)
(1.07956 -0.0189824 0)
(1.08509 -0.019653 0)
(1.09081 -0.0203191 0)
(1.09673 -0.020979 0)
(1.10283 -0.0216314 0)
(1.10912 -0.0222744 0)
(1.11559 -0.0229065 0)
(1.12225 -0.0235258 0)
(1.12908 -0.0241306 0)
(1.13608 -0.024719 0)
(1.14326 -0.0252894 0)
(1.15059 -0.0258398 0)
(1.15808 -0.0263684 0)
(1.16573 -0.0268737 0)
(1.17351 -0.0273539 0)
(1.18143 -0.0278074 0)
(1.18948 -0.0282328 0)
(1.19765 -0.0286287 0)
(1.20592 -0.0289939 0)
(1.2143 -0.0293274 0)
(1.22277 -0.0296281 0)
(1.23132 -0.0298954 0)
(1.23995 -0.0301286 0)
(1.24863 -0.0303275 0)
(1.25737 -0.0304917 0)
(1.26615 -0.0306214 0)
(1.27497 -0.0307166 0)
(1.2838 -0.0307777 0)
(1.29265 -0.0308054 0)
(1.30149 -0.0308003 0)
(1.31033 -0.0307632 0)
(1.31916 -0.0306952 0)
(1.32796 -0.0305975 0)
(1.33672 -0.0304713 0)
(1.34545 -0.030318 0)
(1.35412 -0.0301392 0)
(1.36274 -0.0299362 0)
(1.3713 -0.0297107 0)
(1.37978 -0.0294644 0)
(1.38819 -0.0291989 0)
(1.39652 -0.0289157 0)
(1.40477 -0.0286167 0)
(1.41292 -0.0283033 0)
(1.42098 -0.0279771 0)
(1.42895 -0.0276396 0)
(1.43681 -0.0272923 0)
(1.44457 -0.0269365 0)
(1.45223 -0.0265735 0)
(1.45978 -0.0262043 0)
(1.46723 -0.0258301 0)
(1.47456 -0.0254519 0)
(1.48179 -0.0250703 0)
(1.48891 -0.0246862 0)
(1.49591 -0.0243001 0)
(1.50281 -0.0239124 0)
(1.50959 -0.0235236 0)
(1.51626 -0.0231337 0)
(1.52282 -0.0227429 0)
(1.52927 -0.0223512 0)
(1.5356 -0.0219585 0)
(1.54183 -0.0215644 0)
(1.54794 -0.0211688 0)
(1.55393 -0.0207711 0)
(1.55982 -0.0203709 0)
(1.56559 -0.0199677 0)
(1.57125 -0.0195607 0)
(1.57678 -0.0191493 0)
(1.58221 -0.0187329 0)
(1.58751 -0.0183107 0)
(1.59269 -0.0178818 0)
(1.59775 -0.0174456 0)
(1.60269 -0.0170012 0)
(1.60749 -0.0165479 0)
(1.61217 -0.0160849 0)
(1.61672 -0.0156115 0)
(1.62112 -0.0151271 0)
(1.62539 -0.0146309 0)
(1.62952 -0.0141223 0)
(1.6335 -0.0136009 0)
(1.63733 -0.0130661 0)
(1.641 -0.0125174 0)
(1.64452 -0.0119546 0)
(1.64787 -0.0113773 0)
(1.65106 -0.0107854 0)
(1.65407 -0.0101786 0)
(1.65691 -0.00955688 0)
(1.65957 -0.0089203 0)
(1.66205 -0.00826891 0)
(1.66434 -0.00760286 0)
(1.66643 -0.00692239 0)
(1.66833 -0.00622779 0)
(1.67002 -0.00551943 0)
(1.67152 -0.00479773 0)
(1.6728 -0.00406319 0)
(1.67387 -0.00331635 0)
(1.67472 -0.00255781 0)
(1.67536 -0.00178823 0)
(1.67577 -0.00100831 0)
(1.67595 -0.000218779 0)
(1.67591 0.000579579 0)
(1.67564 0.00138595 0)
(1.67514 0.00219949 0)
(1.6744 0.00301934 0)
(1.67342 0.0038446 0)
(1.67221 0.00467436 0)
(1.67076 0.00550769 0)
(1.66906 0.00634365 0)
(1.66713 0.00718129 0)
(1.66496 0.00801965 0)
(1.66254 0.00885776 0)
(1.65989 0.00969464 0)
(1.65699 0.0105293 0)
(1.65386 0.0113608 0)
(1.65048 0.0121881 0)
(1.64687 0.0130103 0)
(1.64303 0.0138263 0)
(1.63895 0.0146352 0)
(1.63464 0.015436 0)
(1.6301 0.0162277 0)
(1.62533 0.0170094 0)
(1.62034 0.01778 0)
(1.61513 0.0185385 0)
(1.60971 0.0192841 0)
(1.60407 0.0200156 0)
(1.59822 0.0207322 0)
(1.59217 0.0214329 0)
(1.58592 0.0221166 0)
(1.57948 0.0227826 0)
(1.57285 0.0234297 0)
(1.56603 0.0240571 0)
(1.55904 0.0246639 0)
(1.55187 0.0252491 0)
(1.54454 0.025812 0)
(1.53706 0.0263515 0)
(1.52941 0.026867 0)
(1.52163 0.0273575 0)
(1.51371 0.0278224 0)
(1.50565 0.028261 0)
(1.49748 0.0286724 0)
(1.48919 0.0290563 0)
(1.48079 0.0294118 0)
(1.4723 0.0297386 0)
(1.46371 0.0300362 0)
(1.45505 0.0303041 0)
(1.44631 0.0305422 0)
(1.4375 0.03075 0)
(1.42865 0.0309275 0)
(1.41974 0.0310745 0)
(1.4108 0.031191 0)
(1.40183 0.0312771 0)
(1.39284 0.0313329 0)
(1.38384 0.0313586 0)
(1.37483 0.0313546 0)
(1.36583 0.0313211 0)
(1.35685 0.0312588 0)
(1.34789 0.031168 0)
(1.33895 0.0310494 0)
(1.33006 0.0309038 0)
(1.32122 0.0307317 0)
(1.31242 0.0305341 0)
(1.30369 0.0303118 0)
(1.29503 0.0300658 0)
(1.28644 0.029797 0)
(1.27793 0.0295063 0)
(1.26951 0.029195 0)
(1.26119 0.0288641 0)
(1.25296 0.0285147 0)
(1.24484 0.0281479 0)
(1.23682 0.0277649 0)
(1.22892 0.0273669 0)
(1.22114 0.026955 0)
(1.21347 0.0265305 0)
(1.20593 0.0260945 0)
(1.19852 0.0256482 0)
(1.19124 0.0251928 0)
(1.18409 0.0247293 0)
(1.17708 0.0242589 0)
(1.17021 0.0237827 0)
(1.16347 0.0233018 0)
(1.15687 0.0228172 0)
(1.15041 0.0223299 0)
(1.14409 0.0218408 0)
(1.13792 0.021351 0)
(1.13188 0.0208613 0)
(1.12599 0.0203725 0)
(1.12023 0.0198854 0)
(1.11462 0.0194009 0)
(1.10914 0.0189196 0)
(1.10381 0.0184422 0)
(1.09861 0.0179694 0)
(1.09354 0.0175018 0)
(1.08861 0.0170398 0)
(1.08381 0.0165841 0)
(1.07914 0.0161351 0)
(1.0746 0.0156932 0)
(1.07018 0.0152588 0)
(1.06589 0.0148323 0)
(1.06172 0.014414 0)
(1.05767 0.0140041 0)
(1.05373 0.013603 0)
(1.04991 0.0132109 0)
(1.04619 0.0128278 0)
(1.04259 0.0124541 0)
(1.03909 0.0120899 0)
(1.0357 0.0117352 0)
(1.0324 0.0113902 0)
(1.02921 0.0110549 0)
(1.0261 0.0107295 0)
(1.02309 0.0104139 0)
(1.02017 0.0101082 0)
(1.01734 0.00981241 0)
(1.01458 0.00952654 0)
(1.01191 0.00925058 0)
(1.00931 0.0089845 0)
(1.00679 0.0087283 0)
(1.00434 0.00848191 0)
(1.00196 0.00824531 0)
(0.999649 0.00801841 0)
(0.997401 0.0078012 0)
(0.995206 0.00759343 0)
(0.993085 0.00739552 0)
(0.990979 0.00720586 0)
(0.989025 0.00702879 0)
(0.986875 0.00685099 0)
(0.985362 0.00671151 0)
(0.982343 0.00649412 0)
(1.00001 -0.000363687 0)
(1.00017 -0.00109142 0)
(1.00048 -0.00182018 0)
(1.00096 -0.00255068 0)
(1.00161 -0.00328365 0)
(1.00242 -0.00401977 0)
(1.00339 -0.00475972 0)
(1.00452 -0.00550413 0)
(1.00582 -0.0062536 0)
(1.00729 -0.00700868 0)
(1.00892 -0.0077699 0)
(1.01072 -0.00853773 0)
(1.0127 -0.00931256 0)
(1.01485 -0.0100948 0)
(1.01717 -0.0108846 0)
(1.01966 -0.0116822 0)
(1.02234 -0.0124878 0)
(1.0252 -0.0133014 0)
(1.02824 -0.0141228 0)
(1.03146 -0.014952 0)
(1.03487 -0.0157887 0)
(1.03846 -0.0166324 0)
(1.04225 -0.0174827 0)
(1.04622 -0.0183388 0)
(1.05039 -0.0192001 0)
(1.05475 -0.0200657 0)
(1.05931 -0.0209345 0)
(1.06406 -0.0218054 0)
(1.06901 -0.022677 0)
(1.07415 -0.023548 0)
(1.07949 -0.0244167 0)
(1.08503 -0.0252815 0)
(1.09076 -0.0261406 0)
(1.09668 -0.026992 0)
(1.1028 -0.0278336 0)
(1.1091 -0.0286635 0)
(1.11559 -0.0294793 0)
(1.12227 -0.0302787 0)
(1.12912 -0.0310595 0)
(1.13615 -0.0318194 0)
(1.14335 -0.0325559 0)
(1.15072 -0.0332667 0)
(1.15824 -0.0339495 0)
(1.16591 -0.034602 0)
(1.17373 -0.0352222 0)
(1.18169 -0.0358079 0)
(1.18977 -0.0363573 0)
(1.19798 -0.0368685 0)
(1.2063 -0.03734 0)
(1.21472 -0.0377703 0)
(1.22323 -0.0381583 0)
(1.23183 -0.038503 0)
(1.2405 -0.0388036 0)
(1.24923 -0.0390596 0)
(1.25801 -0.0392708 0)
(1.26684 -0.0394372 0)
(1.2757 -0.0395591 0)
(1.28457 -0.0396368 0)
(1.29346 -0.0396712 0)
(1.30235 -0.039663 0)
(1.31124 -0.0396136 0)
(1.3201 -0.0395243 0)
(1.32894 -0.0393964 0)
(1.33774 -0.0392318 0)
(1.3465 -0.0390322 0)
(1.35521 -0.0387996 0)
(1.36386 -0.0385358 0)
(1.37245 -0.0382431 0)
(1.38096 -0.0379236 0)
(1.3894 -0.0375793 0)
(1.39775 -0.0372124 0)
(1.40602 -0.0368251 0)
(1.41419 -0.0364194 0)
(1.42227 -0.0359974 0)
(1.43025 -0.035561 0)
(1.43813 -0.0351121 0)
(1.44591 -0.0346523 0)
(1.45358 -0.0341835 0)
(1.46114 -0.033707 0)
(1.4686 -0.0332242 0)
(1.47594 -0.0327363 0)
(1.48317 -0.0322444 0)
(1.4903 -0.0317495 0)
(1.49731 -0.0312521 0)
(1.50421 -0.0307531 0)
(1.511 -0.0302526 0)
(1.51767 -0.0297511 0)
(1.52424 -0.0292486 0)
(1.53069 -0.028745 0)
(1.53703 -0.0282403 0)
(1.54326 -0.0277341 0)
(1.54937 -0.027226 0)
(1.55538 -0.0267154 0)
(1.56127 -0.0262017 0)
(1.56705 -0.0256842 0)
(1.57271 -0.0251619 0)
(1.57826 -0.0246341 0)
(1.58369 -0.0240998 0)
(1.589 -0.0235581 0)
(1.5942 -0.0230079 0)
(1.59927 -0.0224482 0)
(1.60422 -0.021878 0)
(1.60904 -0.0212963 0)
(1.61373 -0.0207022 0)
(1.61829 -0.0200946 0)
(1.62271 -0.0194727 0)
(1.627 -0.0188356 0)
(1.63114 -0.0181825 0)
(1.63514 -0.0175128 0)
(1.63898 -0.0168257 0)
(1.64267 -0.0161207 0)
(1.64621 -0.0153974 0)
(1.64958 -0.0146554 0)
(1.65279 -0.0138943 0)
(1.65582 -0.0131141 0)
(1.65868 -0.0123146 0)
(1.66136 -0.0114958 0)
(1.66385 -0.0106578 0)
(1.66615 -0.00980085 0)
(1.66826 -0.00892524 0)
(1.67018 -0.00803135 0)
(1.67189 -0.00711964 0)
(1.6734 -0.00619068 0)
(1.67469 -0.00524511 0)
(1.67578 -0.00428362 0)
(1.67664 -0.00330701 0)
(1.67729 -0.00231612 0)
(1.67771 -0.00131185 0)
(1.67791 -0.000295168 0)
(1.67788 0.000732924 0)
(1.67761 0.00177137 0)
(1.67711 0.0028191 0)
(1.67638 0.00387497 0)
(1.67541 0.00493784 0)
(1.6742 0.00600652 0)
(1.67275 0.00707982 0)
(1.67106 0.00815652 0)
(1.66912 0.0092354 0)
(1.66695 0.0103152 0)
(1.66453 0.0113947 0)
(1.66187 0.0124726 0)
(1.65897 0.0135477 0)
(1.65582 0.0146187 0)
(1.65244 0.0156844 0)
(1.64882 0.0167434 0)
(1.64497 0.0177945 0)
(1.64087 0.0188365 0)
(1.63655 0.019868 0)
(1.63199 0.0208879 0)
(1.62721 0.0218948 0)
(1.6222 0.0228874 0)
(1.61698 0.0238646 0)
(1.61153 0.0248251 0)
(1.60587 0.0257676 0)
(1.6 0.0266908 0)
(1.59393 0.0275935 0)
(1.58765 0.0284745 0)
(1.58118 0.0293325 0)
(1.57452 0.0301663 0)
(1.56768 0.0309748 0)
(1.56066 0.0317566 0)
(1.55346 0.0325108 0)
(1.5461 0.033236 0)
(1.53858 0.0339313 0)
(1.5309 0.0345956 0)
(1.52308 0.0352278 0)
(1.51512 0.0358269 0)
(1.50703 0.036392 0)
(1.49882 0.0369222 0)
(1.49049 0.0374168 0)
(1.48205 0.0378749 0)
(1.47352 0.038296 0)
(1.46489 0.0386793 0)
(1.45618 0.0390245 0)
(1.4474 0.039331 0)
(1.43856 0.0395986 0)
(1.42966 0.039827 0)
(1.42071 0.0400161 0)
(1.41173 0.0401658 0)
(1.40272 0.0402763 0)
(1.39368 0.0403477 0)
(1.38464 0.0403803 0)
(1.37559 0.0403744 0)
(1.36655 0.0403306 0)
(1.35753 0.0402495 0)
(1.34853 0.0401317 0)
(1.33956 0.0399781 0)
(1.33062 0.0397895 0)
(1.32174 0.0395669 0)
(1.31291 0.0393113 0)
(1.30415 0.0390238 0)
(1.29545 0.0387057 0)
(1.28683 0.0383583 0)
(1.27829 0.0379827 0)
(1.26984 0.0375805 0)
(1.26149 0.037153 0)
(1.25323 0.0367016 0)
(1.24508 0.036228 0)
(1.23704 0.0357334 0)
(1.22912 0.0352196 0)
(1.22131 0.0346879 0)
(1.21363 0.0341399 0)
(1.20607 0.0335772 0)
(1.19864 0.0330013 0)
(1.19135 0.0324136 0)
(1.18418 0.0318156 0)
(1.17716 0.0312089 0)
(1.17027 0.0305946 0)
(1.16352 0.0299744 0)
(1.15691 0.0293494 0)
(1.15045 0.0287211 0)
(1.14412 0.0280906 0)
(1.13794 0.0274591 0)
(1.1319 0.0268278 0)
(1.126 0.0261978 0)
(1.12025 0.0255701 0)
(1.11463 0.0249458 0)
(1.10916 0.0243256 0)
(1.10382 0.0237106 0)
(1.09862 0.0231016 0)
(1.09356 0.0224992 0)
(1.08863 0.0219042 0)
(1.08383 0.0213174 0)
(1.07916 0.0207392 0)
(1.07463 0.0201702 0)
(1.07022 0.0196109 0)
(1.06593 0.0190619 0)
(1.06176 0.0185234 0)
(1.05772 0.0179959 0)
(1.05379 0.0174796 0)
(1.04997 0.0169749 0)
(1.04627 0.0164821 0)
(1.04267 0.0160012 0)
(1.03918 0.0155326 0)
(1.03579 0.0150763 0)
(1.03251 0.0146325 0)
(1.02932 0.0142013 0)
(1.02622 0.0137827 0)
(1.02322 0.0133768 0)
(1.02031 0.0129837 0)
(1.01748 0.0126034 0)
(1.01473 0.0122358 0)
(1.01207 0.0118811 0)
(1.00948 0.011539 0)
(1.00697 0.0112097 0)
(1.00453 0.010893 0)
(1.00216 0.0105889 0)
(0.999851 0.0102972 0)
(0.997611 0.0100181 0)
(0.995424 0.00975115 0)
(0.993311 0.00949689 0)