/*--------------------------------*- C++ -*----------------------------------*\
| =========                 |                                                 |
| \\      /  F ield         | OpenFOAM: The Open Source CFD Toolbox           |
|  \\    /   O peration     | Version:  2306                                  |
|   \\  /    A nd           | Website:  www.openfoam.com                      |
|    \\/     M anipulation  |                                                 |
\*---------------------------------------------------------------------------*/
FoamFile
{
    version     2.0;
    format      ascii;
    arch        "LSB;label=32;scalar=64";
    class       volScalarField;
    location    "4";
    object      Keff;
}
// * * * * * * * * * * * * * * * * * * * * * * * * * * * * * * * * * * * * * //

dimensions      [1 1 -3 -1 0 0 0];

internalField   nonuniform List<scalar> 
32768
(
67.2037
67.2017
67.1976
67.1914
67.1832
67.1728
67.1603
67.1458
67.1291
67.1103
67.0893
67.0662
67.041
67.0135
66.9838
66.9518
66.9176
66.8812
66.8424
66.8013
66.7579
66.7122
66.664
66.6135
66.5606
66.5053
66.4476
66.3874
66.3249
66.2599
66.1926
66.1228
66.0507
65.9763
65.8995
65.8205
65.7392
65.6558
65.5702
65.4826
65.393
65.3015
65.2081
65.113
65.0163
64.9181
64.8184
64.7174
64.6152
64.512
64.4079
64.3029
64.1973
64.0913
63.9848
63.8781
63.7714
63.6647
63.5582
63.4521
63.3466
63.2416
63.1375
63.0343
62.9322
62.8312
62.7316
62.6335
62.5369
62.442
62.3489
62.2577
62.1686
62.0815
61.9967
61.9143
61.8342
61.7567
61.6817
61.6095
61.54
61.4733
61.4096
61.349
61.2914
61.237
61.1858
61.138
61.0935
61.0525
61.0151
60.9812
60.9511
60.9246
60.902
60.8831
60.8682
60.8572
60.8502
60.8472
60.8483
60.8534
60.8627
60.876
60.8935
60.9151
60.9407
60.9705
61.0043
61.0422
61.0841
61.1298
61.1795
61.2329
61.2901
61.3509
61.4153
61.4831
61.5542
61.6285
61.706
61.7864
61.8696
61.9554
62.0438
62.1346
62.2276
62.3226
62.4195
62.5182
62.6183
62.7198
62.8225
62.9262
63.0307
63.1358
63.2414
63.3472
63.453
63.5586
63.6638
63.7684
63.8722
63.9749
64.0764
64.1764
64.2746
64.371
64.4653
64.5574
64.6471
64.7343
64.819
64.901
64.9805
65.0573
65.1316
65.2033
65.2726
65.3396
65.4043
65.4668
65.5274
65.5859
65.6427
65.6977
65.751
65.8028
65.8531
65.9019
65.9493
65.9953
66.0401
66.0835
66.1256
66.1665
66.2062
66.2446
66.2819
66.318
66.3529
66.3867
66.4194
66.451
66.4815
66.511
66.5394
66.5668
66.5933
66.6188
66.6433
66.667
66.6897
66.7116
66.7327
66.7529
66.7724
66.7911
66.8091
66.8263
66.8429
66.8588
66.874
66.8886
66.9026
66.9161
66.929
66.9413
66.9531
66.9645
66.9753
66.9857
66.9957
67.0052
67.0143
67.023
67.0314
67.0394
67.047
67.0544
67.0614
67.0681
67.0745
67.0806
67.0865
67.0921
67.0975
67.1026
67.1075
67.1122
67.1167
67.121
67.1252
67.1291
67.1329
67.1365
67.14
67.1434
67.1466
67.1496
67.1526
67.1554
67.1581
67.1608
67.1633
67.1657
67.168
67.1703
67.1725
67.1746
67.1766
67.1786
67.1805
67.1825
67.1839
67.1868
67.2037
67.2017
67.1976
67.1915
67.1832
67.1728
67.1603
67.1458
67.1291
67.1103
67.0894
67.0663
67.041
67.0135
66.9838
66.9519
66.9177
66.8813
66.8425
66.8014
66.758
66.7122
66.6641
66.6136
66.5606
66.5053
66.4476
66.3874
66.3248
66.2598
66.1924
66.1226
66.0505
65.9759
65.8991
65.82
65.7387
65.6551
65.5695
65.4817
65.392
65.3004
65.2069
65.1117
65.0148
64.9164
64.8166
64.7155
64.6132
64.5098
64.4055
64.3004
64.1947
64.0884
63.9818
63.875
63.7681
63.6612
63.5546
63.4484
63.3427
63.2376
63.1333
63.03
62.9277
62.8267
62.7269
62.6287
62.532
62.437
62.3438
62.2525
62.1633
62.0761
61.9913
61.9087
61.8286
61.7509
61.6759
61.6036
61.534
61.4674
61.4036
61.3429
61.2852
61.2307
61.1795
61.1316
61.0871
61.0461
61.0086
60.9747
60.9445
60.918
60.8953
60.8764
60.8615
60.8504
60.8434
60.8404
60.8414
60.8466
60.8558
60.8692
60.8866
60.9082
60.9339
60.9637
60.9976
61.0355
61.0774
61.1232
61.173
61.2265
61.2837
61.3446
61.4091
61.477
61.5482
61.6227
61.7003
61.7808
61.8641
61.9502
62.0387
62.1296
62.2228
62.318
62.415
62.5138
62.6141
62.7158
62.8187
62.9226
63.0272
63.1325
63.2383
63.3442
63.4502
63.556
63.6614
63.7662
63.8701
63.973
64.0747
64.1748
64.2732
64.3698
64.4643
64.5565
64.6464
64.7338
64.8186
64.9008
64.9804
65.0574
65.1318
65.2036
65.273
65.3401
65.4049
65.4675
65.5281
65.5867
65.6435
65.6986
65.752
65.8038
65.8541
65.9029
65.9503
65.9964
66.0411
66.0845
66.1267
66.1676
66.2072
66.2457
66.2829
66.319
66.3539
66.3877
66.4204
66.452
66.4825
66.5119
66.5404
66.5678
66.5942
66.6197
66.6442
66.6678
66.6906
66.7124
66.7335
66.7537
66.7731
66.7918
66.8098
66.827
66.8435
66.8594
66.8746
66.8892
66.9032
66.9166
66.9295
66.9418
66.9536
66.9649
66.9758
66.9861
66.9961
67.0056
67.0147
67.0234
67.0317
67.0397
67.0474
67.0547
67.0617
67.0683
67.0747
67.0809
67.0867
67.0923
67.0977
67.1028
67.1077
67.1124
67.1169
67.1212
67.1253
67.1293
67.1331
67.1367
67.1402
67.1435
67.1467
67.1498
67.1527
67.1555
67.1582
67.1609
67.1634
67.1658
67.1681
67.1704
67.1726
67.1747
67.1767
67.1787
67.1805
67.1826
67.184
67.1868
67.2037
67.2017
67.1976
67.1915
67.1832
67.1728
67.1604
67.1458
67.1292
67.1104
67.0895
67.0664
67.0411
67.0137
66.984
66.9521
66.9179
66.8814
66.8427
66.8016
66.7582
66.7124
66.6642
66.6137
66.5607
66.5053
66.4475
66.3873
66.3247
66.2596
66.1921
66.1222
66.0499
65.9753
65.8983
65.8191
65.7376
65.6538
65.568
65.48
65.3901
65.2982
65.2045
65.109
65.0119
64.9132
64.8131
64.7117
64.6091
64.5054
64.4008
64.2954
64.1893
64.0827
63.9758
63.8686
63.7614
63.6543
63.5474
63.4408
63.3348
63.2295
63.1249
63.0213
62.9188
62.8175
62.7175
62.619
62.5221
62.4269
62.3335
62.2421
62.1526
62.0654
61.9803
61.8976
61.8173
61.7395
61.6644
61.5919
61.5222
61.4554
61.3915
61.3306
61.2729
61.2183
61.167
61.119
61.0744
61.0332
60.9956
60.9616
60.9313
60.9047
60.8819
60.863
60.848
60.8369
60.8298
60.8268
60.8278
60.8329
60.8421
60.8555
60.8729
60.8946
60.9203
60.9502
60.9841
61.0221
61.0641
61.1101
61.1599
61.2136
61.271
61.3321
61.3967
61.4649
61.5363
61.611
61.6888
61.7696
61.8532
61.9396
62.0284
62.1196
62.2131
62.3086
62.406
62.5051
62.6058
62.7078
62.811
62.9153
63.0203
63.1259
63.232
63.3383
63.4447
63.5508
63.6566
63.7617
63.866
63.9693
64.0712
64.1717
64.2705
64.3674
64.4622
64.5548
64.645
64.7327
64.8178
64.9004
64.9802
65.0575
65.1321
65.2042
65.2738
65.3411
65.406
65.4688
65.5295
65.5883
65.6452
65.7004
65.7539
65.8057
65.8561
65.905
65.9524
65.9985
66.0433
66.0867
66.1288
66.1697
66.2094
66.2478
66.2851
66.3211
66.356
66.3898
66.4225
66.454
66.4845
66.5139
66.5423
66.5697
66.596
66.6215
66.646
66.6695
66.6922
66.7141
66.7351
66.7552
66.7746
66.7933
66.8112
66.8283
66.8448
66.8606
66.8758
66.8904
66.9043
66.9177
66.9305
66.9428
66.9546
66.9659
66.9767
66.987
66.9969
67.0064
67.0155
67.0241
67.0325
67.0404
67.048
67.0553
67.0623
67.0689
67.0753
67.0814
67.0872
67.0928
67.0981
67.1033
67.1081
67.1128
67.1173
67.1216
67.1257
67.1296
67.1334
67.137
67.1405
67.1438
67.1469
67.15
67.1529
67.1557
67.1584
67.161
67.1636
67.166
67.1683
67.1705
67.1727
67.1748
67.1768
67.1788
67.1806
67.1827
67.1841
67.1869
67.2037
67.2017
67.1977
67.1915
67.1832
67.1729
67.1604
67.1459
67.1293
67.1105
67.0896
67.0666
67.0413
67.0139
66.9842
66.9523
66.9181
66.8817
66.8429
66.8019
66.7584
66.7126
66.6644
66.6138
66.5608
66.5054
66.4475
66.3872
66.3245
66.2593
66.1917
66.1216
66.0492
65.9743
65.8972
65.8177
65.7359
65.6519
65.5658
65.4775
65.3872
65.295
65.2009
65.105
65.0075
64.9084
64.8079
64.706
64.6029
64.4988
64.3937
64.2878
64.1813
64.0742
63.9668
63.8592
63.7515
63.6439
63.5365
63.4295
63.3231
63.2173
63.1123
63.0083
62.9054
62.8038
62.7034
62.6046
62.5074
62.4118
62.3182
62.2264
62.1367
62.0492
61.9639
61.8809
61.8004
61.7224
61.647
61.5744
61.5045
61.4375
61.3734
61.3123
61.2544
61.1996
61.1481
61.1
61.0552
61.0139
60.9761
60.942
60.9116
60.8848
60.8619
60.8429
60.8277
60.8166
60.8094
60.8063
60.8072
60.8123
60.8215
60.8349
60.8524
60.8741
60.8999
60.9298
60.9639
61.002
61.0442
61.0903
61.1403
61.1942
61.2519
61.3133
61.3782
61.4466
61.5184
61.5935
61.6717
61.7529
61.8369
61.9236
62.0129
62.1046
62.1986
62.2946
62.3925
62.4921
62.5933
62.6958
62.7996
62.9043
63.0099
63.116
63.2227
63.3295
63.4363
63.543
63.6493
63.755
63.8598
63.9636
64.0661
64.1671
64.2664
64.3638
64.4592
64.5522
64.6429
64.7311
64.8167
64.8997
64.98
65.0576
65.1327
65.2051
65.275
65.3426
65.4078
65.4708
65.5318
65.5907
65.6478
65.7031
65.7567
65.8087
65.8591
65.9081
65.9556
66.0017
66.0465
66.0899
66.1321
66.173
66.2126
66.2511
66.2883
66.3243
66.3592
66.3929
66.4255
66.457
66.4875
66.5168
66.5452
66.5725
66.5988
66.6242
66.6486
66.6721
66.6947
66.7165
66.7374
66.7575
66.7768
66.7954
66.8132
66.8303
66.8468
66.8625
66.8776
66.8921
66.906
66.9193
66.9321
66.9443
66.9561
66.9673
66.978
66.9883
66.9982
67.0076
67.0166
67.0253
67.0335
67.0414
67.049
67.0562
67.0632
67.0698
67.0761
67.0822
67.088
67.0935
67.0988
67.1039
67.1088
67.1134
67.1179
67.1221
67.1262
67.1301
67.1339
67.1374
67.1409
67.1442
67.1473
67.1504
67.1533
67.1561
67.1588
67.1613
67.1638
67.1662
67.1685
67.1708
67.1729
67.175
67.177
67.179
67.1808
67.1828
67.1842
67.187
67.2037
67.2017
67.1977
67.1915
67.1833
67.1729
67.1605
67.146
67.1294
67.1107
67.0898
67.0668
67.0416
67.0142
66.9845
66.9526
66.9185
66.8821
66.8433
66.8022
66.7588
66.713
66.6647
66.6141
66.561
66.5055
66.4476
66.3871
66.3243
66.2589
66.1911
66.1208
66.0482
65.9731
65.8956
65.8158
65.7337
65.6494
65.5628
65.4742
65.3834
65.2907
65.1962
65.0998
65.0017
64.902
64.8009
64.6984
64.5948
64.49
64.3843
64.2777
64.1706
64.0629
63.9548
63.8465
63.7382
63.63
63.522
63.4144
63.3074
63.2011
63.0956
62.991
62.8876
62.7854
62.6846
62.5853
62.4877
62.3917
62.2977
62.2055
62.1155
62.0276
61.942
61.8587
61.7779
61.6996
61.6239
61.551
61.4808
61.4136
61.3492
61.2879
61.2298
61.1748
61.123
61.0746
61.0296
60.9881
60.9502
60.9159
60.8852
60.8583
60.8352
60.816
60.8008
60.7895
60.7822
60.779
60.7799
60.7849
60.7941
60.8074
60.825
60.8467
60.8726
60.9027
60.9369
60.9751
61.0175
61.0639
61.1142
61.1684
61.2264
61.2881
61.3534
61.4223
61.4945
61.5701
61.6488
61.7305
61.8151
61.9024
61.9923
62.0846
62.1792
62.2759
62.3744
62.4747
62.5766
62.6798
62.7843
62.8897
62.996
63.1029
63.2102
63.3177
63.4253
63.5327
63.6397
63.746
63.8516
63.956
64.0593
64.161
64.261
64.3591
64.4551
64.5489
64.6402
64.7291
64.8153
64.8989
64.9797
65.0579
65.1334
65.2063
65.2767
65.3446
65.4102
65.4735
65.5347
65.5939
65.6512
65.7067
65.7605
65.8126
65.8631
65.9122
65.9598
66.006
66.0508
66.0943
66.1365
66.1774
66.217
66.2554
66.2926
66.3286
66.3634
66.3971
66.4297
66.4611
66.4914
66.5207
66.549
66.5762
66.6025
66.6277
66.6521
66.6755
66.698
66.7197
66.7406
66.7606
66.7798
66.7983
66.816
66.833
66.8494
66.865
66.8801
66.8945
66.9083
66.9215
66.9342
66.9464
66.958
66.9692
66.9798
66.9901
66.9998
67.0092
67.0182
67.0267
67.0349
67.0428
67.0503
67.0575
67.0643
67.0709
67.0772
67.0832
67.089
67.0945
67.0997
67.1048
67.1096
67.1142
67.1186
67.1229
67.1269
67.1308
67.1345
67.138
67.1414
67.1447
67.1478
67.1508
67.1537
67.1565
67.1592
67.1617
67.1642
67.1666
67.1689
67.1711
67.1732
67.1753
67.1772
67.1792
67.181
67.183
67.1844
67.1872
67.2037
67.2017
67.1977
67.1915
67.1833
67.173
67.1606
67.1462
67.1296
67.1109
67.0901
67.0671
67.0419
67.0145
66.9849
66.9531
66.9189
66.8825
66.8438
66.8027
66.7592
66.7134
66.6651
66.6145
66.5613
66.5057
66.4476
66.3871
66.324
66.2585
66.1904
66.1199
66.047
65.9716
65.8938
65.8136
65.7311
65.6463
65.5592
65.47
65.3788
65.2855
65.1903
65.0932
64.9945
64.8941
64.7922
64.689
64.5846
64.479
64.3725
64.2652
64.1572
64.0487
63.9398
63.8308
63.7216
63.6126
63.5039
63.3956
63.2878
63.1807
63.0745
62.9694
62.8653
62.7625
62.6611
62.5613
62.463
62.3666
62.272
62.1794
62.0889
62.0006
61.9146
61.8309
61.7497
61.671
61.595
61.5218
61.4513
61.3837
61.319
61.2574
61.199
61.1437
61.0917
61.043
60.9977
60.9559
60.9177
60.8832
60.8523
60.8252
60.8019
60.7825
60.767
60.7556
60.7481
60.7448
60.7456
60.7506
60.7598
60.7731
60.7907
60.8125
60.8385
60.8687
60.903
60.9415
60.9841
61.0308
61.0815
61.136
61.1944
61.2566
61.3224
61.3918
61.4646
61.5408
61.6201
61.7025
61.7878
61.8758
61.9665
62.0596
62.1549
62.2524
62.3518
62.453
62.5557
62.6598
62.7652
62.8715
62.9786
63.0864
63.1946
63.303
63.4115
63.5198
63.6276
63.7349
63.8413
63.9467
64.0508
64.1534
64.2542
64.3532
64.4501
64.5447
64.6369
64.7265
64.8135
64.8978
64.9794
65.0582
65.1344
65.2078
65.2787
65.3471
65.4132
65.4769
65.5385
65.598
65.6555
65.7113
65.7652
65.8175
65.8682
65.9174
65.9651
66.0113
66.0562
66.0997
66.1419
66.1828
66.2224
66.2608
66.298
66.3339
66.3687
66.4023
66.4348
66.4662
66.4964
66.5256
66.5538
66.5809
66.6071
66.6322
66.6565
66.6798
66.7022
66.7238
66.7445
66.7644
66.7835
66.8019
66.8195
66.8364
66.8526
66.8682
66.8831
66.8974
66.9111
66.9243
66.9368
66.9489
66.9604
66.9715
66.9821
66.9922
67.0019
67.0112
67.0201
67.0286
67.0367
67.0445
67.0519
67.059
67.0658
67.0724
67.0786
67.0845
67.0902
67.0957
67.1009
67.1059
67.1106
67.1152
67.1196
67.1238
67.1278
67.1316
67.1353
67.1388
67.1421
67.1454
67.1485
67.1514
67.1543
67.157
67.1597
67.1622
67.1646
67.167
67.1693
67.1714
67.1735
67.1756
67.1776
67.1795
67.1813
67.1833
67.1846
67.1874
67.2037
67.2017
67.1977
67.1916
67.1834
67.1731
67.1608
67.1463
67.1298
67.1112
67.0904
67.0674
67.0423
67.015
66.9854
66.9536
66.9195
66.8831
66.8444
66.8033
66.7599
66.714
66.6657
66.6149
66.5617
66.506
66.4478
66.3871
66.3238
66.258
66.1897
66.1189
66.0456
65.9699
65.8916
65.811
65.728
65.6426
65.555
65.4652
65.3732
65.2792
65.1833
65.0854
64.9859
64.8846
64.7819
64.6778
64.5724
64.4659
64.3584
64.2501
64.1411
64.0317
63.9218
63.8118
63.7017
63.5918
63.4821
63.3729
63.2642
63.1563
63.0493
62.9433
62.8385
62.735
62.6329
62.5323
62.4335
62.3364
62.2412
62.1481
62.057
61.9682
61.8817
61.7975
61.7159
61.6368
61.5604
61.4867
61.4158
61.3478
61.2828
61.2209
61.162
61.1064
61.054
61.005
60.9594
60.9173
60.8788
60.8439
60.8128
60.7854
60.7618
60.7422
60.7265
60.7148
60.7073
60.7038
60.7045
60.7094
60.7185
60.7319
60.7495
60.7713
60.7974
60.8278
60.8624
60.9011
60.944
60.991
61.0421
61.0971
61.156
61.2187
61.2852
61.3552
61.4287
61.5055
61.5856
61.6688
61.7549
61.8439
61.9354
62.0295
62.1258
62.2243
62.3247
62.4269
62.5306
62.6358
62.7422
62.8496
62.9578
63.0667
63.176
63.2855
63.395
63.5043
63.6133
63.7216
63.8291
63.9355
64.0406
64.1443
64.2462
64.3462
64.4441
64.5397
64.6329
64.7235
64.8114
64.8966
64.9791
65.0587
65.1356
65.2097
65.2813
65.3503
65.4168
65.481
65.543
65.6029
65.6608
65.7168
65.771
65.8235
65.8743
65.9236
65.9714
66.0178
66.0627
66.1063
66.1485
66.1894
66.229
66.2674
66.3045
66.3404
66.3751
66.4086
66.441
66.4723
66.5024
66.5315
66.5596
66.5866
66.6126
66.6376
66.6617
66.6849
66.7072
66.7286
66.7492
66.769
66.788
66.8062
66.8237
66.8404
66.8565
66.872
66.8868
66.9009
66.9145
66.9275
66.94
66.9519
66.9634
66.9743
66.9848
66.9948
67.0044
67.0136
67.0224
67.0308
67.0388
67.0465
67.0539
67.0609
67.0676
67.0741
67.0802
67.0861
67.0917
67.0971
67.1023
67.1072
67.1119
67.1164
67.1207
67.1248
67.1288
67.1326
67.1362
67.1397
67.143
67.1462
67.1492
67.1522
67.155
67.1577
67.1603
67.1628
67.1652
67.1675
67.1697
67.1719
67.174
67.176
67.1779
67.1798
67.1816
67.1835
67.1849
67.1876
67.2037
67.2017
67.1977
67.1916
67.1834
67.1732
67.1609
67.1465
67.1301
67.1115
67.0907
67.0679
67.0428
67.0155
66.986
66.9543
66.9202
66.8839
66.8452
66.8041
66.7606
66.7147
66.6664
66.6156
66.5623
66.5064
66.4481
66.3871
66.3237
66.2576
66.189
66.1179
66.0442
65.968
65.8893
65.8081
65.7245
65.6385
65.5502
65.4596
65.3669
65.272
65.1752
65.0765
64.9759
64.8737
64.7699
64.6647
64.5582
64.4506
64.342
64.2326
64.1225
64.0118
63.9009
63.7897
63.6785
63.5674
63.4567
63.3464
63.2367
63.1278
63.0198
62.9129
62.8072
62.7028
62.5999
62.4985
62.3989
62.3011
62.2053
62.1115
62.0198
61.9304
61.8433
61.7586
61.6764
61.5969
61.52
61.4458
61.3745
61.306
61.2406
61.1782
61.119
61.0629
61.0101
60.9607
60.9148
60.8723
60.8334
60.7982
60.7667
60.7389
60.7151
60.6952
60.6792
60.6673
60.6595
60.6559
60.6565
60.6613
60.6703
60.6836
60.7013
60.7232
60.7495
60.78
60.8148
60.8539
60.8972
60.9446
60.9961
61.0516
61.1111
61.1744
61.2416
61.3123
61.3866
61.4643
61.5453
61.6294
61.7166
61.8065
61.8991
61.9943
62.0917
62.1914
62.293
62.3964
62.5014
62.6078
62.7154
62.8241
62.9336
63.0437
63.1542
63.265
63.3758
63.4864
63.5966
63.7061
63.8149
63.9225
64.0289
64.1338
64.2369
64.3382
64.4373
64.5341
64.6284
64.7201
64.8091
64.8953
64.9787
65.0593
65.1371
65.212
65.2843
65.354
65.4211
65.4859
65.5484
65.6087
65.6669
65.7232
65.7777
65.8305
65.8815
65.931
65.9789
66.0254
66.0704
66.114
66.1562
66.1971
66.2367
66.275
66.3121
66.3479
66.3825
66.416
66.4483
66.4794
66.5095
66.5384
66.5663
66.5932
66.619
66.6439
66.6679
66.6909
66.713
66.7343
66.7547
66.7743
66.7931
66.8112
66.8285
66.8451
66.8611
66.8764
66.891
66.905
66.9185
66.9313
66.9437
66.9555
66.9668
66.9776
66.9879
66.9978
67.0073
67.0164
67.0251
67.0334
67.0413
67.0489
67.0561
67.0631
67.0697
67.076
67.0821
67.0879
67.0935
67.0988
67.1038
67.1087
67.1133
67.1178
67.122
67.1261
67.13
67.1337
67.1373
67.1407
67.144
67.1471
67.1501
67.153
67.1558
67.1584
67.161
67.1635
67.1658
67.1681
67.1703
67.1724
67.1745
67.1764
67.1784
67.1802
67.182
67.1839
67.1852
67.1879
67.2037
67.2017
67.1978
67.1917
67.1835
67.1733
67.1611
67.1468
67.1304
67.1119
67.0912
67.0684
67.0434
67.0162
66.9868
66.9551
66.9211
66.8848
66.8461
66.805
66.7616
66.7157
66.6673
66.6164
66.563
66.507
66.4485
66.3874
66.3236
66.2573
66.1884
66.1169
66.0427
65.966
65.8867
65.8049
65.7207
65.634
65.5449
65.4534
65.3598
65.264
65.1661
65.0663
64.9647
64.8613
64.7563
64.6499
64.5421
64.4332
64.3233
64.2126
64.1011
63.9892
63.8769
63.7644
63.6519
63.5396
63.4276
63.3161
63.2052
63.0952
62.9861
62.8781
62.7713
62.666
62.5621
62.4599
62.3594
62.2608
62.1642
62.0696
61.9773
61.8872
61.7994
61.7141
61.6314
61.5512
61.4738
61.3991
61.3272
61.2583
61.1924
61.1295
61.0698
61.0133
60.96
60.9102
60.8638
60.8209
60.7815
60.7459
60.714
60.6859
60.6617
60.6414
60.6252
60.613
60.605
60.6011
60.6015
60.6062
60.6152
60.6285
60.6461
60.6682
60.6946
60.7253
60.7604
60.7998
60.8434
60.8913
60.9434
60.9995
61.0596
61.1237
61.1916
61.2632
61.3384
61.4171
61.4991
61.5843
61.6726
61.7637
61.8576
61.954
62.0528
62.1537
62.2567
62.3615
62.4679
62.5757
62.6848
62.7949
62.9059
63.0174
63.1294
63.2417
63.3539
63.4659
63.5776
63.6886
63.7987
63.9078
64.0156
64.1219
64.2265
64.3291
64.4295
64.5277
64.6233
64.7163
64.8066
64.894
64.9785
65.0601
65.1389
65.2148
65.2879
65.3583
65.4262
65.4915
65.5546
65.6154
65.6741
65.7307
65.7855
65.8385
65.8898
65.9395
65.9875
66.0341
66.0792
66.1228
66.1651
66.206
66.2456
66.2838
66.3208
66.3566
66.3911
66.4244
66.4566
66.4876
66.5175
66.5463
66.574
66.6007
66.6264
66.6511
66.6749
66.6977
66.7197
66.7408
66.761
66.7804
66.7991
66.8169
66.8341
66.8505
66.8663
66.8814
66.8958
66.9097
66.923
66.9357
66.9479
66.9595
66.9706
66.9813
66.9915
67.0013
67.0106
67.0196
67.0281
67.0363
67.0441
67.0516
67.0587
67.0655
67.0721
67.0783
67.0843
67.09
67.0954
67.1007
67.1057
67.1104
67.115
67.1194
67.1235
67.1275
67.1314
67.135
67.1385
67.1419
67.1451
67.1482
67.1511
67.154
67.1567
67.1593
67.1618
67.1642
67.1666
67.1688
67.1709
67.173
67.175
67.177
67.1788
67.1807
67.1824
67.1843
67.1856
67.1882
67.2037
67.2017
67.1978
67.1917
67.1836
67.1735
67.1613
67.1471
67.1307
67.1123
67.0917
67.069
67.0441
67.017
66.9876
66.956
66.9221
66.8859
66.8472
66.8062
66.7628
66.7168
66.6684
66.6175
66.5639
66.5078
66.4491
66.3878
66.3238
66.2571
66.1878
66.1159
66.0413
65.964
65.8841
65.8016
65.7166
65.6291
65.5391
65.4467
65.352
65.2551
65.1561
65.0551
64.9522
64.8475
64.7412
64.6333
64.5241
64.4138
64.3024
64.1901
64.0772
63.9637
63.8499
63.736
63.622
63.5082
63.3948
63.2819
63.1697
63.0584
62.948
62.8388
62.7309
62.6245
62.5195
62.4163
62.3149
62.2154
62.1179
62.0225
61.9294
61.8385
61.7501
61.6641
61.5807
61.4999
61.4219
61.3466
61.2742
61.2047
61.1382
61.0748
61.0145
60.9575
60.9037
60.8534
60.8064
60.763
60.7232
60.6871
60.6548
60.6262
60.6016
60.5809
60.5643
60.5518
60.5435
60.5394
60.5396
60.5441
60.553
60.5663
60.584
60.6061
60.6326
60.6636
60.699
60.7387
60.7828
60.8312
60.8839
60.9407
61.0016
61.0664
61.1352
61.2078
61.284
61.3638
61.447
61.5334
61.623
61.7154
61.8107
61.9085
62.0088
62.1113
62.2158
62.3222
62.4302
62.5397
62.6504
62.7622
62.8748
62.988
63.1016
63.2155
63.3294
63.4431
63.5563
63.669
63.7807
63.8914
64.0008
64.1087
64.2148
64.319
64.421
64.5207
64.6178
64.7122
64.8038
64.8926
64.9784
65.0612
65.141
65.2179
65.292
65.3633
65.4319
65.498
65.5617
65.623
65.6822
65.7393
65.7944
65.8477
65.8993
65.9491
65.9973
66.044
66.0892
66.1329
66.1751
66.216
66.2556
66.2938
66.3307
66.3664
66.4008
66.434
66.466
66.4968
66.5266
66.5552
66.5827
66.6093
66.6348
66.6593
66.6828
66.7055
66.7272
66.748
66.7681
66.7873
66.8057
66.8234
66.8403
66.8566
66.8721
66.887
66.9013
66.9149
66.928
66.9406
66.9525
66.964
66.975
66.9855
66.9955
67.0051
67.0143
67.0231
67.0315
67.0396
67.0472
67.0546
67.0616
67.0683
67.0747
67.0808
67.0867
67.0923
67.0977
67.1028
67.1077
67.1124
67.1168
67.1211
67.1252
67.1291
67.1329
67.1365
67.1399
67.1432
67.1463
67.1494
67.1523
67.155
67.1577
67.1603
67.1627
67.1651
67.1674
67.1695
67.1717
67.1737
67.1757
67.1776
67.1794
67.1812
67.1829
67.1847
67.186
67.1885
67.2037
67.2018
67.1978
67.1918
67.1838
67.1737
67.1616
67.1474
67.1312
67.1128
67.0924
67.0697
67.0449
67.0179
66.9887
66.9572
66.9233
66.8872
66.8486
66.8076
66.7642
66.7183
66.6698
66.6188
66.5652
66.5089
66.45
66.3885
66.3242
66.2572
66.1875
66.115
66.0399
65.962
65.8814
65.7982
65.7123
65.6239
65.5329
65.4395
65.3437
65.2456
65.1453
65.0429
64.9385
64.8324
64.7245
64.6151
64.5043
64.3923
64.2792
64.1653
64.0506
63.9355
63.82
63.7044
63.5888
63.4734
63.3584
63.2439
63.1302
63.0174
62.9057
62.7952
62.686
62.5783
62.4722
62.3678
62.2654
62.1648
62.0664
61.9701
61.8761
61.7845
61.6952
61.6085
61.5244
61.4429
61.3642
61.2883
61.2152
61.1451
61.078
61.014
60.9532
60.8956
60.8412
60.7903
60.7428
60.6989
60.6585
60.6219
60.589
60.5599
60.5348
60.5137
60.4967
60.4839
60.4752
60.4708
60.4708
60.4751
60.4839
60.4971
60.5148
60.537
60.5637
60.5949
60.6306
60.6708
60.7153
60.7643
60.8176
60.8751
60.9368
61.0026
61.0724
61.146
61.2234
61.3044
61.3889
61.4767
61.5677
61.6617
61.7585
61.8579
61.9598
62.064
62.1703
62.2785
62.3883
62.4996
62.6121
62.7258
62.8402
62.9553
63.0708
63.1866
63.3023
63.4178
63.5329
63.6473
63.7609
63.8734
63.9846
64.0942
64.2021
64.308
64.4117
64.5131
64.6118
64.7078
64.801
64.8912
64.9784
65.0625
65.1436
65.2217
65.2968
65.369
65.4385
65.5054
65.5697
65.6316
65.6913
65.7489
65.8044
65.8581
65.9099
65.9599
66.0083
66.0551
66.1004
66.1441
66.1864
66.2273
66.2668
66.3049
66.3417
66.3773
66.4116
66.4446
66.4765
66.5071
66.5367
66.5651
66.5925
66.6187
66.644
66.6683
66.6916
66.714
66.7355
66.7561
66.7759
66.7949
66.8131
66.8305
66.8472
66.8632
66.8786
66.8933
66.9073
66.9208
66.9336
66.946
66.9578
66.969
66.9798
66.9901
67
67.0094
67.0184
67.0271
67.0353
67.0432
67.0507
67.0579
67.0648
67.0714
67.0776
67.0837
67.0894
67.0949
67.1001
67.1051
67.1099
67.1145
67.1189
67.1231
67.1271
67.1309
67.1346
67.1381
67.1414
67.1447
67.1477
67.1507
67.1535
67.1562
67.1588
67.1613
67.1637
67.166
67.1683
67.1704
67.1724
67.1744
67.1764
67.1782
67.18
67.1818
67.1834
67.1852
67.1864
67.1889
67.2037
67.2018
67.1979
67.1919
67.1839
67.1739
67.1619
67.1478
67.1317
67.1134
67.0931
67.0706
67.0459
67.019
66.9899
66.9585
66.9248
66.8887
66.8502
66.8093
66.7659
66.72
66.6715
66.6205
66.5667
66.5104
66.4513
66.3895
66.3249
66.2575
66.1874
66.1144
66.0387
65.9601
65.8788
65.7948
65.708
65.6185
65.5265
65.4319
65.3348
65.2353
65.1336
65.0297
64.9238
64.8159
64.7064
64.5952
64.4826
64.3688
64.2538
64.138
64.0215
63.9044
63.7871
63.6696
63.5522
63.435
63.3182
63.2021
63.0867
62.9723
62.859
62.747
62.6364
62.5274
62.42
62.3144
62.2108
62.1092
62.0097
61.9125
61.8175
61.725
61.6349
61.5474
61.4625
61.3803
61.3009
61.2242
61.1505
61.0797
61.012
60.9473
60.8858
60.8276
60.7726
60.721
60.6729
60.6284
60.5874
60.5501
60.5167
60.4871
60.4614
60.4398
60.4223
60.409
60.4
60.3953
60.395
60.3991
60.4077
60.4208
60.4385
60.4608
60.4877
60.5191
60.5551
60.5957
60.6408
60.6904
60.7444
60.8028
60.8654
60.9322
61.003
61.0778
61.1565
61.2389
61.3248
61.4141
61.5067
61.6023
61.7008
61.8021
61.9059
62.0119
62.1202
62.2303
62.3421
62.4554
62.5701
62.6857
62.8023
62.9194
63.037
63.1548
63.2726
63.3902
63.5073
63.6238
63.7394
63.8538
63.967
64.0786
64.1884
64.2962
64.4018
64.5049
64.6055
64.7032
64.7981
64.8899
64.9786
65.0642
65.1466
65.2259
65.3022
65.3755
65.4459
65.5136
65.5787
65.6413
65.7016
65.7596
65.8156
65.8696
65.9217
65.972
66.0205
66.0675
66.1128
66.1566
66.1989
66.2397
66.2792
66.3172
66.354
66.3894
66.4235
66.4564
66.488
66.5185
66.5478
66.576
66.6032
66.6292
66.6542
66.6783
66.7013
66.7235
66.7447
66.7651
66.7846
66.8033
66.8212
66.8384
66.8549
66.8706
66.8857
66.9001
66.9139
66.9272
66.9398
66.9519
66.9635
66.9745
66.9851
66.9952
67.0049
67.0141
67.0229
67.0314
67.0395
67.0472
67.0545
67.0616
67.0683
67.0747
67.0809
67.0867
67.0923
67.0977
67.1028
67.1077
67.1124
67.1168
67.1211
67.1252
67.1291
67.1328
67.1364
67.1398
67.1431
67.1462
67.1492
67.1521
67.1549
67.1575
67.16
67.1625
67.1648
67.1671
67.1692
67.1713
67.1733
67.1752
67.1771
67.1789
67.1807
67.1824
67.1839
67.1857
67.1869
67.1893
67.2037
67.2018
67.1979
67.192
67.1841
67.1742
67.1622
67.1483
67.1322
67.1141
67.0939
67.0716
67.047
67.0203
66.9913
66.9601
66.9265
66.8905
66.8522
66.8113
66.768
66.7221
66.6736
66.6225
66.5687
66.5122
66.4529
66.3909
66.326
66.2582
66.1876
66.1141
66.0378
65.9585
65.8764
65.7914
65.7037
65.6131
65.5198
65.4239
65.3255
65.2245
65.1212
65.0157
64.908
64.7983
64.6869
64.5738
64.4592
64.3433
64.2263
64.1084
63.9898
63.8706
63.7512
63.6316
63.5122
63.393
63.2743
63.1563
63.0391
62.923
62.808
62.6944
62.5822
62.4717
62.3629
62.2561
62.1512
62.0484
61.9478
61.8495
61.7536
61.6601
61.5691
61.4808
61.3951
61.3121
61.2319
61.1545
61.08
61.0086
60.9401
60.8747
60.8125
60.7536
60.6979
60.6457
60.5968
60.5516
60.5099
60.472
60.4379
60.4077
60.3814
60.3592
60.3412
60.3274
60.3179
60.3128
60.3121
60.316
60.3244
60.3374
60.3551
60.3775
60.4045
60.4362
60.4726
60.5136
60.5593
60.6095
60.6643
60.7235
60.7871
60.855
60.9271
61.0032
61.0832
61.1671
61.2546
61.3456
61.4399
61.5373
61.6378
61.741
61.8468
61.955
62.0653
62.1776
62.2917
62.4073
62.5241
62.6421
62.7609
62.8804
63.0003
63.1204
63.2404
63.3603
63.4796
63.5983
63.7161
63.8328
63.9481
64.0618
64.1737
64.2836
64.3912
64.4964
64.5989
64.6986
64.7952
64.8888
64.9792
65.0663
65.1502
65.2309
65.3084
65.3828
65.4542
65.5229
65.5888
65.6521
65.713
65.7715
65.828
65.8823
65.9347
65.9852
66.034
66.0811
66.1265
66.1703
66.2126
66.2535
66.2928
66.3308
66.3674
66.4026
66.4366
66.4693
66.5007
66.531
66.5601
66.588
66.6149
66.6407
66.6654
66.6892
66.7119
66.7338
66.7547
66.7748
66.794
66.8124
66.8301
66.847
66.8631
66.8786
66.8934
66.9076
66.9211
66.9341
66.9465
66.9583
66.9697
66.9805
66.9908
67.0007
67.0102
67.0192
67.0278
67.0361
67.044
67.0515
67.0587
67.0655
67.0721
67.0784
67.0843
67.0901
67.0955
67.1007
67.1057
67.1105
67.115
67.1194
67.1235
67.1275
67.1313
67.1349
67.1384
67.1417
67.1449
67.148
67.1509
67.1537
67.1563
67.1589
67.1614
67.1637
67.166
67.1682
67.1703
67.1723
67.1742
67.1761
67.1779
67.1797
67.1814
67.183
67.1846
67.1862
67.1874
67.1898
67.2037
67.2018
67.198
67.1921
67.1843
67.1744
67.1626
67.1488
67.1329
67.1149
67.0949
67.0727
67.0483
67.0218
66.993
66.9619
66.9285
66.8926
66.8544
66.8137
66.7704
66.7246
66.6762
66.625
66.5712
66.5145
66.4551
66.3927
66.3275
66.2594
66.1883
66.1143
66.0372
65.9572
65.8742
65.7883
65.6995
65.6077
65.5132
65.4159
65.3159
65.2133
65.1083
65.0009
64.8913
64.7796
64.6661
64.5508
64.434
64.3159
64.1966
64.0764
63.9555
63.8341
63.7123
63.5905
63.4688
63.3475
63.2267
63.1066
62.9874
62.8694
62.7526
62.6372
62.5234
62.4113
62.301
62.1927
62.0865
61.9825
61.8807
61.7813
61.6843
61.5898
61.4979
61.4086
61.3221
61.2382
61.1572
61.0791
61.0039
60.9316
60.8624
60.7963
60.7333
60.6736
60.6172
60.5642
60.5146
60.4686
60.4262
60.3875
60.3527
60.3218
60.2948
60.272
60.2533
60.239
60.2289
60.2234
60.2223
60.2259
60.2341
60.247
60.2646
60.287
60.3141
60.3461
60.3829
60.4244
60.4707
60.5216
60.5772
60.6374
60.7021
60.7711
60.8445
60.922
61.0035
61.089
61.1782
61.271
61.3672
61.4667
61.5692
61.6746
61.7826
61.8931
62.0058
62.1205
62.237
62.355
62.4744
62.5949
62.7162
62.8382
62.9606
63.0832
63.2058
63.3281
63.4499
63.571
63.6912
63.8103
63.9279
64.044
64.1582
64.2703
64.3802
64.4875
64.5921
64.6938
64.7925
64.8879
64.9801
65.0689
65.1544
65.2365
65.3153
65.391
65.4635
65.5331
65.5999
65.664
65.7255
65.7847
65.8416
65.8963
65.949
65.9998
66.0488
66.096
66.1415
66.1854
66.2277
66.2684
66.3077
66.3456
66.382
66.4171
66.4509
66.4833
66.5146
66.5446
66.5734
66.601
66.6276
66.6531
66.6775
66.701
66.7234
66.745
66.7656
66.7853
66.8042
66.8223
66.8397
66.8563
66.8721
66.8873
66.9018
66.9157
66.9289
66.9416
66.9537
66.9653
66.9764
66.9869
66.997
67.0067
67.0159
67.0247
67.0331
67.0411
67.0488
67.0561
67.0631
67.0698
67.0762
67.0823
67.0881
67.0936
67.0989
67.104
67.1088
67.1135
67.1179
67.1221
67.1261
67.13
67.1337
67.1372
67.1406
67.1438
67.1469
67.1498
67.1526
67.1553
67.1579
67.1604
67.1628
67.1651
67.1673
67.1694
67.1714
67.1734
67.1752
67.1771
67.1788
67.1805
67.1821
67.1837
67.1852
67.1868
67.188
67.1903
67.2037
67.2018
67.198
67.1922
67.1845
67.1748
67.1631
67.1494
67.1336
67.1159
67.096
67.074
67.0498
67.0235
66.9949
66.964
66.9308
66.8951
66.8571
66.8165
66.7733
66.7276
66.6792
66.6281
66.5741
66.5174
66.4578
66.3952
66.3297
66.2611
66.1896
66.1149
66.0372
65.9564
65.8725
65.7855
65.6955
65.6025
65.5066
65.4077
65.3061
65.2017
65.0948
64.9854
64.8738
64.7599
64.6441
64.5265
64.4073
64.2867
64.1649
64.0422
63.9187
63.7948
63.6705
63.5462
63.4221
63.2984
63.1753
63.0529
62.9316
62.8115
62.6927
62.5754
62.4598
62.346
62.2342
62.1244
62.0168
61.9114
61.8084
61.7078
61.6097
61.5142
61.4213
61.3311
61.2436
61.1589
61.077
60.9981
60.922
60.849
60.779
60.7121
60.6483
60.5878
60.5306
60.4767
60.4263
60.3795
60.3362
60.2968
60.2611
60.2294
60.2017
60.1781
60.1587
60.1437
60.1331
60.127
60.1255
60.1287
60.1366
60.1493