/*--------------------------------*- C++ -*----------------------------------*\
| =========                 |                                                 |
| \\      /  F ield         | OpenFOAM: The Open Source CFD Toolbox           |
|  \\    /   O peration     | Version:  2306                                  |
|   \\  /    A nd           | Website:  www.openfoam.com                      |
|    \\/     M anipulation  |                                                 |
\*---------------------------------------------------------------------------*/
FoamFile
{
    version     2.0;
    format      ascii;
    arch        "LSB;label=32;scalar=64";
    class       volScalarField;
    location    "4";
    object      p;
}
// * * * * * * * * * * * * * * * * * * * * * * * * * * * * * * * * * * * * * //

dimensions      [0 2 -2 0 0 0 0];

internalField   nonuniform List<scalar> 
32768
(
0.264989
0.264855
0.264565
0.264108
0.263485
0.262698
0.261747
0.260629
0.259345
0.25789
0.256264
0.254464
0.252488
0.250334
0.247998
0.245478
0.242771
0.239873
0.236783
0.233495
0.230007
0.226316
0.222419
0.218311
0.213989
0.209451
0.204693
0.199713
0.194507
0.189073
0.183409
0.177513
0.171383
0.165018
0.158417
0.15158
0.144508
0.137201
0.129661
0.121889
0.113888
0.105662
0.0972151
0.0885518
0.0796778
0.0705995
0.061324
0.0518592
0.0422138
0.032397
0.022419
0.0122903
0.00202252
-0.00837258
-0.0188825
-0.0294942
-0.0401942
-0.0509689
-0.061804
-0.0726851
-0.0835977
-0.0945269
-0.105458
-0.116376
-0.127266
-0.138113
-0.148903
-0.15962
-0.170251
-0.180781
-0.191196
-0.201482
-0.211626
-0.221615
-0.231435
-0.241074
-0.25052
-0.259759
-0.268781
-0.277573
-0.286124
-0.294423
-0.302459
-0.310221
-0.317698
-0.324881
-0.331759
-0.338323
-0.344563
-0.35047
-0.356035
-0.361251
-0.366109
-0.370601
-0.374722
-0.378463
-0.38182
-0.384788
-0.387361
-0.389537
-0.391312
-0.392685
-0.393655
-0.394221
-0.394385
-0.394148
-0.393514
-0.392486
-0.391071
-0.389273
-0.387101
-0.384562
-0.381667
-0.378425
-0.374848
-0.370949
-0.36674
-0.362235
-0.357449
-0.352398
-0.347097
-0.341564
-0.335814
-0.329865
-0.323735
-0.317441
-0.311002
-0.304435
-0.297758
-0.290988
-0.284144
-0.277241
-0.270297
-0.263329
-0.25635
-0.249378
-0.242426
-0.235509
-0.228638
-0.221827
-0.215086
-0.208426
-0.201857
-0.195387
-0.189024
-0.182773
-0.176642
-0.170634
-0.164753
-0.159003
-0.153386
-0.147904
-0.142557
-0.137347
-0.132273
-0.127335
-0.122533
-0.117866
-0.113333
-0.108933
-0.104665
-0.100527
-0.0965172
-0.092635
-0.0888782
-0.0852451
-0.0817337
-0.078342
-0.075068
-0.0719094
-0.0688638
-0.0659291
-0.0631025
-0.0603817
-0.0577641
-0.0552469
-0.0528275
-0.0505031
-0.0482711
-0.0461286
-0.0440729
-0.0421011
-0.0402107
-0.0383988
-0.0366627
-0.0349998
-0.0334075
-0.0318832
-0.0304243
-0.0290284
-0.0276932
-0.0264161
-0.025195
-0.0240277
-0.0229118
-0.0218455
-0.0208265
-0.019853
-0.018923
-0.0180348
-0.0171864
-0.0163763
-0.0156027
-0.014864
-0.0141588
-0.0134855
-0.0128428
-0.0122292
-0.0116434
-0.0110842
-0.0105504
-0.0100408
-0.00955432
-0.00908983
-0.00864634
-0.00822286
-0.00781844
-0.00743217
-0.0070632
-0.00671069
-0.00637384
-0.00605189
-0.0057441
-0.00544976
-0.00516822
-0.00489881
-0.00464093
-0.00439397
-0.00415736
-0.00393056
-0.00371304
-0.00350429
-0.00330383
-0.0031112
-0.00292593
-0.00274759
-0.00257578
-0.00241008
-0.0022501
-0.00209548
-0.00194584
-0.00180083
-0.00166011
-0.00152336
-0.00139024
-0.00126044
-0.00113365
-0.00100959
-0.000887916
-0.000768455
-0.00065066
-0.00053489
-0.000419313
-0.000307401
-0.000189307
-8.51544e-05
0.26515
0.265017
0.264727
0.26427
0.263647
0.262861
0.26191
0.260794
0.25951
0.258057
0.256432
0.254633
0.252658
0.250505
0.24817
0.245652
0.242946
0.240049
0.23696
0.233673
0.230186
0.226496
0.222599
0.218491
0.21417
0.209632
0.204873
0.199892
0.194685
0.189249
0.183583
0.177684
0.171551
0.165183
0.158578
0.151737
0.14466
0.137347
0.1298
0.122021
0.114013
0.105779
0.0973225
0.0886497
0.0797656
0.0706766
0.06139
0.0519135
0.042256
0.0324267
0.0224358
0.012294
0.00201281
-0.00839587
-0.0189195
-0.0295449
-0.0402587
-0.0510471
-0.0618958
-0.0727904
-0.0837162
-0.0946584
-0.105602
-0.116532
-0.127434
-0.138293
-0.149094
-0.159822
-0.170463
-0.181003
-0.191428
-0.201723
-0.211876
-0.221873
-0.231701
-0.241348
-0.250801
-0.260048
-0.269076
-0.277875
-0.286432
-0.294738
-0.302779
-0.310547
-0.31803
-0.325219
-0.332103
-0.338672
-0.344917
-0.35083
-0.3564
-0.361621
-0.366484
-0.370981
-0.375105
-0.378851
-0.382211
-0.385182
-0.387758
-0.389936
-0.391714
-0.393088
-0.394059
-0.394626
-0.394789
-0.394552
-0.393916
-0.392886
-0.391468
-0.389666
-0.38749
-0.384946
-0.382045
-0.378797
-0.375213
-0.371306
-0.367088
-0.362574
-0.357779
-0.352717
-0.347406
-0.341861
-0.336099
-0.330138
-0.323996
-0.31769
-0.311237
-0.304657
-0.297967
-0.291184
-0.284326
-0.277409
-0.270452
-0.26347
-0.256479
-0.249493
-0.242529
-0.235598
-0.228715
-0.221892
-0.215139
-0.208468
-0.201888
-0.195408
-0.189034
-0.182774
-0.176634
-0.170617
-0.164729
-0.158971
-0.153347
-0.147858
-0.142506
-0.13729
-0.132211
-0.127269
-0.122463
-0.117793
-0.113257
-0.108854
-0.104584
-0.100444
-0.0964334
-0.0925502
-0.0887928
-0.0851593
-0.0816479
-0.0782564
-0.0749827
-0.0718247
-0.0687799
-0.0658461
-0.0630206
-0.0603011
-0.0576848
-0.055169
-0.0527512
-0.0504284
-0.0481981
-0.0460573
-0.0440034
-0.0420335
-0.0401448
-0.0383348
-0.0366006
-0.0349396
-0.0333491
-0.0318266
-0.0303696
-0.0289755
-0.0276421
-0.0263668
-0.0251475
-0.0239818
-0.0228676
-0.0218029
-0.0207855
-0.0198136
-0.0188852
-0.0179984
-0.0171515
-0.0163427
-0.0155705
-0.0148331
-0.0141292
-0.0134571
-0.0128156
-0.0122031
-0.0116185
-0.0110604
-0.0105276
-0.010019
-0.00953347
-0.00906992
-0.00862732
-0.00820469
-0.0078011
-0.00741564
-0.00704744
-0.00669567
-0.00635953
-0.00603826
-0.00573112
-0.00543743
-0.00515649
-0.00488767
-0.00463035
-0.00438393
-0.00414785
-0.00392155
-0.00370451
-0.00349623
-0.00329622
-0.00310401
-0.00291916
-0.00274123
-0.00256981
-0.00240449
-0.00224488
-0.00209061
-0.00194131
-0.00179664
-0.00165625
-0.0015198
-0.00138699
-0.00125749
-0.001131
-0.00100723
-0.00088584
-0.00076666
-0.000649132
-0.000533646
-0.000418289
-0.000306713
-0.000188634
-8.5326e-05
0.265473
0.26534
0.265051
0.264595
0.263973
0.263187
0.262238
0.261124
0.259842
0.25839
0.256767
0.254971
0.252999
0.250848
0.248516
0.245999
0.243296
0.240402
0.237314
0.23403
0.230545
0.226856
0.22296
0.218853
0.214532
0.209993
0.205234
0.200251
0.195042
0.189603
0.183933
0.178029
0.17189
0.165515
0.158902
0.152052
0.144964
0.137639
0.13008
0.122286
0.114263
0.106012
0.0975381
0.0888462
0.0799418
0.0708315
0.0615224
0.0520226
0.0423407
0.0324863
0.0224696
0.0123014
0.00199331
-0.00844261
-0.0189937
-0.0296468
-0.0403882
-0.0512041
-0.0620801
-0.0730016
-0.083954
-0.0949222
-0.105891
-0.116846
-0.127772
-0.138654
-0.149477
-0.160227
-0.170889
-0.181449
-0.191893
-0.202207
-0.212377
-0.222391
-0.232235
-0.241897
-0.251365
-0.260626
-0.269668
-0.27848
-0.287051
-0.295368
-0.303422
-0.311202
-0.318697
-0.325897
-0.332792
-0.339372
-0.345628
-0.351551
-0.357132
-0.362363
-0.367235
-0.371741
-0.375874
-0.379627
-0.382995
-0.385973
-0.388555
-0.390738
-0.39252
-0.393897
-0.39487
-0.395437
-0.3956
-0.395361
-0.394722
-0.393688
-0.392264
-0.390455
-0.38827
-0.385716
-0.382804
-0.379543
-0.375944
-0.372021
-0.367787
-0.363255
-0.35844
-0.353358
-0.348025
-0.342458
-0.336673
-0.330688
-0.32452
-0.318188
-0.31171
-0.305103
-0.298386
-0.291576
-0.284691
-0.277747
-0.270763
-0.263754
-0.256736
-0.249724
-0.242734
-0.235778
-0.22887
-0.222022
-0.215246
-0.208553
-0.201951
-0.195449
-0.189055
-0.182776
-0.176617
-0.170584
-0.164679
-0.158907
-0.153269
-0.147767
-0.142403
-0.137176
-0.132088
-0.127137
-0.122323
-0.117646
-0.113104
-0.108697
-0.104422
-0.100279
-0.0962656
-0.0923804
-0.0886217
-0.0849875
-0.0814758
-0.0780847
-0.0748118
-0.0716549
-0.0686117
-0.0656798
-0.0628566
-0.0601395
-0.0575259
-0.055013
-0.0525983
-0.0502788
-0.0480518
-0.0459145
-0.0438642
-0.0418979
-0.040013
-0.0382066
-0.0364761
-0.0348189
-0.0332321
-0.0317134
-0.03026
-0.0288696
-0.0275397
-0.026268
-0.0250522
-0.0238899
-0.0227791
-0.0217177
-0.0207035
-0.0197347
-0.0188093
-0.0179255
-0.0170814
-0.0162755
-0.015506
-0.0147713
-0.0140699
-0.0134003
-0.0127611
-0.012151
-0.0115686
-0.0110126
-0.0104819
-0.00997534
-0.00949173
-0.00903004
-0.00858923
-0.00816833
-0.00776641
-0.00738254
-0.00701588
-0.00666559
-0.00633087
-0.00601097
-0.00570516
-0.00541273
-0.00513301
-0.00486536
-0.00460917
-0.00436383
-0.00412879
-0.0039035
-0.00368743
-0.00348009
-0.00328098
-0.00308964
-0.00290562
-0.0027285
-0.00255786
-0.00239329
-0.00223441
-0.00208085
-0.00193224
-0.00178824
-0.0016485
-0.00151269
-0.0013805
-0.0012516
-0.0011257
-0.0010025
-0.000881683
-0.00076306
-0.00064608
-0.000531136
-0.00041631
-0.000305272
-0.000187731
-8.50364e-05
0.265957
0.265825
0.265536
0.265081
0.26446
0.263677
0.26273
0.261618
0.260339
0.25889
0.257271
0.255478
0.253509
0.251362
0.249033
0.246521
0.243821
0.240931
0.237846
0.234565
0.231083
0.227396
0.223502
0.219396
0.215075
0.210536
0.205776
0.20079
0.195577
0.190134
0.184458
0.178547
0.172399
0.166013
0.159389
0.152525
0.145421
0.138079
0.1305
0.122686
0.114639
0.106363
0.0978623
0.0891417
0.0802069
0.0710644
0.0617215
0.0521864
0.0424679
0.0325757
0.0225201
0.0123122
0.00196355
-0.00851343
-0.0191059
-0.0298006
-0.0405836
-0.0514409
-0.062358
-0.0733201
-0.0843123
-0.0953197
-0.106327
-0.117319
-0.128281
-0.139198
-0.150055
-0.160837
-0.17153
-0.18212
-0.192592
-0.202934
-0.21313
-0.223169
-0.233038
-0.242723
-0.252213
-0.261495
-0.270558
-0.27939
-0.287979
-0.296316
-0.304388
-0.312186
-0.319698
-0.326915
-0.333827
-0.340424
-0.346696
-0.352635
-0.358231
-0.363477
-0.368363
-0.372883
-0.377029
-0.380795
-0.384174
-0.387161
-0.389753
-0.391944
-0.393731
-0.395113
-0.396089
-0.396658
-0.39682
-0.396579
-0.395935
-0.394895
-0.393462
-0.391642
-0.389444
-0.386875
-0.383945
-0.380665
-0.377045
-0.373098
-0.368838
-0.364279
-0.359435
-0.354322
-0.348957
-0.343355
-0.337535
-0.331513
-0.325308
-0.318938
-0.312421
-0.305774
-0.299016
-0.292166
-0.285239
-0.278255
-0.27123
-0.264181
-0.257122
-0.250071
-0.243041
-0.236047
-0.229102
-0.222218
-0.215407
-0.208679
-0.202044
-0.195511
-0.189087
-0.182779
-0.176593
-0.170533
-0.164605
-0.15881
-0.153151
-0.14763
-0.142247
-0.137005
-0.131901
-0.126938
-0.122112
-0.117425
-0.112875
-0.10846
-0.104179
-0.100031
-0.0960133
-0.0921252
-0.0883646
-0.0847293
-0.0812174
-0.0778268
-0.0745551
-0.0714001
-0.0683592
-0.0654302
-0.0626103
-0.0598969
-0.0572874
-0.054779
-0.0523689
-0.0500543
-0.0478324
-0.0457003
-0.0436553
-0.0416945
-0.0398152
-0.0380144
-0.0362895
-0.0346379
-0.0330568
-0.0315436
-0.0300958
-0.0287108
-0.0273864
-0.02612
-0.0249093
-0.0237522
-0.0226465
-0.0215899
-0.0205806
-0.0196165
-0.0186956
-0.0178163
-0.0169766
-0.0161748
-0.0154094
-0.0146786
-0.0139811
-0.0133152
-0.0126796
-0.0120729
-0.0114938
-0.0109411
-0.0104135
-0.00990995
-0.00942923
-0.00897032
-0.0085322
-0.00811389
-0.00771445
-0.00733298
-0.00696863
-0.00662055
-0.00628797
-0.00597012
-0.00566628
-0.00537574
-0.00509785
-0.00483196
-0.00457746
-0.00433375
-0.00410027
-0.00387649
-0.00366187
-0.00345592
-0.00325815
-0.00306811
-0.00288535
-0.00270944
-0.00253997
-0.00237654
-0.00221875
-0.00206625
-0.00191868
-0.00177567
-0.0016369
-0.00150205
-0.00137077
-0.00124278
-0.00111776
-0.000995433
-0.000875461
-0.000757674
-0.000641517
-0.000527384
-0.000413367
-0.000303121
-0.000186413
-8.44588e-05
0.266602
0.26647
0.266182
0.265729
0.26511
0.264329
0.263385
0.262277
0.261001
0.259557
0.257941
0.256153
0.254189
0.252047
0.249724
0.247216
0.244522
0.241636
0.238556
0.235279
0.2318
0.228117
0.224225
0.220121
0.215801
0.211261
0.206499
0.201511
0.196294
0.190844
0.18516
0.17924
0.17308
0.166681
0.16004
0.153157
0.146033
0.138668
0.131063
0.12322
0.115142
0.106833
0.0982964
0.0895373
0.0805616
0.071376
0.0619878
0.0524055
0.0426379
0.032695
0.0225872
0.0123259
0.00192291
-0.00860913
-0.0192572
-0.0300076
-0.0408465
-0.0517593
-0.0627314
-0.0737478
-0.0847935
-0.0958532
-0.106912
-0.117954
-0.128964
-0.139928
-0.150829
-0.161655
-0.17239
-0.183019
-0.19353
-0.203907
-0.214139
-0.224211
-0.234112
-0.243828
-0.253347
-0.262657
-0.271747
-0.280606
-0.289221
-0.297582
-0.305679
-0.313501
-0.321036
-0.328276
-0.335211
-0.34183
-0.348124
-0.354083
-0.3597
-0.364966
-0.369872
-0.37441
-0.378573
-0.382356
-0.38575
-0.388751
-0.391355
-0.393556
-0.395352
-0.396741
-0.397721
-0.398291
-0.398453
-0.398208
-0.397559
-0.39651
-0.395065
-0.393231
-0.391016
-0.388427
-0.385474
-0.382167
-0.378519
-0.374541
-0.370247
-0.36565
-0.360767
-0.355613
-0.350204
-0.344557
-0.33869
-0.332619
-0.326364
-0.319942
-0.313372
-0.306672
-0.29986
-0.292955
-0.285974
-0.278935
-0.271855
-0.264751
-0.257639
-0.250535
-0.243453
-0.236408
-0.229413
-0.22248
-0.215621
-0.208848
-0.202169
-0.195593
-0.189128
-0.182782
-0.176559
-0.170465
-0.164504
-0.158679
-0.152992
-0.147445
-0.142039
-0.136775
-0.131652
-0.126671
-0.12183
-0.117129
-0.112567
-0.108142
-0.103853
-0.0996983
-0.0956759
-0.091784
-0.0880208
-0.0843843
-0.0808721
-0.0774822
-0.0742122
-0.0710596
-0.068022
-0.0650969
-0.0622815
-0.0595731
-0.0569691
-0.0544666
-0.0520628
-0.0497547
-0.0475397
-0.0454147
-0.0433769
-0.0414234
-0.0395514
-0.0377582
-0.0360408
-0.0343967
-0.032823
-0.0313173
-0.0298769
-0.0284993
-0.027182
-0.0259227
-0.0247191
-0.0235688
-0.0224698
-0.0214198
-0.0204169
-0.019459
-0.0185443
-0.0176709
-0.0168369
-0.0160408
-0.0152808
-0.0145553
-0.0138628
-0.0132019
-0.012571
-0.011969
-0.0113944
-0.0108459
-0.0103225
-0.00982292
-0.00934605
-0.00889086
-0.00845632
-0.00804145
-0.00764533
-0.00726705
-0.00690576
-0.00656064
-0.00623089
-0.00591578
-0.00561456
-0.00532655
-0.00505109
-0.00478753
-0.00453527
-0.00429373
-0.00406233
-0.00384055
-0.00362786
-0.00342377
-0.0032278
-0.00303949
-0.0028584
-0.0026841
-0.00251618
-0.00235425
-0.00219793
-0.00204684
-0.00190063
-0.00175896
-0.00162148
-0.00148789
-0.00135784
-0.00123105
-0.00110721
-0.000986029
-0.000867187
-0.000750511
-0.000635451
-0.000522397
-0.000409458
-0.000300259
-0.000184653
-8.3669e-05
0.267407
0.267276
0.266989
0.266537
0.265921
0.265144
0.264203
0.263099
0.261828
0.260389
0.258779
0.256997
0.255039
0.252904
0.250587
0.248086
0.245398
0.242518
0.239444
0.236173
0.232699
0.22902
0.225131
0.221029
0.21671
0.21217
0.207406
0.202414
0.197192
0.191735
0.186041
0.180109
0.173935
0.167518
0.160857
0.153952
0.146801
0.139407
0.13177
0.123892
0.115775
0.107424
0.0988418
0.0900344
0.0810073
0.0717674
0.0623223
0.0526803
0.0428509
0.0328441
0.0226706
0.012342
0.00187057
-0.00873085
-0.0194489
-0.0302696
-0.0411786
-0.0521613
-0.0632027
-0.0742875
-0.0854004
-0.0965259
-0.107649
-0.118753
-0.129824
-0.140846
-0.151804
-0.162684
-0.173471
-0.18415
-0.194708
-0.205131
-0.215406
-0.22552
-0.23546
-0.245214
-0.25477
-0.264116
-0.27324
-0.282131
-0.290779
-0.299171
-0.307298
-0.315149
-0.322714
-0.329983
-0.336945
-0.343592
-0.349913
-0.3559
-0.361543
-0.366834
-0.371764
-0.376325
-0.380511
-0.384314
-0.387728
-0.390746
-0.393365
-0.39558
-0.397387
-0.398784
-0.39977
-0.400343
-0.400504
-0.400255
-0.399599
-0.398539
-0.39708
-0.395229
-0.392991
-0.390377
-0.387395
-0.384056
-0.380372
-0.376354
-0.372017
-0.367375
-0.362443
-0.357236
-0.351773
-0.346068
-0.340141
-0.334009
-0.327691
-0.321204
-0.314568
-0.3078
-0.300921
-0.293947
-0.286897
-0.279789
-0.27264
-0.265468
-0.258288
-0.251117
-0.24397
-0.23686
-0.229802
-0.222808
-0.21589
-0.209058
-0.202324
-0.195695
-0.189179
-0.182784
-0.176516
-0.170379
-0.164377
-0.158514
-0.152791
-0.147212
-0.141776
-0.136485
-0.131338
-0.126335
-0.121475
-0.116757
-0.112181
-0.107744
-0.103444
-0.0992812
-0.0952524
-0.0913559
-0.0875897
-0.0839515
-0.0804392
-0.0770503
-0.0737824
-0.0706331
-0.0675996
-0.0646794
-0.0618697
-0.0591678
-0.0565707
-0.0540757
-0.0516797
-0.04938
-0.0471735
-0.0450574
-0.0430286
-0.0410844
-0.0392217
-0.0374379
-0.03573
-0.0340953
-0.032531
-0.0310346
-0.0296035
-0.028235
-0.0269268
-0.0256764
-0.0244815
-0.0233399
-0.0222492
-0.0212075
-0.0202126
-0.0192626
-0.0183554
-0.0174894
-0.0166627
-0.0158735
-0.0151203
-0.0144014
-0.0137153
-0.0130605
-0.0124357
-0.0118394
-0.0112703
-0.0107273
-0.010209
-0.00971441
-0.00924235
-0.00879179
-0.00836171
-0.00795114
-0.00755916
-0.00718486
-0.0068274
-0.00648596
-0.00615975
-0.00584804
-0.0055501
-0.00526524
-0.00499281
-0.00473216
-0.00448271
-0.00424386
-0.00401506
-0.00379577
-0.00358549
-0.00338372
-0.00318998
-0.00300382
-0.00282481
-0.00265251
-0.00248654
-0.00232648
-0.00217197
-0.00202265
-0.00187815
-0.00173813
-0.00160227
-0.00147024
-0.00134173
-0.00121644
-0.00109406
-0.000974313
-0.00085688
-0.000741588
-0.000627894
-0.000516185
-0.000404589
-0.000296691
-0.000182459
-8.26821e-05
0.268372
0.268241
0.267956
0.267506
0.266894
0.26612
0.265184
0.264085
0.26282
0.261387
0.259784
0.258009
0.256059
0.253931
0.251623
0.24913
0.246449
0.243578
0.240511
0.237246
0.233778
0.230104
0.22622
0.222121
0.217803
0.213264
0.208498
0.203502
0.198273
0.192808
0.187103
0.181156
0.174965
0.168528
0.161843
0.15491
0.147729
0.1403
0.132623
0.124703
0.116539
0.108137
0.0995006
0.0906347
0.0815455
0.0722399
0.0627257
0.0530117
0.0431074
0.0330231
0.0227699
0.0123598
0.00180545
-0.00888003
-0.0196828
-0.0305886
-0.0415827
-0.05265
-0.0637751
-0.0749426
-0.0861367
-0.0973417
-0.108542
-0.119722
-0.130865
-0.141958
-0.152984
-0.163929
-0.174778
-0.185517
-0.196132
-0.20661
-0.216937
-0.2271
-0.237088
-0.246888
-0.256487
-0.265875
-0.275039
-0.28397
-0.292655
-0.301085
-0.309248
-0.317135
-0.324735
-0.332038
-0.339035
-0.345715
-0.352069
-0.358088
-0.363762
-0.369084
-0.374043
-0.378634
-0.382847
-0.386675
-0.390112
-0.393153
-0.395791
-0.398022
-0.399843
-0.40125
-0.402243
-0.402819
-0.402981
-0.402727
-0.402063
-0.40099
-0.399514
-0.397641
-0.395378
-0.392733
-0.389717
-0.386338
-0.38261
-0.378545
-0.374156
-0.369458
-0.364467
-0.359198
-0.353668
-0.347894
-0.341895
-0.335689
-0.329294
-0.322729
-0.316012
-0.309163
-0.302201
-0.295144
-0.288011
-0.28082
-0.273588
-0.266333
-0.259071
-0.251819
-0.244592
-0.237404
-0.23027
-0.223202
-0.216212
-0.209311
-0.202509
-0.195816
-0.189239
-0.182786
-0.176462
-0.170273
-0.164222
-0.158313
-0.152548
-0.14693
-0.141458
-0.136134
-0.130958
-0.125929
-0.121046
-0.116308
-0.111714
-0.107262
-0.102951
-0.0987782
-0.0947419
-0.0908399
-0.0870702
-0.0834302
-0.0799178
-0.0765303
-0.0732652
-0.0701198
-0.0670914
-0.0641773
-0.0613746
-0.0586805
-0.0560919
-0.0536059
-0.0512196
-0.0489299
-0.0467338
-0.0446284
-0.0426106
-0.0406775
-0.0388261
-0.0370536
-0.0353571
-0.0337337
-0.0321808
-0.0306957
-0.0292757
-0.0279183
-0.026621
-0.0253813
-0.0241969
-0.0230656
-0.021985
-0.0209532
-0.0199679
-0.0190273
-0.0181293
-0.0172722
-0.0164541
-0.0156733
-0.0149283
-0.0142173
-0.0135388
-0.0128914
-0.0122737
-0.0116843
-0.0111219
-0.0105853
-0.0100732
-0.0095846
-0.0091183
-0.00867329
-0.00824856
-0.00784313
-0.0074561
-0.00708656
-0.00673368
-0.00639665
-0.00607468
-0.00576705
-0.00547302
-0.00519193
-0.00492312
-0.00466596
-0.00441986
-0.00418424
-0.00395854
-0.00374224
-0.00353484
-0.00333583
-0.00314477
-0.00296118
-0.00278465
-0.00261476
-0.0024511
-0.00229329
-0.00214096
-0.00199373
-0.00185127
-0.00171324
-0.00157931
-0.00144916
-0.00132248
-0.00119897
-0.00107834
-0.000960311
-0.000844561
-0.000730923
-0.000618863
-0.00050876
-0.00039877
-0.000292426
-0.000179838
-8.15015e-05
0.269496
0.269366
0.269082
0.268635
0.268026
0.267257
0.266326
0.265233
0.263975
0.26255
0.260956
0.259189
0.257249
0.25513
0.252831
0.250348
0.247677
0.244815
0.241757
0.2385
0.23504
0.231373
0.227494
0.223398
0.219083
0.214544
0.209776
0.204777
0.199541
0.194066
0.188348
0.182385
0.176174
0.169713
0.163001
0.156036
0.148818
0.141348
0.133627
0.125656
0.117438
0.108976
0.100275
0.0913404
0.082178
0.0727951
0.0631996
0.0534005
0.0434077
0.033232
0.0228848
0.0123786
0.00172625
-0.00905845
-0.0199613
-0.0309674
-0.0420618
-0.0532287
-0.0644526
-0.0757173
-0.0870069
-0.0983053
-0.109596
-0.120864
-0.132094
-0.143269
-0.154374
-0.165395
-0.176317
-0.187125
-0.197807
-0.208348
-0.218736
-0.228957
-0.239
-0.248852
-0.258502
-0.267939
-0.27715
-0.286126
-0.294856
-0.303329
-0.311534
-0.319463
-0.327103
-0.334447
-0.341483
-0.348202
-0.354595
-0.360652
-0.366363
-0.371721
-0.376716
-0.38134
-0.385585
-0.389444
-0.39291
-0.395976
-0.398637
-0.400888
-0.402725
-0.404146
-0.405147
-0.405729
-0.40589
-0.405633
-0.404958
-0.403871
-0.402376
-0.400478
-0.398185
-0.395504
-0.392447
-0.389023
-0.385244
-0.381122
-0.376673
-0.371909
-0.366848
-0.361505
-0.355897
-0.350042
-0.343959
-0.337665
-0.331179
-0.324521
-0.317711
-0.310766
-0.303707
-0.296552
-0.28932
-0.28203
-0.2747
-0.267348
-0.25999
-0.252643
-0.245322
-0.238042
-0.230818
-0.223663
-0.216588
-0.209605
-0.202725
-0.195956
-0.189307
-0.182785
-0.176396
-0.170146
-0.164037
-0.158075
-0.152261
-0.146596
-0.141083
-0.135721
-0.130511
-0.125451
-0.120542
-0.11578
-0.111166
-0.106697
-0.102372
-0.0981878
-0.0941428
-0.0902347
-0.086461
-0.0828193
-0.0793069
-0.0759212
-0.0726595
-0.069519
-0.0664968
-0.06359
-0.0607956
-0.0581107
-0.0555322
-0.053057
-0.050682
-0.0484042
-0.0462204
-0.0441276
-0.0421227
-0.0402027
-0.0383645
-0.0366053
-0.0349222
-0.0333122
-0.0317726
-0.0303007
-0.0288937
-0.0275492
-0.0262646
-0.0250375
-0.0238654
-0.0227461
-0.0216774
-0.0206571
-0.0196831
-0.0187534
-0.0178661
-0.0170194
-0.0162114
-0.0154404
-0.0147049
-0.0140031
-0.0133335
-0.0126947
-0.0120853
-0.011504
-0.0109493
-0.0104202
-0.00991536
-0.0094337
-0.00897412
-0.00853557
-0.00811705
-0.00771761
-0.00733633
-0.00697234
-0.00662479
-0.00629288
-0.00597585
-0.00567295
-0.00538348
-0.00510677
-0.00484217
-0.00458907
-0.00434686
-0.00411498
-0.00389289
-0.00368007
-0.003476
-0.00328022
-0.00309226
-0.00291167
-0.00273803
-0.00257092
-0.00240996
-0.00225475
-0.00210494
-0.00196016
-0.00182007
-0.00168434
-0.00155265
-0.00142468
-0.00130012
-0.00117869
-0.00106009
-0.000944053
-0.000830257
-0.000718541
-0.000608377
-0.000500139
-0.000392013
-0.000287474
-0.000176794
-8.01298e-05
0.270777
0.270648
0.270367
0.269923
0.269318
0.268554
0.26763
0.266544
0.265294
0.263878
0.262293
0.260537
0.258607
0.2565
0.254212
0.25174
0.249081
0.24623
0.243183
0.239936
0.236485
0.232826
0.228953
0.224863
0.220551
0.216013
0.211244
0.20624
0.200997
0.195511
0.189779
0.183798
0.177565
0.171078
0.164334
0.157333
0.150074
0.142557
0.134783
0.126755
0.118473
0.109943
0.101168
0.0921542
0.0829072
0.0734348
0.0637451
0.0538476
0.0437525
0.0334709
0.0230148
0.0123971
0.00163137
-0.00926823
-0.0202869
-0.0314092
-0.0426195
-0.0539018
-0.0652396
-0.0766167
-0.0880165
-0.0994225
-0.110818
-0.122188
-0.133515
-0.144785
-0.155981
-0.167089
-0.178094
-0.188982
-0.19974
-0.210353
-0.220809
-0.231096
-0.241202
-0.251114
-0.260821
-0.270313
-0.279578
-0.288605
-0.297385
-0.305907
-0.31416
-0.322136
-0.329823
-0.337213
-0.344294
-0.351059
-0.357496
-0.363597
-0.369351
-0.374751
-0.379787
-0.384451
-0.388734
-0.392628
-0.396127
-0.399224
-0.401912
-0.404187
-0.406045
-0.407481
-0.408493
-0.409081
-0.409243
-0.408981
-0.408296
-0.407193
-0.405675
-0.403749
-0.401421
-0.398701
-0.395597
-0.39212
-0.388282
-0.384096
-0.379576
-0.374737
-0.369595
-0.364167
-0.358469
-0.35252
-0.346339
-0.339944
-0.333354
-0.326589
-0.319669
-0.312613
-0.305442
-0.298174
-0.290829
-0.283425
-0.275982
-0.268517
-0.261047
-0.25359
-0.246161
-0.238775
-0.231448
-0.224191
-0.217019
-0.209942
-0.202971
-0.196115
-0.189383
-0.182782
-0.176318
-0.169996
-0.163822
-0.157798
-0.151927
-0.14621
-0.140649
-0.135244
-0.129994
-0.1249
-0.119959
-0.115171
-0.110534
-0.106046
-0.101705
-0.0975084
-0.0934538
-0.0895389
-0.085761
-0.0821174
-0.0786054
-0.075222
-0.0719645
-0.0688298
-0.0658149
-0.0629167
-0.0601321
-0.057458
-0.0548912
-0.0524285
-0.0500667
-0.0478026
-0.045633
-0.0435548
-0.0415648
-0.0396599
-0.037837
-0.0360932
-0.0344254
-0.0328307
-0.0313064
-0.0298497
-0.0284577
-0.0271281
-0.0258581
-0.0246453
-0.0234873
-0.0223818
-0.0213266
-0.0203195
-0.0193584
-0.0184413
-0.0175662
-0.0167314
-0.0159349
-0.0151751
-0.0144504
-0.0137591
-0.0130997
-0.0124708
-0.0118709
-0.0112987
-0.0107529
-0.0102323
-0.00973571
-0.00926199
-0.00881005
-0.00837886
-0.00796743
-0.00757481
-0.00720009
-0.00684241
-0.00650093
-0.00617486
-0.00586344
-0.00556593
-0.00528165
-0.00500993
-0.00475013
-0.00450163
-0.00426386
-0.00403624
-0.00381826
-0.00360938
-0.00340912
-0.003217
-0.00303256
-0.00285538
-0.00268502
-0.00252108
-0.00236318
-0.00221094
-0.00206399
-0.00192199
-0.0017846
-0.00165149
-0.00152234
-0.00139685
-0.00127471
-0.00115564
-0.00103935
-0.000925574
-0.000814001
-0.000704468
-0.00059646
-0.000490342
-0.000384334
-0.000281845
-0.000173334
-7.85704e-05
0.272215
0.272087
0.271808
0.271368
0.270768
0.27001
0.269093
0.268016
0.266776
0.26537
0.263796
0.262052
0.260135
0.25804
0.255766
0.253307
0.250661
0.247823
0.244789
0.241554
0.238114
0.234464
0.2306
0.226516
0.222209
0.217672
0.212902
0.207894
0.202644
0.197147
0.1914
0.1854
0.179142
0.172625
0.165846
0.158804
0.151499
0.143929
0.136097
0.128003
0.11965
0.111042
0.102183
0.0930789
0.0837357
0.0741613
0.0643643
0.0543544
0.0441424
0.0337398
0.0231593
0.0124143
0.00151894
-0.00951192
-0.0206628
-0.0319178
-0.0432604
-0.054674
-0.0661418
-0.0776467
-0.0891718
-0.1007
-0.112215
-0.1237
-0.135138
-0.146515
-0.157813
-0.169019
-0.180118
-0.191095
-0.201938
-0.212632
-0.223165
-0.233525
-0.2437
-0.253679
-0.26345
-0.273003
-0.282327
-0.291412
-0.300248
-0.308825
-0.317132
-0.32516
-0.3329
-0.340342
-0.347475
-0.35429
-0.360778
-0.366929
-0.372733
-0.378181
-0.383264
-0.387973
-0.3923
-0.396236
-0.399773
-0.402906
-0.405626
-0.407929
-0.40981
-0.411265
-0.412291
-0.412886
-0.41305
-0.412784
-0.412088
-0.410967
-0.409425
-0.407467
-0.405101
-0.402334
-0.399177
-0.395641
-0.391736
-0.387477
-0.382878
-0.377953
-0.37272
-0.367194
-0.361394
-0.355338
-0.349045
-0.342535
-0.335826
-0.328939
-0.321895
-0.314713
-0.307414
-0.300017
-0.292542
-0.285009
-0.277436
-0.269843
-0.262246
-0.254663
-0.247111
-0.239605
-0.232159
-0.224788
-0.217505
-0.21032
-0.203246
-0.196291
-0.189464
-0.182773
-0.176225
-0.169823
-0.163574
-0.157481
-0.151545
-0.145769
-0.140154
-0.134699
-0.129406
-0.124272
-0.119297
-0.11448
-0.109817
-0.105307
-0.100949
-0.0967381
-0.092673
-0.0887508
-0.0849684
-0.0813231
-0.0778118
-0.0744315
-0.071179
-0.0680511
-0.0650448
-0.0621566
-0.0593833
-0.0567217
-0.0541683
-0.05172
-0.0493732
-0.0471249
-0.0449715
-0.0429099
-0.0409369
-0.0390491
-0.0372436
-0.0355172
-0.0338668
-0.0322896
-0.0307826
-0.0293429
-0.027968
-0.0266551
-0.0254016
-0.024205
-0.0230629
-0.021973
-0.0209331
-0.0199408
-0.0189942
-0.0180913
-0.01723
-0.0164085
-0.015625
-0.0148778
-0.0141653
-0.0134858
-0.0128378
-0.0122199
-0.0116307
-0.0110688
-0.0105329
-0.0100219
-0.00953456
-0.00906974
-0.00862637
-0.00820344
-0.00779996
-0.00741498
-0.00704762
-0.00669701
-0.00636233
-0.0060428
-0.00573767
-0.00544621
-0.00516773
-0.0049016
-0.00464716
-0.00440383
-0.00417101
-0.00394818
-0.00373478
-0.00353033
-0.00333432
-0.0031463
-0.00296581
-0.00279243
-0.00262575
-0.00246536
-0.00231089
-0.00216196
-0.00201822
-0.00187932
-0.00174495
-0.00161476
-0.00148846
-0.00136574
-0.0012463
-0.00112987
-0.00101616
-0.000904917
-0.000795827
-0.000688736
-0.000583137
-0.000479389
-0.00037575
-0.000275553
-0.000169467
-7.68265e-05
0.273808
0.273682
0.273405
0.272969
0.272375
0.271624
0.270716
0.269648
0.268419
0.267025
0.265464
0.263734
0.26183
0.259751
0.257492
0.255049
0.252419
0.249596
0.246576
0.243355
0.239929
0.23629
0.232436
0.228361
0.224059
0.219525
0.214755
0.209744
0.204486
0.198978
0.193215
0.187193
0.180909
0.174359
0.167542
0.160455
0.153098
0.14547
0.137573
0.129406
0.120973
0.112278
0.103324
0.0941182
0.0846665
0.0749771
0.0650589
0.0549221
0.044578
0.0340388
0.0233176
0.0124287
0.00138674
-0.00979248
-0.0210928
-0.0324975
-0.0439895
-0.0555513
-0.0671655
-0.0788144
-0.0904804
-0.102146
-0.113794
-0.125408
-0.136971
-0.148466
-0.159879
-0.171194
-0.182397
-0.193473
-0.204409
-0.215193
-0.225811
-0.236251
-0.246503
-0.256555
-0.266396
-0.276017
-0.285406
-0.294554
-0.303451
-0.312088
-0.320455
-0.328542
-0.33634
-0.343839
-0.35103
-0.357902
-0.364447
-0.370654
-0.376514
-0.382017
-0.387154
-0.391915
-0.396291
-0.400275
-0.403857
-0.407031
-0.409789
-0.412124
-0.414033
-0.41551
-0.416552
-0.417158
-0.417325
-0.417055
-0.416348
-0.415208
-0.413639
-0.411646
-0.409237
-0.40642
-0.403204
-0.3996
-0.395621
-0.39128
-0.386591
-0.38157
-0.376234
-0.370599
-0.364683
-0.358507
-0.352088
-0.345448
-0.338605
-0.331582
-0.324397
-0.317073
-0.309629
-0.302086
-0.294466
-0.286786
-0.279068
-0.27133
-0.26359
-0.255866
-0.248175
-0.240532
-0.232954
-0.225454
-0.218045
-0.21074
-0.20355
-0.196484
-0.189551
-0.182759
-0.176115
-0.169625
-0.163292
-0.15712
-0.151112
-0.14527
-0.139595
-0.134086
-0.128743
-0.123566
-0.118553
-0.113702
-0.109012
-0.104478
-0.1001
-0.0958748
-0.0917984
-0.0878684
-0.0840816
-0.0804348
-0.0769248
-0.0735482
-0.0703017
-0.067182
-0.0641855
-0.0613088
-0.0585485
-0.0559011
-0.0533631
-0.050931
-0.0486013
-0.0463707
-0.0442357
-0.0421928
-0.0402388
-0.0383704
-0.0365843
-0.0348774
-0.0332466
-0.0316888
-0.0302012
-0.0287808
-0.0274248
-0.0261306
-0.0248955
-0.023717
-0.0225927
-0.0215201
-0.0204971
-0.0195215
-0.018591
-0.0177038
-0.0168577
-0.0160511
-0.015282
-0.0145488
-0.0138498
-0.0131834
-0.0125481
-0.0119425
-0.0113651
-0.0108146
-0.0102898
-0.00978937
-0.00931225
-0.00885729
-0.00842342
-0.00800963
-0.00761494
-0.00723843
-0.0068792
-0.00653642
-0.00620927
-0.00589697
-0.00559878
-0.005314
-0.00504195
-0.00478199
-0.00453348
-0.00429585
-0.00406853
-0.00385096
-0.00364264
-0.00344307
-0.00325176
-0.00306826
-0.00289214
-0.00272297
-0.00256034
-0.00240387
-0.00225317
-0.0021079
-0.0019677
-0.00183224
-0.00170119
-0.00157423
-0.00145107
-0.00133141
-0.00121496
-0.00110144
-0.00099058
-0.000882125
-0.000775775
-0.000671378
-0.000568438
-0.000467304
-0.000366279
-0.00026861
-0.000165199