/*--------------------------------*- C++ -*----------------------------------*\
| =========                 |                                                 |
| \\      /  F ield         | OpenFOAM: The Open Source CFD Toolbox           |
|  \\    /   O peration     | Version:  2306                                  |
|   \\  /    A nd           | Website:  www.openfoam.com                      |
|    \\/     M anipulation  |                                                 |
\*---------------------------------------------------------------------------*/
FoamFile
{
    version     2.0;
    format      ascii;
    arch        "LSB;label=32;scalar=64";
    class       surfaceScalarField;
    location    "4";
    object      phi;
}
// * * * * * * * * * * * * * * * * * * * * * * * * * * * * * * * * * * * * * //

dimensions      [0 3 -1 0 0 0 0];

oriented        oriented;

internalField   nonuniform List<scalar> 
65152
(
0.0062505
-5.04368e-07
0.00625202
-1.51476e-06
0.00625454
-2.5255e-06
0.00625808
-3.5377e-06
0.00626264
-4.55301e-06
0.00626821
-5.57251e-06
0.0062748
-6.59687e-06
0.00628243
-7.62679e-06
0.00629109
-8.66308e-06
0.0063008
-9.70648e-06
0.00631156
-1.07577e-05
0.00632338
-1.18172e-05
0.00633626
-1.28856e-05
0.00635022
-1.39633e-05
0.00636528
-1.50505e-05
0.00638142
-1.61475e-05
0.00639868
-1.72544e-05
0.00641705
-1.83711e-05
0.00643655
-1.94974e-05
0.00645718
-2.06331e-05
0.00647896
-2.17776e-05
0.00650189
-2.29302e-05
0.00652598
-2.40903e-05
0.00655123
-2.52567e-05
0.00657766
-2.64284e-05
0.00660527
-2.7604e-05
0.00663405
-2.87819e-05
0.00666401
-2.99605e-05
0.00669515
-3.11379e-05
0.00672746
-3.23118e-05
0.00676094
-3.34802e-05
0.00679558
-3.46403e-05
0.00683137
-3.57898e-05
0.00686829
-3.69257e-05
0.00690634
-3.80451e-05
0.00694548
-3.91449e-05
0.00698571
-4.0222e-05
0.00702698
-4.1273e-05
0.00706927
-4.22947e-05
0.00711256
-4.32835e-05
0.00715679
-4.42361e-05
0.00720194
-4.51491e-05
0.00724796
-4.6019e-05
0.0072948
-4.68427e-05
0.00734242
-4.76168e-05
0.00739076
-4.83382e-05
0.00743976
-4.90042e-05
0.00748938
-4.96118e-05
0.00753953
-5.01585e-05
0.00759018
-5.06422e-05
0.00764124
-5.10606e-05
0.00769265
-5.1412e-05
0.00774434
-5.1695e-05
0.00779625
-5.19082e-05
0.0078483
-5.20509e-05
0.00790043
-5.21223e-05
0.00795255
-5.21222e-05
0.0080046
-5.20505e-05
0.00805651
-5.19075e-05
0.0081082
-5.16936e-05
0.00815961
-5.14096e-05
0.00821067
-5.10565e-05
0.0082613
-5.06354e-05
0.00831145
-5.01475e-05
0.00836104
-4.95945e-05
0.00841002
-4.89779e-05
0.00845832
-4.82994e-05
0.00850588
-4.75606e-05
0.00855264
-4.67635e-05
0.00859855
-4.59097e-05
0.00864355
-4.5001e-05
0.00868759
-4.40392e-05
0.00873062
-4.3026e-05
0.00877258
-4.1963e-05
0.00881343
-4.08516e-05
0.00885313
-3.96934e-05
0.00889162
-3.84897e-05
0.00892886
-3.72417e-05
0.00896481
-3.59506e-05
0.00899943
-3.46174e-05
0.00903267
-3.32431e-05
0.0090645
-3.18285e-05
0.00909487
-3.03744e-05
0.00912376
-2.88817e-05
0.00915111
-2.73509e-05
0.00917689
-2.57829e-05
0.00920107
-2.41783e-05
0.00922361
-2.25379e-05
0.00924447
-2.08625e-05
0.00926362
-1.91529e-05
0.00928103
-1.74102e-05
0.00929667
-1.56354e-05
0.0093105
-1.38298e-05
0.00932249
-1.19948e-05
0.00933262
-1.01319e-05
0.00934087
-8.24287e-06
0.0093472
-6.32976e-06
0.00935159
-4.39469e-06
0.00935403
-2.44005e-06
0.0093545
-4.68477e-07
0.00935298
1.51729e-06
0.00934947
3.51413e-06
0.00934395
5.51891e-06
0.00933642
7.5282e-06
0.00932688
9.53841e-06
0.00931534
1.15458e-05
0.00930179
1.35465e-05
0.00928625
1.55365e-05
0.00926874
1.75118e-05
0.00924927
1.94681e-05
0.00922787
2.14012e-05
0.00920457
2.33069e-05
0.00917938
2.51809e-05
0.00915237
2.70191e-05
0.00912355
2.88173e-05
0.00909298
3.05713e-05
0.0090607
3.22771e-05
0.00902677
3.39309e-05
0.00899124
3.5529e-05
0.00895417
3.70677e-05
0.00891563
3.85436e-05
0.00887567
3.99536e-05
0.00883438
4.12946e-05
0.00879182
4.25639e-05
0.00874806
4.37588e-05
0.00870318
4.4877e-05
0.00865726
4.59165e-05
0.00861039
4.68753e-05
0.00856264
4.77516e-05
0.00851409
4.8544e-05
0.00846484
4.92507e-05
0.00841497
4.98705e-05
0.00836457
5.04018e-05
0.00831373
5.08431e-05
0.00826253
5.11925e-05
0.00821109
5.14484e-05
0.00815948
5.16084e-05
0.00810781
5.16704e-05
0.00805617
5.16319e-05
0.00800468
5.14906e-05
0.00795344
5.12442e-05
0.00790255
5.0891e-05
0.00785212
5.04299e-05
0.00780226
4.98611e-05
0.00775307
4.9186e-05
0.00770466
4.84075e-05
0.00765713
4.75306e-05
0.00761057
4.65622e-05
0.00756506
4.55114e-05
0.00752067
4.43888e-05
0.00747746
4.32068e-05
0.00743549
4.19792e-05
0.00739477
4.07203e-05
0.00735532
3.94447e-05
0.00731715
3.81666e-05
0.00728025
3.68994e-05
0.0072446
3.56548e-05
0.00721016
3.4443e-05
0.00717688
3.32722e-05
0.00714474
3.2148e-05
0.00711366
3.10744e-05
0.00708361
3.00529e-05
0.00705453
2.90833e-05
0.00702636
2.81639e-05
0.00699907
2.72919e-05
0.00697261
2.64633e-05
0.00694693
2.56739e-05
0.00692201
2.49191e-05
0.00689782
2.41946e-05
0.00687432
2.3496e-05
0.0068515
2.28195e-05
0.00682934
2.21618e-05
0.00680782
2.15202e-05
0.00678693
2.08923e-05
0.00676665
2.02764e-05
0.00674698
1.96713e-05
0.00672791
1.9076e-05
0.00670942
1.84901e-05
0.0066915
1.79133e-05
0.00667416
1.73456e-05
0.00665737
1.6787e-05
0.00664113
1.62379e-05
0.00662543
1.56985e-05
0.00661026
1.51692e-05
0.00659561
1.46502e-05
0.00658147
1.4142e-05
0.00656783
1.36448e-05
0.00655467
1.31588e-05
0.00654198
1.26844e-05
0.00652976
1.22218e-05
0.00651799
1.17709e-05
0.00650666
1.13321e-05
0.00649575
1.09054e-05
0.00648526
1.04907e-05
0.00647517
1.00881e-05
0.00646548
9.69758e-06
0.00645616
9.31903e-06
0.00644721
8.95236e-06
0.00643861
8.59746e-06
0.00643035
8.25419e-06
0.00642243
7.92238e-06
0.00641483
7.60184e-06
0.00640754
7.29239e-06
0.00640054
6.99382e-06
0.00639384
6.7059e-06
0.00638741
6.42841e-06
0.00638125
6.16109e-06
0.00637534
5.90372e-06
0.00636969
5.65604e-06
0.00636427
5.4178e-06
0.00635908
5.18874e-06
0.00635411
4.9686e-06
0.00634936
4.75712e-06
0.0063448
4.55405e-06
0.00634044
4.35914e-06
0.00633627
4.17212e-06
0.00633228
3.99274e-06
0.00632846
3.82077e-06
0.0063248
3.65594e-06
0.0063213
3.49803e-06
0.00631796
3.3468e-06
0.00631475
3.20201e-06
0.00631169
3.06344e-06
0.00630876
2.93087e-06
0.00630596
2.80409e-06
0.00630327
2.68289e-06
0.00630071
2.56707e-06
0.00629825
2.45643e-06
0.0062959
2.35078e-06
0.00629365
2.24995e-06
0.0062915
2.15374e-06
0.00628943
2.06199e-06
0.00628746
1.97454e-06
0.00628557
1.89123e-06
0.00628376
1.81191e-06
0.00628202
1.73642e-06
0.00628035
1.66463e-06
0.00627876
1.5964e-06
0.00627723
1.53161e-06
0.00627576
1.47012e-06
0.00627434
1.41183e-06
0.00627299
1.35662e-06
0.00627168
1.30438e-06
0.00627043
1.25501e-06
0.00626922
1.20841e-06
0.00626806
1.16449e-06
0.00626693
1.12316e-06
0.00626585
1.08434e-06
0.0062648
1.04794e-06
0.00626379
1.01391e-06
0.0062628
9.82133e-07
0.00626185
9.52618e-07
0.00626093
9.25193e-07
0.00626003
8.99515e-07
0.00625915
8.77424e-07
8.50481e-07
0.0062505
-1.00924e-06
0.00625202
-3.0277e-06
0.00625454
-5.04814e-06
0.00625808
-7.07248e-06
0.00626262
-9.10277e-06
0.00626819
-1.1141e-05
0.00627479
-1.31889e-05
0.00628241
-1.52481e-05
0.00629106
-1.73202e-05
0.00630076
-1.94065e-05
0.00631151
-2.15084e-05
0.00632332
-2.36271e-05
0.0063362
-2.57637e-05
0.00635016
-2.79189e-05
0.0063652
-3.00933e-05
0.00638134
-3.22875e-05
0.00639859
-3.45014e-05
0.00641695
-3.67352e-05
0.00643644
-3.89883e-05
0.00645707
-4.12602e-05
0.00647884
-4.355e-05
0.00650177
-4.58563e-05
0.00652586
-4.81775e-05
0.00655111
-5.05117e-05
0.00657754
-5.28566e-05
0.00660514
-5.52095e-05
0.00663393
-5.75673e-05
0.0066639
-5.99266e-05
0.00669504
-6.22835e-05
0.00672736
-6.46339e-05
0.00676086
-6.69732e-05
0.00679551
-6.92963e-05
0.00683132
-7.15982e-05
0.00686827
-7.3873e-05
0.00690634
-7.61151e-05
0.00694551
-7.83181e-05
0.00698577
-8.04756e-05
0.00702707
-8.25812e-05
0.00706941
-8.4628e-05
0.00711273
-8.66092e-05
0.00715701
-8.8518e-05
0.00720221
-9.03474e-05
0.00724828
-9.20907e-05
0.00729518
-9.37413e-05
0.00734286
-9.52927e-05
0.00739126
-9.67386e-05
0.00744033
-9.80733e-05
0.00749001
-9.92911e-05
0.00754024
-0.000100387
0.00759095
-0.000101356
0.00764208
-0.000102195
0.00769357
-0.000102899
0.00774534
-0.000103467
0.00779733
-0.000103894
0.00784946
-0.00010418
0.00790166
-0.000104323
0.00795386
-0.000104323
0.00800599
-0.000104179
0.00805797
-0.000103893
0.00810975
-0.000103464
0.00816123
-0.000102895
0.00821236
-0.000102188
0.00826307
-0.000101344
0.00831329
-0.000100367
0.00836295
-9.92592e-05
0.008412
-9.80241e-05
0.00846037
-9.66652e-05
0.00850799
-9.51857e-05
0.00855482
-9.35895e-05
0.00860079
-9.18799e-05
0.00864585
-9.00607e-05
0.00868994
-8.81352e-05
0.00873302
-8.61069e-05
0.00877504
-8.3979e-05
0.00881594
-8.17546e-05
0.00885569
-7.94366e-05
0.00889422
-7.70276e-05
0.00893151
-7.45302e-05
0.00896751
-7.19467e-05
0.00900217
-6.9279e-05
0.00903546
-6.65291e-05
0.00906733
-6.36988e-05
0.00909774
-6.07895e-05
0.00912666
-5.78029e-05
0.00915405
-5.47403e-05
0.00917987
-5.16032e-05
0.00920409
-4.83928e-05
0.00922666
-4.51108e-05
0.00924756
-4.17587e-05
0.00926674
-3.83382e-05
0.00928418
-3.48512e-05
0.00929985
-3.13e-05
0.0093137
-2.7687e-05
0.00932572
-2.40149e-05
0.00933588
-2.02869e-05
0.00934414
-1.65066e-05
0.00935049
-1.26778e-05
0.0093549
-8.8049e-06
0.00935735
-4.89266e-06
0.00935783
-9.46153e-07
0.00935632
3.02862e-06
0.00935281
7.02592e-06
0.00934729
1.10392e-05
0.00933975
1.50618e-05
0.00933021
1.90863e-05
0.00931865
2.31053e-05
0.00930508
2.7111e-05
0.00928952
3.10955e-05
0.00927199
3.50504e-05
0.00925249
3.89675e-05
0.00923105
4.28382e-05
0.0092077
4.66542e-05
0.00918248
5.04067e-05
0.00915541
5.40875e-05
0.00912654
5.76881e-05
0.00909591
6.12003e-05
0.00906357
6.4616e-05
0.00902957
6.79276e-05
0.00899397
7.11274e-05
0.00895683
7.42083e-05
0.00891821
7.71635e-05
0.00887818
7.99864e-05
0.0088368
8.26712e-05
0.00879416
8.52121e-05
0.00875031
8.76041e-05
0.00870534
8.98425e-05
0.00865934
9.1923e-05
0.00861237
9.38418e-05
0.00856453
9.55954e-05
0.00851589
9.71806e-05
0.00846655
9.85944e-05
0.00841658
9.98339e-05
0.00836609
0.000100896
0.00831516
0.000101778
0.00826387
0.000102476
0.00821233
0.000102987
0.00816064
0.000103306
0.00810888
0.000103429
0.00805716
0.00010335
0.00800558
0.000103066
0.00795425
0.000102572
0.00790328
0.000101864
0.00785277
0.000100941
0.00780283
9.98021e-05
0.00775356
9.84504e-05
0.00770508
9.68919e-05
0.00765747
9.51366e-05
0.00761084
9.31982e-05
0.00756525
9.10946e-05
0.0075208
8.88472e-05
0.00747752
8.6481e-05
0.00743548
8.40231e-05
0.0073947
8.15024e-05
0.00735519
7.8948e-05
0.00731697
7.63883e-05
0.00728002
7.38502e-05
0.00724432
7.13572e-05
0.00720983
6.89298e-05
0.00717652
6.65842e-05
0.00714433
6.43321e-05
0.00711323
6.21811e-05
0.00708315
6.01344e-05
0.00705404
5.81917e-05
0.00702585
5.63497e-05
0.00699854
5.46024e-05
0.00697206
5.29423e-05
0.00694638
5.13608e-05
0.00692145
4.98489e-05
0.00689724
4.83974e-05
0.00687374
4.69981e-05
0.00685092
4.56433e-05
0.00682875
4.43261e-05
0.00680723
4.30412e-05
0.00678634
4.17839e-05
0.00676607
4.05507e-05
0.0067464
3.93392e-05
0.00672733
3.81475e-05
0.00670884
3.69746e-05
0.00669094
3.582e-05
0.0066736
3.46837e-05
0.00665682
3.35658e-05
0.00664059
3.24669e-05
0.0066249
3.13875e-05
0.00660974
3.03283e-05
0.0065951
2.92899e-05
0.00658097
2.8273e-05
0.00656734
2.72782e-05
0.00655419
2.6306e-05
0.00654152
2.5357e-05
0.00652931
2.44315e-05
0.00651755
2.35298e-05
0.00650623
2.2652e-05
0.00649534
2.17985e-05
0.00648486
2.09691e-05
0.00647478
2.0164e-05
0.0064651
1.9383e-05
0.00645579
1.8626e-05
0.00644685
1.78928e-05
0.00643826
1.71832e-05
0.00643002
1.64968e-05
0.00642211
1.58333e-05
0.00641452
1.51925e-05
0.00640724
1.45738e-05
0.00640025
1.39769e-05
0.00639356
1.34013e-05
0.00638714
1.28465e-05
0.00638099
1.23122e-05
0.0063751
1.17977e-05
0.00636945
1.13026e-05
0.00636404
1.08263e-05
0.00635886
1.03685e-05
0.0063539
9.92846e-06
0.00634915
9.50577e-06
0.00634461
9.0999e-06
0.00634026
8.71032e-06
0.00633609
8.33654e-06
0.00633211
7.97804e-06
0.00632829
7.63434e-06
0.00632464
7.30493e-06
0.00632115
6.98935e-06
0.00631781
6.68711e-06
0.00631462
6.39776e-06
0.00631156
6.12085e-06
0.00630863
5.85593e-06
0.00630584
5.60258e-06
0.00630316
5.36039e-06
0.0063006
5.12894e-06
0.00629814
4.90785e-06
0.0062958
4.69674e-06
0.00629355
4.49524e-06
0.0062914
4.303e-06
0.00628935
4.11968e-06
0.00628738
3.94494e-06
0.00628549
3.77847e-06
0.00628368
3.61996e-06
0.00628195
3.46913e-06
0.00628029
3.32568e-06
0.00627869
3.18936e-06
0.00627717
3.0599e-06
0.0062757
2.93705e-06
0.00627429
2.82058e-06
0.00627294
2.71026e-06
0.00627163
2.60589e-06
0.00627038
2.50724e-06
0.00626918
2.41413e-06
0.00626802
2.32638e-06
0.00626689
2.2438e-06
0.00626581
2.16624e-06
0.00626477
2.09354e-06
0.00626376
2.02551e-06
0.00626278
1.96214e-06
0.00626182
1.90293e-06
0.0062609
1.84884e-06
0.00626
1.79644e-06
0.00625913
1.75591e-06
1.69633e-06
0.0062505
-1.51279e-06
0.00625201
-4.53834e-06
0.00625453
-7.56694e-06
0.00625806
-1.06017e-05
0.0062626
-1.36454e-05
0.00626816
-1.6701e-05
0.00627475
-1.97712e-05
0.00628236
-2.28584e-05
0.006291
-2.5965e-05
0.00630069
-2.90933e-05
0.00631143
-3.22451e-05
0.00632322
-3.54224e-05
0.00633608
-3.86266e-05
0.00635002
-4.1859e-05
0.00636505
-4.51205e-05
0.00638118
-4.84119e-05
0.00639841
-5.17334e-05
0.00641676
-5.50849e-05
0.00643623
-5.84659e-05
0.00645685
-6.18753e-05
0.00647861
-6.5312e-05
0.00650153
-6.87739e-05
0.00652561
-7.22586e-05
0.00655086
-7.57632e-05
0.00657729
-7.92844e-05
0.0066049
-8.2818e-05
0.00663369
-8.63594e-05
0.00666367
-8.99035e-05
0.00669483
-9.34446e-05
0.00672717
-9.69763e-05
0.00676069
-0.000100492
0.00679538
-0.000103984
0.00683122
-0.000107444
0.00686821
-0.000110864
0.00690633
-0.000114235
0.00694556
-0.000117548
0.00698588
-0.000120793
0.00702726
-0.00012396
0.00706967
-0.000127039
0.00711308
-0.00013002
0.00715745
-0.000132892
0.00720275
-0.000135644
0.00724893
-0.000138268
0.00729594
-0.000140752
0.00734373
-0.000143087
0.00739226
-0.000145264
0.00744146
-0.000147273
0.00749127
-0.000149106
0.00754164
-0.000150756
0.0075925
-0.000152215
0.00764378
-0.000153478
0.00769542
-0.000154538
0.00774735
-0.000155392
0.00779949
-0.000156035
0.00785177
-0.000156466
0.00790413
-0.000156681
0.00795649
-0.000156681
0.00800877
-0.000156465
0.00806092
-0.000156034
0.00811284
-0.000155389
0.00816448
-0.000154533
0.00821576
-0.000153469
0.00826661
-0.000152199
0.00831698
-0.00015073
0.00836678
-0.000149064
0.00841597
-0.000147207
0.00846446
-0.000145164
0.00851222
-0.00014294
0.00855917
-0.00014054
0.00860526
-0.000137971
0.00865044
-0.000135237
0.00869465
-0.000132344
0.00873784
-0.000129297
0.00877996
-0.000126101
0.00882096
-0.00012276
0.00886081
-0.000119279
0.00889944
-0.000115662
0.00893682
-0.000111912
0.00897291
-0.000108033
0.00900766
-0.000104029
0.00904103
-9.99008e-05
0.00907298
-9.56524e-05
0.00910348
-9.12858e-05
0.00913248
-8.68031e-05
0.00915995
-8.22066e-05
0.00918584
-7.74981e-05
0.00921013
-7.26798e-05
0.00923277
-6.77538e-05
0.00925374
-6.27224e-05
0.00927299
-5.75882e-05
0.00929049
-5.2354e-05
0.00930621
-4.70231e-05
0.00932012
-4.1599e-05
0.00933219
-3.6086e-05
0.0093424
-3.04886e-05
0.0093507
-2.48122e-05
0.00935709
-1.90625e-05
0.00936153
-1.32462e-05
0.00936401
-7.37039e-06
0.0093645
-1.44248e-06
0.009363
4.52804e-06
0.0093595
1.0533e-05
0.00935397
1.65624e-05
0.00934643
2.26061e-05
0.00933686
2.86531e-05
0.00932527
3.46922e-05
0.00931167
4.07116e-05
0.00929607
4.66993e-05
0.00927848
5.26429e-05
0.00925891
5.85299e-05
0.00923741
6.43473e-05
0.00921398
7.00825e-05
0.00918866
7.57226e-05
0.00916149
8.12547e-05
0.00913252
8.66664e-05
0.00910177
9.19452e-05
0.00906931
9.7079e-05
0.00903518
0.000102056
0.00899944
0.000106865
0.00896216
0.000111495
0.00892338
0.000115936
0.00888319
0.000120178
0.00884165
0.000124212
0.00879883
0.00012803
0.00875481
0.000131623
0.00870967
0.000134985
0.00866348
0.00013811
0.00861634
0.000140991
0.00856831
0.000143624
0.00851949
0.000146003
0.00846996
0.000148124
0.00841981
0.000149983
0.00836913
0.000151576
0.00831801
0.000152898
0.00826654
0.000153943
0.00821482
0.000154706
0.00816294
0.000155182
0.00811101
0.000155363
0.00805912
0.000155242
0.00800737
0.000154813
0.00795588
0.000154068
0.00790474
0.000153003
0.00785406
0.000151615
0.00780396
0.000149903
0.00775454
0.000147872
0.0077059
0.00014553
0.00765815
0.000142893
0.00761136
0.000139982
0.00756564
0.000136821
0.00752104
0.000133445
0.00747763
0.00012989
0.00743546
0.000126196
0.00739455
0.000122408
0.00735493
0.000118568
0.0073166
0.00011472
0.00727955
0.000110904
0.00724375
0.000107155
0.00720918
0.000103504
0.00717578
9.99758e-05
0.00714353
9.65881e-05
0.00711236
9.33521e-05
0.00708222
9.02729e-05
0.00705306
8.73502e-05
0.00702483
8.45789e-05
0.00699748
8.19503e-05
0.00697097
7.94529e-05
0.00694526
7.70739e-05
0.00692031
7.47997e-05
0.00689609
7.26168e-05
0.00687257
7.05125e-05
0.00684974
6.84754e-05
0.00682757
6.64952e-05
0.00680605
6.45637e-05
0.00678516
6.26739e-05
0.00676489
6.08207e-05
0.00674523
5.90001e-05
0.00672617
5.72097e-05
0.00670769
5.54477e-05
0.0066898
5.37134e-05
0.00667248
5.20067e-05
0.00665572
5.0328e-05
0.0066395
4.86779e-05
0.00662383
4.70572e-05
0.0066087
4.5467e-05
0.00659408
4.39083e-05
0.00657997
4.23819e-05
0.00656636
4.08889e-05
0.00655323
3.943e-05
0.00654059
3.80059e-05
0.0065284
3.66171e-05
0.00651667
3.52642e-05
0.00650537
3.39475e-05
0.0064945
3.26671e-05
0.00648405
3.14231e-05
0.006474
3.02155e-05
0.00646433
2.90442e-05
0.00645505
2.79089e-05
0.00644614
2.68094e-05
0.00643757
2.57453e-05
0.00642935
2.47162e-05
0.00642147
2.37215e-05
0.0064139
2.27607e-05
0.00640664
2.18332e-05
0.00639968
2.09384e-05
0.006393
2.00756e-05
0.0063866
1.92441e-05
0.00638047
1.84431e-05
0.0063746
1.7672e-05
0.00636897
1.693e-05
0.00636358
1.62164e-05
0.00635842
1.55302e-05
0.00635348
1.48709e-05
0.00634875
1.42375e-05
0.00634422
1.36293e-05
0.00633988
1.30456e-05
0.00633573
1.24856e-05
0.00633176
1.19485e-05
0.00632796
1.14335e-05
0.00632433
1.094e-05
0.00632085
1.04672e-05
0.00631752
1.00145e-05
0.00631434
9.58101e-06
0.00631129
9.1662e-06
0.00630838
8.76936e-06
0.00630559
8.38987e-06
0.00630293
8.02708e-06
0.00630037
7.68041e-06
0.00629793
7.34925e-06
0.0062956
7.03305e-06
0.00629336
6.73125e-06
0.00629122
6.44332e-06
0.00628917
6.16875e-06
0.00628721
5.90704e-06
0.00628533
5.65772e-06
0.00628353
5.42033e-06
0.0062818
5.19443e-06
0.00628015
4.9796e-06
0.00627856
4.77544e-06
0.00627704
4.58156e-06
0.00627558
4.39759e-06
0.00627418
4.22317e-06
0.00627283
4.05796e-06
0.00627154
3.90165e-06
0.00627029
3.75393e-06
0.00626909
3.6145e-06
0.00626793
3.48309e-06
0.00626682
3.35944e-06
0.00626574
3.24329e-06
0.0062647
3.13443e-06
0.00626369
3.03256e-06
0.00626272
2.9377e-06
0.00626177
2.84899e-06
0.00626085
2.7682e-06
0.00625996
2.6895e-06
0.00625908
2.62926e-06
2.53935e-06
0.0062505
-2.0151e-06
0.00625201
-6.04538e-06
0.00625452
-1.00797e-05
0.00625804
-1.41224e-05
0.00626257
-1.81773e-05
0.00626812
-2.22482e-05
0.00627469
-2.63386e-05
0.00628228
-3.04519e-05
0.00629091
-3.45914e-05
0.00630058
-3.876e-05
0.00631129
-4.29605e-05
0.00632306
-4.71952e-05
0.0063359
-5.14663e-05
0.00634982
-5.57755e-05
0.00636482
-6.0124e-05
0.00638092
-6.45129e-05
0.00639813
-6.89425e-05
0.00641646
-7.34128e-05
0.00643592
-7.7923e-05
0.00645652
-8.2472e-05
0.00647826
-8.70579e-05
0.00650117
-9.16783e-05
0.00652524
-9.63299e-05
0.00655048
-0.000101009
0.00657691
-0.000105711
0.00660452
-0.00011043
0.00663332
-0.000115161
0.00666332
-0.000119896
0.0066945
-0.000124628
0.00672687
-0.000129349
0.00676043
-0.000134048
0.00679516
-0.000138717
0.00683106
-0.000143344
0.00686812
-0.000147919
0.00690631
-0.000152429
0.00694563
-0.000156862
0.00698604
-0.000161205
0.00702752
-0.000165444
0.00707005
-0.000169566
0.00711359
-0.000173557
0.0071581
-0.000177403
0.00720354
-0.00018109
0.00724988
-0.000184604
0.00729706
-0.000187932
0.00734503
-0.00019106
0.00739374
-0.000193976
0.00744314
-0.000196668
0.00749316
-0.000199125
0.00754374
-0.000201336
0.00759481
-0.000203291
0.00764632
-0.000204983
0.00769819
-0.000206404
0.00775034
-0.000207549
0.00780272
-0.000208411
0.00785524
-0.000208988
0.00790783
-0.000209277
0.00796043
-0.000209276
0.00801295
-0.000208987
0.00806533
-0.000208409
0.00811748
-0.000207546
0.00816935
-0.000206399
0.00822086
-0.000204974
0.00827193
-0.000203275
0.00832251
-0.000201308
0.00837252
-0.000199079
0.00842191
-0.000196595
0.00847061
-0.000193861
0.00851856
-0.000190887
0.0085657
-0.000187679
0.00861197
-0.000184244
0.00865732
-0.00018059
0.0087017
-0.000176723
0.00874505
-0.000172652
0.00878733
-0.000168382
0.00882849
-0.000163919
0.00886849
-0.00015927
0.00890726
-0.00015444
0.00894479
-0.000149434
0.00898101
-0.000144256
0.00901589
-0.00013891
0.00904939
-0.000133401
0.00908147
-0.000127731
0.00911209
-0.000121904
0.0091412
-0.000115922
0.00916879
-0.000109788
0.00919479
-0.000103505
0.00921919
-9.70755e-05
0.00924194
-9.0502e-05
0.009263
-8.37876e-05
0.00928235
-7.69356e-05
0.00929995
-6.99498e-05
0.00931576
-6.28343e-05
0.00932975
-5.55938e-05
0.0093419
-4.82339e-05
0.00935217
-4.07606e-05
0.00936054
-3.3181e-05
0.00936698
-2.55029e-05
0.00937147
-1.77348e-05
0.00937399
-9.88634e-06
0.00937451
-1.96746e-06
0.00937303
6.00907e-06
0.00936953
1.40325e-05
0.009364
2.20894e-05
0.00935644
3.01661e-05
0.00934685
3.82479e-05
0.00933522
4.63198e-05
0.00932157
5.4366e-05
0.0093059
6.23703e-05
0.00928822
7.03161e-05
0.00926857
7.81865e-05
0.00924695
8.59644e-05
0.0092234
9.36324e-05
0.00919795
0.000101173
0.00917063
0.00010857
0.00914149
0.000115806
0.00911057
0.000122864
0.00907792
0.000129728
0.0090436
0.000136382
0.00900765
0.000142812
0.00897014
0.000149002
0.00893114
0.000154938
0.00889071
0.000160608
0.00884892
0.000166
0.00880585
0.000171101
0.00876157
0.000175903
0.00871616
0.000180394
0.00866971
0.000184568
0.00862228
0.000188415
0.00857398
0.00019193
0.00852487
0.000195105
0.00847506
0.000197934
0.00842463
0.000200413
0.00837367
0.000202535
0.00832228
0.000204294
0.00827054
0.000205684
0.00821854
0.000206698
0.0081664
0.000207327
0.0081142
0.000207562
0.00806205
0.000207395
0.00801005
0.000206816
0.0079583
0.000205816
0.00790691
0.00020439
0.00785599
0.000202532
0.00780565
0.000200243
0.007756
0.000197528
0.00770713
0.000194399
0.00765914
0.000190876
0.00761214
0.000186986
0.0075662
0.000182763
0.00752139
0.000178251
0.00747778
0.0001735
0.00743542
0.000168562
0.00739433
0.000163497
0.00735453
0.000158363
0.00731604
0.000153216
0.00727883
0.000148111
0.00724289
0.000143095
0.00720818
0.000138209
0.00717467
0.000133487
0.00714231
0.000128952
0.00711104
0.000124619
0.00708082
0.000120497
0.00705158
0.000116584
0.00702329
0.000112873
0.00699589
0.000109354
0.00696933
0.00010601
0.00694358
0.000102826
0.0069186
9.9782e-05
0.00689435
9.68607e-05
0.00687082
9.40451e-05
0.00684797
9.13198e-05
0.0068258
8.86712e-05
0.00680427
8.60881e-05
0.00678339
8.35613e-05
0.00676312
8.10839e-05
0.00674347
7.86505e-05
0.00672443
7.62578e-05
0.00670597
7.39035e-05
0.0066881
7.15867e-05
0.0066708
6.93071e-05
0.00665406
6.70651e-05
0.00663787
6.48617e-05
0.00662223
6.26979e-05
0.00660713
6.05751e-05
0.00659254
5.84946e-05
0.00657846
5.64575e-05
0.00656489
5.44653e-05
0.0065518
5.25188e-05
0.00653919
5.06189e-05
0.00652704
4.87665e-05
0.00651534
4.69621e-05
0.00650408
4.52061e-05
0.00649325
4.34987e-05
0.00648283
4.18401e-05
0.00647282
4.02302e-05
0.00646319
3.86687e-05
0.00645395
3.71555e-05
0.00644506
3.56902e-05
0.00643654
3.42721e-05
0.00642835
3.29007e-05
0.0064205
3.15753e-05
0.00641297
3.02952e-05
0.00640574
2.90595e-05
0.00639881
2.78675e-05
0.00639217
2.67182e-05
0.0063858
2.56107e-05
0.0063797
2.4544e-05
0.00637385
2.35171e-05
0.00636826
2.25289e-05
0.00636289
2.15786e-05
0.00635776
2.0665e-05
0.00635284
1.9787e-05
0.00634814
1.89438e-05
0.00634363
1.81341e-05
0.00633932
1.7357e-05
0.00633519
1.66115e-05
0.00633125
1.58965e-05
0.00632747
1.52111e-05
0.00632385
1.45543e-05
0.0063204
1.3925e-05
0.00631709
1.33224e-05
0.00631392
1.27455e-05
0.0063109
1.21935e-05
0.006308
1.16654e-05
0.00630523
1.11604e-05
0.00630258
1.06776e-05
0.00630004
1.02163e-05
0.00629762
9.77564e-06
0.0062953
9.3549e-06
0.00629307
8.95333e-06
0.00629095
8.57022e-06
0.00628891
8.2049e-06
0.00628696
7.8567e-06
0.00628509
7.52499e-06
0.0062833
7.20917e-06
0.00628159
6.90863e-06
0.00627995
6.62283e-06
0.00627837
6.35122e-06
0.00627686
6.09329e-06
0.00627541
5.84855e-06
0.00627402
5.61652e-06
0.00627268
5.39675e-06
0.00627139
5.18882e-06
0.00627015
4.99231e-06
0.00626896
4.80684e-06
0.00626781
4.63204e-06
0.0062667
4.46756e-06
0.00626563
4.31306e-06
0.0062646
4.16826e-06
0.0062636
4.03276e-06
0.00626263
3.90661e-06
0.00626169
3.78859e-06
0.00626078
3.68122e-06
0.00625989
3.57643e-06
0.00625902
3.49647e-06
3.37669e-06
0.0062505
-2.5158e-06
0.006252
-7.54752e-06
0.00625451
-1.25844e-05
0.00625802
-1.76318e-05
0.00626253
-2.26948e-05
0.00626806
-2.77779e-05
0.00627461
-3.28858e-05
0.00628218
-3.80228e-05
0.00629078
-4.31928e-05
0.00630042
-4.83997e-05
0.00631111
-5.3647e-05
0.00632285
-5.89378e-05
0.00633566
-6.42747e-05
0.00634955
-6.96599e-05
0.00636452
-7.50953e-05
0.00638059
-8.05819e-05
0.00639776
-8.61204e-05
0.00641606
-9.17107e-05
0.00643549
-9.73521e-05
0.00645606
-0.000103043
0.00647779
-0.000108781
0.00650067
-0.000114564
0.00652473
-0.000120387
0.00654997
-0.000126246
0.00657639
-0.000132135
0.00660401
-0.000138047
0.00663282
-0.000143974
0.00666283
-0.000149909
0.00669405
-0.000155841
0.00672646
-0.00016176
0.00676006
-0.000167654
0.00679486
-0.000173512
0.00683083
-0.000179318
0.00686797
-0.00018506
0.00690627
-0.000190722
0.00694569
-0.000196288
0.00698623
-0.000201742
0.00702785
-0.000207068
0.00707054
-0.000212247
0.00711424
-0.000217263
0.00715894
-0.000222097
0.00720458
-0.000226733
0.00725113
-0.000231151
0.00729853
-0.000235336
0.00734674
-0.000239271
0.00739571
-0.000242939
0.00744536
-0.000246326
0.00749566
-0.000249416
0.00754652
-0.000252198
0.00759789
-0.000254658
0.00764969
-0.000256787
0.00770186
-0.000258575
0.00775433
-0.000260015
0.00780702
-0.0002611
0.00785985
-0.000261825
0.00791277
-0.000262189
0.00796568
-0.000262188
0.00801851
-0.000261824
0.0080712
-0.000261098
0.00812367
-0.000260012
0.00817584
-0.000258571
0.00822765
-0.000256781
0.00827902
-0.000254646
0.00832989
-0.000252175
0.00838018
-0.000249375
0.00842984
-0.000246256
0.00847881
-0.000242825
0.00852701
-0.000239092
0.0085744
-0.000235067
0.00862091
-0.000230758
0.0086665
-0.000226175
0.0087111
-0.000221328
0.00875468
-0.000216225
0.00879717
-0.000210874
0.00883853
-0.000205283
0.00887872
-0.000199459
0.00891769
-0.00019341
0.0089554
-0.000187142
0.0089918
-0.000180659
0.00902686
-0.000173968
0.00906053
-0.000167072
0.00909278
-0.000159976
0.00912356
-0.000152684
0.00915283
-0.000145199
0.00918057
-0.000137524
0.00920673
-0.000129662
0.00923127
-0.000121616
0.00925416
-0.000113391
0.00927536
-0.000104989
0.00929483
-9.64136e-05
0.00931256
-8.76703e-05
0.00932848
-7.87638e-05
0.00934259
-6.96998e-05
0.00935484
-6.04852e-05
0.00936521
-5.11275e-05
0.00937366
-4.16354e-05
0.00938018
-3.20184e-05
0.00938473
-2.22875e-05
0.0093873
-1.24544e-05
0.00938786
-2.53152e-06
0.00938641
7.46448e-06
0.00938292
1.75209e-05
0.00937739
2.76206e-05
0.00936981
3.77461e-05
0.00936018
4.78794e-05
0.0093485
5.80011e-05
0.00933477
6.80916e-05
0.00931901
7.81304e-05
0.00930123
8.80966e-05
0.00928145
9.79687e-05
0.00925969
0.000107725
0.00923597
0.000117345
0.00921034
0.000126805
0.00918283
0.000136084
0.00915347
0.000145161
0.00912232
0.000154016
0.00908942
0.000162626
0.00905483
0.000170974
0.00901861
0.000179038
0.00898081
0.000186802
0.0089415
0.000194247
0.00890075
0.000201358
0.00885863
0.000208118
0.00881522
0.000214514
0.00877059
0.000220532
0.00872482
0.000226161
0.008678
0.000231389
0.00863021
0.000236208
0.00858153
0.000240607
0.00853205
0.000244581
0.00848187
0.00024812
0.00843106
0.000251218
0.00837973
0.000253868
0.00832796
0.000256063
0.00827585
0.000257794
0.0082235
0.000259053
0.00817099
0.000259831
0.00811844
0.000260115
0.00806594
0.000259896
0.00801359
0.000259162
0.00796151
0.000257902
0.00790979
0.000256108
0.00785854
0.000253775
0.00780788
0.000250903
0.00775791
0.000247498
0.00770874
0.000243576
0.00766045
0.00023916
0.00761316
0.000234284
0.00756693
0.000228991
0.00752184
0.000223335
0.00747797
0.000217377
0.00743534
0.000211186
0.00739401
0.000204832
0.00735398
0.00019839
0.00731527
0.000191931
0.00727785
0.000185522
0.00724173
0.000179223
0.00720685
0.000173088
0.00717318
0.000167155
0.00714067
0.000161458
0.00710928
0.000156014
0.00707894
0.000150834
0.00704961
0.000145916
0.00702123
0.000141253
0.00699375
0.000136831
0.00696713
0.00013263
0.00694133
0.000128629
0.0069163
0.000124806
0.00689203
0.000121137
0.00686847
0.000117601
0.00684561
0.00011418
0.00682343
0.000110856
0.0068019
0.000107615
0.00678102
0.000104445
0.00676076
0.000101338
0.00674113
9.82864e-05
0.0067221
9.52867e-05
0.00670366
9.2336e-05
0.00668582
8.94327e-05
0.00666855
8.65766e-05
0.00665185
8.37683e-05
0.0066357
8.10088e-05
0.0066201
7.82995e-05
0.00660503
7.5642e-05
0.00659049
7.30378e-05
0.00657646
7.04885e-05
0.00656293
6.79957e-05
0.00654988
6.55605e-05
0.00653732
6.31841e-05
0.00652522
6.08673e-05
0.00651357
5.86109e-05
0.00650236
5.64154e-05
0.00649158
5.4281e-05
0.00648121
5.22078e-05
0.00647124
5.01957e-05
0.00646167
4.82445e-05
0.00645247
4.63538e-05
0.00644364
4.4523e-05
0.00643516
4.27515e-05
0.00642702
4.10386e-05
0.00641921
3.93833e-05
0.00641172
3.77847e-05
0.00640454
3.62418e-05
0.00639765
3.47535e-05
0.00639105
3.33187e-05
0.00638473
3.19361e-05
0.00637867
3.06046e-05
0.00637286
2.93229e-05
0.0063673
2.80897e-05
0.00636198
2.69037e-05
0.00635688
2.57637e-05
0.006352
2.46683e-05
0.00634732
2.36162e-05
0.00634285
2.26061e-05
0.00633857
2.16367e-05
0.00633448
2.07067e-05
0.00633056
1.98149e-05
0.00632681
1.896e-05
0.00632322
1.81407e-05
0.00631979
1.73559e-05
0.00631651
1.66044e-05
0.00631337
1.58851e-05
0.00631037
1.51967e-05
0.00630749
1.45382e-05
0.00630475
1.39085e-05
0.00630212
1.33065e-05
0.0062996
1.27314e-05
0.0062972
1.2182e-05
0.00629489
1.16575e-05
0.00629269
1.11569e-05
0.00629058
1.06793e-05
0.00628856
1.02239e-05
0.00628663