/*--------------------------------*- C++ -*----------------------------------*\
| =========                 |                                                 |
| \\      /  F ield         | OpenFOAM: The Open Source CFD Toolbox           |
|  \\    /   O peration     | Version:  2306                                  |
|   \\  /    A nd           | Website:  www.openfoam.com                      |
|    \\/     M anipulation  |                                                 |
\*---------------------------------------------------------------------------*/
FoamFile
{
    version     2.0;
    format      ascii;
    arch        "LSB;label=32;scalar=64";
    class       volScalarField;
    location    "4";
    object      T;
}
// * * * * * * * * * * * * * * * * * * * * * * * * * * * * * * * * * * * * * //

dimensions      [0 0 0 1 0 0 0];

internalField   nonuniform List<scalar> 
32768
(
300
300
300
300
300
300
300
300
300
300
300
300
300
300
300
300
300
300
300
300
300
300
300
300
300
300
300
300
300
300
300
300
300
300
300
300
300
300
300
299.999
299.999
299.999
299.999
299.999
299.998
299.998
299.998
299.997
299.997
299.996
299.996
299.995
299.994
299.993
299.992
299.99
299.989
299.987
299.985
299.982
299.98
299.976
299.973
299.969
299.964
299.959
299.953
299.946
299.939
299.93
299.921
299.91
299.898
299.884
299.869
299.852
299.833
299.812
299.788
299.762
299.733
299.701
299.665
299.625
299.581
299.532
299.478
299.418
299.352
299.279
299.199
299.111
299.014
298.907
298.789
298.66
298.518
298.363
298.192
298.005
297.8
297.576
297.33
297.062
296.768
296.447
296.096
295.713
295.295
294.839
294.341
293.799
293.208
292.565
291.865
291.103
290.274
289.374
288.397
287.336
286.186
284.941
283.592
282.133
280.557
278.856
277.023
275.049
272.926
270.647
268.204
265.588
262.794
259.814
256.642
253.273
249.701
245.924
241.939
237.745
233.342
228.731
223.917
218.903
213.697
208.307
202.743
197.016
191.14
185.129
178.998
172.764
166.446
160.061
153.629
147.17
140.704
134.25
127.828
121.458
115.159
108.95
102.848
96.8705
91.0327
85.3494
79.834
74.4986
69.3536
64.4081
59.6696
55.1439
50.8354
46.7469
42.8796
39.2332
35.8063
32.596
29.5981
26.8076
24.2184
21.8235
19.6154
17.5858
15.7262
14.0275
12.4807
11.0764
9.8053
8.65832
7.62639
6.70072
5.87281
5.13448
4.47793
3.89579
3.38107
2.92726
2.52825
2.1784
1.87248
1.60571
1.3737
1.17247
0.998376
0.848167
0.718897
0.607935
0.512929
0.431791
0.362671
0.303933
0.254143
0.212039
0.176521
0.146632
0.121539
0.100522
0.0829594
0.0683177
0.0561378
0.0460265
0.037647
0.0307093
0.0249614
0.0201775
0.0161442
0.0126372
0.00938418
0.00599739
0.00185076
-0.00414952
-0.0139953
-0.0313862
-0.0632559
-0.122649
-0.234148
-0.444105
-0.839932
-1.58647
-2.99455
-5.65017
-10.6579
-20.0996
-37.8982
-71.4448
-134.663
-253.775
-478.168
-900.828
-1696.82
-3195.66
-6017.54
-11329.5
-21327.6
-40142.5
300
300
300
300
300
300
300
300
300
300
300
300
300
300
300
300
300
300
300
300
300
300
300
300
300
300
300
300
300
300
300
300
300
300
300
300
300
300
300
299.999
299.999
299.999
299.999
299.999
299.998
299.998
299.998
299.997
299.997
299.996
299.996
299.995
299.994
299.993
299.992
299.99
299.989
299.987
299.985
299.982
299.98
299.976
299.973
299.969
299.964
299.959
299.953
299.946
299.938
299.93
299.92
299.909
299.897
299.884
299.868
299.851
299.832
299.811
299.787
299.761
299.731
299.699
299.663
299.623
299.578
299.529
299.475
299.415
299.349
299.276
299.195
299.107
299.009
298.902
298.784
298.654
298.512
298.356
298.185
297.998
297.793
297.568
297.322
297.053
296.759
296.438
296.087
295.703
295.285
294.829
294.331
293.789
293.198
292.555
291.854
291.093
290.264
289.365
288.388
287.328
286.178
284.933
283.585
282.127
280.552
278.852
277.019
275.046
272.924
270.646
268.204
265.59
262.797
259.819
256.648
253.28
249.709
245.933
241.949
237.756
233.353
228.744
223.93
218.916
213.711
208.321
202.757
197.03
191.153
185.141
179.009
172.775
166.455
160.069
153.636
147.176
140.708
134.253
127.829
121.458
115.158
108.947
102.844
96.865
91.0259
85.3415
79.8252
74.4889
69.3432
64.3971
59.658
55.132
50.8232
46.7346
42.8672
39.221
35.7942
32.5841
29.5866
26.7965
24.2077
21.8133
19.6057
17.5767
15.7176
14.0195
12.4732
11.0694
9.79892
8.65247
7.62104
6.69585
5.86839
5.13049
4.47434
3.89257
3.3782
2.9247
2.52598
2.17639
1.87071
1.60416
1.37235
1.17128
0.997347
0.847274
0.718126
0.60727
0.512358
0.431302
0.362253
0.303577
0.25384
0.211783
0.176305
0.14645
0.121385
0.100393
0.0828519
0.0682281
0.0560632
0.0459646
0.0375957
0.030667
0.0249265
0.0201488
0.0161207
0.0126179
0.00936831
0.0059843
0.00183985
-0.00415884
-0.0140036
-0.0313944
-0.0632647
-0.12266
-0.234163
-0.444127
-0.839967
-1.58653
-2.99464
-5.6503
-10.6581
-20.0999
-37.8985
-71.445
-134.662
-253.774
-478.164
-900.817
-1696.79
-3195.6
-6017.43
-11329.3
-21327.2
-40141.8
300
300
300
300
300
300
300
300
300
300
300
300
300
300
300
300
300
300
300
300
300
300
300
300
300
300
300
300
300
300
300
300
300
300
300
300
300
300
300
299.999
299.999
299.999
299.999
299.999
299.998
299.998
299.998
299.997
299.997
299.996
299.996
299.995
299.994
299.993
299.992
299.99
299.989
299.987
299.985
299.982
299.979
299.976
299.973
299.968
299.964
299.958
299.952
299.945
299.938
299.929
299.919
299.908
299.896
299.882
299.867
299.85
299.83
299.809
299.785
299.758
299.728
299.696
299.659
299.619
299.574
299.524
299.469
299.409
299.342
299.269
299.188
299.098
299
298.892
298.774
298.644
298.501
298.344
298.172
297.984
297.778
297.553
297.306
297.037
296.742
296.42
296.069
295.685
295.266
294.81
294.312
293.769
293.179
292.535
291.836
291.074
290.247
289.348
288.372
287.313
286.165
284.921
283.574
282.118
280.545
278.848
277.017
275.047
272.928
270.653
268.214
265.603
262.813
259.837
256.67
253.305
249.737
245.965
241.983
237.793
233.392
228.785
223.973
218.961
213.757
208.368
202.804
197.077
191.2
185.188
179.055
172.819
166.498
160.11
153.675
147.212
140.741
134.283
127.856
121.482
115.178
108.965
102.858
96.8762
91.0343
85.3471
79.8282
74.4895
69.3417
64.3936
59.6528
55.1253
50.8152
46.7255
42.8573
39.2104
35.7832
32.5728
29.5751
26.785
24.1964
21.8022
19.5949
17.5663
15.7077
14.0101
12.4643
11.0611
9.79114
8.64526
7.61439
6.68975
5.86282
5.12542
4.46976
3.88844
3.37449
2.92139
2.52303
2.17377
1.8684
1.60213
1.37056
1.16972
0.995988
0.846094
0.717105
0.606389
0.5116
0.430653
0.361698
0.303104
0.253438
0.211442
0.176017
0.146207
0.121182
0.100222
0.0827091
0.068109
0.0559643
0.0458825
0.0375278
0.0306109
0.0248803
0.0201109
0.0160895
0.0125923
0.00934724
0.00596678
0.00182497
-0.00417205
-0.0140163
-0.0314081
-0.0632819
-0.122684
-0.234201
-0.444188
-0.840067
-1.5867
-2.99492
-5.65076
-10.6589
-20.1011
-37.9005
-71.4481
-134.667
-253.781
-478.173
-900.828
-1696.8
-3195.6
-6017.4
-11329.2
-21326.9
-40141.3
300
300
300
300
300
300
300
300
300
300
300
300
300
300
300
300
300
300
300
300
300
300
300
300
300
300
300
300
300
300
300
300
300
300
300
300
300
300
300
299.999
299.999
299.999
299.999
299.999
299.998
299.998
299.998
299.997
299.997
299.996
299.996
299.995
299.994
299.993
299.992
299.99
299.988
299.987
299.984
299.982
299.979
299.976
299.972
299.968
299.963
299.958
299.952
299.945
299.937
299.928
299.918
299.907
299.894
299.88
299.864
299.847
299.827
299.805
299.781
299.754
299.724
299.69
299.653
299.612
299.567
299.516
299.461
299.4
299.332
299.258
299.176
299.085
298.986
298.877
298.758
298.627
298.483
298.325
298.152
297.963
297.756
297.529
297.282
297.011
296.716
296.393
296.041
295.656
295.237
294.78
294.282
293.74
293.149
292.506
291.807
291.046
290.22
289.322
288.348
287.29
286.144
284.903
283.559
282.106
280.536
278.842
277.016
275.049
272.935
270.664
268.23
265.624
262.839
259.869
256.706
253.346
249.784
246.016
242.039
237.853
233.457
228.853
224.044
219.035
213.833
208.446
202.883
197.157
191.28
185.267
179.132
172.895
166.571
160.18
153.742
147.275
140.8
134.337
127.906
121.527
115.219
109.001
102.889
96.9026
91.0561
85.3646
79.8416
74.4991
69.3477
64.3964
59.6527
55.1225
50.8102
46.7186
42.8487
39.2005
35.7723
32.5611
29.5629
26.7724
24.1837
21.7895
19.5824
17.5541
15.6959
13.9988
12.4536
11.0509
9.78163
8.63638
7.60617
6.68217
5.85587
5.11908
4.464
3.88324
3.36982
2.9172
2.51929
2.17046
1.86547
1.59954
1.36829
1.16773
0.994254
0.844587
0.7158
0.605262
0.510631
0.429821
0.360987
0.302498
0.252923
0.211005
0.175648
0.145896
0.12092
0.100003
0.0825262
0.0679566
0.0558375
0.0457775
0.0374409
0.0305392
0.0248212
0.0200624
0.0160497
0.0125596
0.00932021
0.00594421
0.0018056
-0.0041896
-0.0140338
-0.0314279
-0.0633078
-0.122723
-0.234262
-0.444289
-0.840238
-1.58698
-2.99541
-5.65159
-10.6603
-20.1034
-37.9043
-71.4543
-134.677
-253.796
-478.197
-900.864
-1696.85
-3195.67
-6017.48
-11329.3
-21326.9
-40141
300
300
300
300
300
300
300
300
300
300
300
300
300
300
300
300
300
300
300
300
300
300
300
300
300
300
300
300
300
300
300
300
300
300
300
300
300
300
299.999
299.999
299.999
299.999
299.999
299.999
299.998
299.998
299.998
299.997
299.997
299.996
299.996
299.995
299.994
299.993
299.991
299.99
299.988
299.986
299.984
299.982
299.979
299.975
299.972
299.967
299.962
299.957
299.95
299.943
299.935
299.926
299.916
299.905
299.892
299.877
299.861
299.843
299.823
299.801
299.776
299.748
299.717
299.683
299.645
299.603
299.557
299.505
299.449
299.386
299.318
299.242
299.159
299.067
298.966
298.856
298.735
298.602
298.457
298.297
298.123
297.932
297.724
297.496
297.247
296.975
296.678
296.354
296.001
295.616
295.196
294.738
294.24
293.697
293.107
292.464
291.765
291.006
290.181
289.285
288.313
287.258
286.115
284.877
283.537
282.088
280.522
278.833
277.012
275.051
272.943
270.678
268.25
265.651
262.873
259.91
256.754
253.401
249.846
246.085
242.114
237.934
233.544
228.945
224.141
219.136
213.938
208.553
202.992
197.267
191.39
185.376
179.24
173
166.673
160.279
153.836
147.364
140.884
134.415
127.979
121.593
115.279
109.053
102.936
96.9428
91.0902
85.3929
79.8643
74.5165
69.3602
64.4045
59.6567
55.123
50.8075
46.7131
42.8409
39.1907
35.7609
32.5485
29.5494
26.7583
24.1692
21.7749
19.5679
17.5398
15.682
13.9854
12.4408
11.0388
9.77022
8.62571
7.59626
6.67301
5.84746
5.1114
4.45702
3.87692
3.36412
2.91209
2.51474
2.1664
1.86188
1.59637
1.36551
1.1653
0.99213
0.842741
0.714201
0.603882
0.509443
0.428802
0.360115
0.301755
0.252292
0.21047
0.175196
0.145515
0.1206
0.0997353
0.0823022
0.0677699
0.0556824
0.0456489
0.0373346
0.0304515
0.024749
0.020003
0.0160009
0.0125195
0.00928713
0.00591649
0.00178166
-0.00421154
-0.014056
-0.0314538
-0.0633426
-0.122775
-0.234346
-0.44443
-0.840476
-1.58739
-2.9961
-5.65277
-10.6623
-20.1068
-37.9099
-71.4636
-134.692
-253.821
-478.236
-900.923
-1696.94
-3195.79
-6017.64
-11329.5
-21327.1
-40140.8
300
300
300
300
300
300
300
300
300
300
300
300
300
300
300
300
300
300
300
300
300
300
300
300
300
300
300
300
300
300
300
300
300
300
300
300
300
300
299.999
299.999
299.999
299.999
299.999
299.999
299.998
299.998
299.998
299.997
299.997
299.996
299.995
299.995
299.994
299.993
299.991
299.99
299.988
299.986
299.984
299.981
299.978
299.975
299.971
299.966
299.961
299.955
299.949
299.942
299.933
299.924
299.913
299.901
299.888
299.873
299.857
299.838
299.817
299.794
299.768
299.74
299.708
299.673
299.634
299.591
299.543
299.49
299.432
299.368
299.298
299.22
299.135
299.042
298.939
298.827
298.704
298.569
298.422
298.26
298.084
297.891
297.68
297.45
297.199
296.925
296.627
296.301
295.947
295.56
295.139
294.681
294.182
293.639
293.049
292.407
291.709
290.951
290.127
289.233
288.264
287.212
286.072
284.838
283.503
282.059
280.5
278.817
277.002
275.049
272.948
270.691
268.272
265.681
262.912
259.957
256.811
253.467
249.921
246.168
242.206
238.034
233.651
229.059
224.261
219.261
214.067
208.686
203.128
197.404
191.527
185.512
179.375
173.132
166.802
160.403
153.955
147.477
140.99
134.515
128.07
121.677
115.355
109.122
102.996
96.9952
91.135
85.4304
79.8948
74.5405
69.3781
64.4167
59.6639
55.1256
50.8061
46.7081
42.8329
39.1803
35.7484
32.5344
29.534
26.7421
24.1525
21.758
19.551
17.5231
15.6657
13.9697
12.4257
11.0245
9.75673
8.61309
7.58451
6.66216
5.83748
5.10227
4.44871
3.8694
3.35735
2.90602
2.50931
2.16158
1.85761
1.59261
1.3622
1.1624
0.989602
0.840544
0.712297
0.602238
0.508029
0.427589
0.359078
0.300871
0.25154
0.209834
0.174658
0.145062
0.12022
0.0994166
0.0820361
0.0675482
0.0554981
0.0454962
0.0372083
0.0303474
0.0246634
0.0199327
0.0159432
0.012472
0.00924786
0.00588354
0.0017531
-0.00423792
-0.0140831
-0.0314858
-0.0633861
-0.122841
-0.234453
-0.44461
-0.840783
-1.58792
-2.997
-5.65431
-10.6649
-20.1112
-37.9173
-71.4759
-134.712
-253.854
-478.288
-901.006
-1697.07
-3195.98
-6017.9
-11329.8
-21327.4
-40140.9
300
300
300
300
300
300
300
300
300
300
300
300
300
300
300
300
300
300
300
300
300
300
300
300
300
300
300
300
300
300
300
300
300
300
300
300
300
300
299.999
299.999
299.999
299.999
299.999
299.999
299.998
299.998
299.998
299.997
299.997
299.996
299.995
299.994
299.993
299.992
299.991
299.989
299.988
299.986
299.983
299.98
299.977
299.974
299.97
299.965
299.96
299.954
299.947
299.939
299.931
299.921
299.91
299.897
299.883
299.868
299.85
299.831
299.809
299.785
299.758
299.729
299.696
299.659
299.619
299.574
299.524
299.47
299.41
299.344
299.272
299.192
299.104
299.009
298.904
298.789
298.663
298.525
298.375
298.211
298.032
297.836
297.623
297.39
297.136
296.86
296.559
296.231
295.875
295.486
295.064
294.605
294.105
293.562
292.971
292.33
291.633
290.876
290.054
289.163
288.196
287.148
286.013
284.784
283.454
282.017
280.464
278.789
276.982
275.037
272.946
270.699
268.289
265.709
262.951
260.007
256.872
253.539
250.003
246.261
242.31
238.147
233.774
229.19
224.4
219.407
214.218
208.841
203.286
197.564
191.689
185.673
179.534
173.289
166.954
160.55
154.096
147.611
141.117
134.633
128.18
121.777
115.446
109.203
103.068
97.0579
91.1887
85.4754
79.9315
74.5694
69.3998
64.4318
59.6729
55.1292
50.8049
46.7027
42.824
39.1683
35.734
32.518
29.5162
26.7233
24.133
21.7382
19.5312
17.5036
15.6467
13.9513
12.4081
11.0078
9.74096
8.59832
7.57077
6.64945
5.8258
5.09159
4.439
3.86061
3.34943
2.89892
2.50297
2.15594
1.85262
1.5882
1.35833
1.15902
0.986649
0.837978
0.710075
0.60032
0.506379
0.426174
0.357869
0.299841
0.250665
0.209092
0.174032
0.144535
0.119777
0.0990458
0.0817264
0.0672903
0.0552839
0.0453187
0.0370617
0.0302265
0.0245639
0.0198509
0.0158761
0.0124169
0.00920225
0.00584523
0.0017198
-0.00426881
-0.0141151
-0.0315238
-0.0634383
-0.122921
-0.234583
-0.444829
-0.841157
-1.58856
-2.9981
-5.65619
-10.6681
-20.1166
-37.9265
-71.4912
-134.738
-253.895
-478.355
-901.111
-1697.23
-3196.22
-6018.24
-11330.2
-21327.8
-40141.2
300
300
300
300
300
300
300
300
300
300
300
300
300
300
300
300
300
300
300
300
300
300
300
300
300
300
300
300
300
300
300
300
300
300
300
300
300
300
299.999
299.999
299.999
299.999
299.999
299.999
299.998
299.998
299.998
299.997
299.997
299.996
299.995
299.994
299.993
299.992
299.991
299.989
299.987
299.985
299.982
299.98
299.976
299.973
299.968
299.963
299.958
299.951
299.944
299.936
299.927
299.917
299.905
299.892
299.877
299.861
299.842
299.822
299.799
299.774
299.745
299.714
299.679
299.641
299.599
299.552
299.5
299.443
299.381
299.312
299.237
299.154
299.064
298.965
298.857
298.738
298.609
298.468
298.314
298.146
297.963
297.764
297.547
297.311
297.054
296.775
296.471
296.14
295.781
295.39
294.966
294.505
294.004
293.46
292.869
292.228
291.532
290.776
289.957
289.069
288.105
287.062
285.931
284.708
283.385
281.955
280.41
278.743
276.947
275.012
272.931
270.696
268.298
265.731
262.985
260.054
256.932
253.612
250.09
246.36
242.421
238.27
233.908
229.334
224.553
219.568
214.386
209.015
203.464
197.745
191.87
185.855
179.714
173.465
167.127
160.717
154.256
147.763
141.26
134.767
128.304
121.891
115.548
109.295
103.149
97.1286
91.249
85.5258
79.9725
74.6015
69.4236
64.448
59.6822
55.1323
50.8025
46.6956
42.8128
39.1537
35.7167
32.4986
29.4952
26.7011
24.1101
21.7151
19.5081
17.4809
15.6245
13.9298
12.3876
10.9883
9.72263
8.58118
7.55484
6.63473
5.81227
5.07923
4.42777
3.85045
3.34028
2.89072
2.49565
2.14944
1.84686
1.58313
1.35388
1.15512
0.983251
0.835026
0.707519
0.598116
0.504483
0.424549
0.35648
0.298658
0.24966
0.208242
0.173314
0.143931
0.11927
0.098621
0.0813718
0.0669951
0.0550388
0.0451156
0.0368939
0.0300882
0.0244502
0.0197576
0.0157995
0.0123539
0.00915015
0.00580144
0.00168169
-0.00430428
-0.0141519
-0.031568
-0.0634993
-0.123014
-0.234736
-0.445086
-0.841598
-1.58932
-2.99941
-5.65842
-10.6719
-20.1231
-37.9373
-71.5094
-134.768
-253.944
-478.435
-901.238
-1697.42
-3196.52
-6018.67
-11330.8
-21328.5
-40141.6
300
300
300
300
300
300
300
300
300
300
300
300
300
300
300
300
300
300
300
300
300
300
300
300
300
300
300
300
300
300
300
300
300
300
300
300
300
300
299.999
299.999
299.999
299.999
299.999
299.999
299.998
299.998
299.998
299.997
299.996
299.996
299.995
299.994
299.993
299.992
299.99
299.989
299.987
299.984
299.982
299.979
299.975
299.971
299.966
299.961
299.955
299.949
299.941
299.932
299.922
299.911
299.899
299.885
299.869
299.851
299.832
299.81
299.786
299.758
299.728
299.695
299.658
299.617
299.573
299.523
299.469
299.409
299.343
299.271
299.192
299.106
299.011
298.908
298.796
298.673
298.54
298.394
298.236
298.063
297.876
297.672
297.45
297.21
296.949
296.665
296.357
296.023
295.66
295.267
294.84
294.376
293.874
293.329
292.737
292.096
291.401
290.647
289.829
288.944
287.985
286.946
285.821
284.604
283.288
281.867
280.331
278.675
276.889
274.966
272.898
270.676
268.292
265.739
263.008
260.093
256.986
253.681
250.174
246.459
242.534
238.397
234.047
229.486
224.716
219.74
214.567
209.202
203.656
197.941
192.068
186.052
179.91
173.658
167.315
160.899
154.431
147.93
141.417
134.913
128.439
122.015
115.66
109.395
103.237
97.2045
91.3135
85.5792
80.0154
74.6346
69.4475
64.4634
59.69
55.1333
50.7975
46.6854
42.7982
39.1354
35.6954
32.475
29.4699
26.6747
24.0831
21.6878
19.481
17.4542
15.5986
13.9049
12.3638
10.9658
9.70146
8.5614
7.53648
6.61779
5.79673
5.06505
4.41488
3.83881
3.32981
2.88134
2.48729
2.14201
1.84029
1.57734
1.3488
1.15068
0.979382
0.831667
0.704613
0.59561
0.502329
0.422704
0.354904
0.297316
0.248521
0.207278
0.1725
0.143246
0.118695
0.0981403
0.0809706
0.0666611
0.0547616
0.0448861
0.0367044
0.029932
0.0243218
0.0196522
0.015713
0.0122828
0.00909137
0.00575202
0.00163865
-0.00434441
-0.0141937
-0.0316182
-0.0635688
-0.123121
-0.234911
-0.445382
-0.842104
-1.59019
-3.0009
-5.66099
-10.6763
-20.1305
-37.9499
-71.5304
-134.803
-254.002
-478.528
-901.386
-1697.66
-3196.87
-6019.17
-11331.5
-21329.3
-40142.3
300
300
300
300
300
300
300
300
300
300
300
300
300
300
300
300
300
300
300
300
300
300
300
300
300
300
300
300
300
300
300
300
300
300
300
300
300
300
299.999
299.999
299.999
299.999
299.999
299.999
299.998
299.998
299.997
299.997
299.996
299.996
299.995
299.994
299.993
299.991
299.99
299.988
299.986
299.983
299.98
299.977
299.973
299.969
299.964
299.958
299.952
299.945
299.936
299.927
299.916
299.904
299.891
299.875
299.858
299.839
299.818
299.794
299.768
299.739
299.706
299.67
299.631
299.587
299.539
299.486
299.428
299.364
299.294
299.218
299.134
299.043
298.944
298.836
298.718
298.59
298.45
298.299
298.135
297.957
297.763
297.554
297.327
297.081
296.814
296.525
296.212
295.873
295.506
295.109
294.678
294.212
293.707
293.16
292.568
291.926
291.231
290.479
289.664
288.782
287.826
286.793
285.674
284.465
283.157
281.745
280.22
278.575
276.802
274.892
272.838
270.632
268.264
265.727
263.013
260.115
257.025
253.738
250.248
246.551
242.643
238.522
234.187
229.639
224.882
219.918
214.754
209.397
203.858
198.146
192.276
186.261
180.118
173.863
167.515
161.092
154.616
148.106
141.583
135.068
128.582
122.145
115.777
109.499
103.328
97.2828
91.3792
85.6329
80.0577
74.6661
69.4691
64.476
59.6943
55.1303
50.788
46.6704
42.7785
39.1119
35.6688
32.4461
29.4394
26.6431
24.051
21.6557
19.4492
17.4232
15.5685
13.8761
12.3364
10.9399
9.67711
8.53871
7.51546
6.59842
5.77898
5.04887
4.40021
3.82556
3.31791
2.87069
2.47781
2.1336
1.83286
1.5708
1.34306
1.14566
0.975016
0.827879
0.701337
0.592786
0.499904
0.420627
0.353131
0.295807
0.247241
0.206195
0.171587
0.142478
0.118051
0.0976012
0.0805209
0.066287
0.0544512
0.0446292
0.0364923
0.0297573
0.0241782
0.0195343
0.0156163
0.0122034
0.0090257
0.00569681
0.00159055
-0.00438927
-0.0142405
-0.0316746
-0.063647
-0.123241
-0.235108
-0.445715
-0.842675
-1.59117
-3.00259
-5.66389
-10.6812
-20.139
-37.9641
-71.5543
-134.842
-254.067
-478.634
-901.555
-1697.92
-3197.27
-6019.75
-11332.3
-21330.2
-40143.2
300
300
300
300
300
300
300
300
300
300
300
300
300
300
300
300
300
300
300
300
300
300
300
300
300
300
300
300
300
300
300
300
300
300
300
300
300
300
299.999
299.999
299.999
299.999
299.999
299.998
299.998
299.998
299.997
299.997
299.996
299.995
299.994
299.993
299.992
299.991
299.989
299.987
299.985
299.982
299.979
299.975
299.971
299.966
299.961
299.955
299.948
299.94
299.93
299.92
299.908
299.895
299.88
299.863
299.844
299.823
299.8
299.774
299.745
299.713
299.677
299.638
299.595
299.547
299.495
299.438
299.375
299.306
299.231
299.149
299.06
298.963
298.857
298.743
298.618
298.483
298.337
298.178
298.007
297.821
297.621
297.404
297.17
296.917
296.643
296.348
296.028
295.684
295.311
294.909
294.474
294.004
293.496
292.946
292.352
291.71
291.015
290.264
289.452
288.573
287.622
286.594
285.482
284.281
282.983
281.581
280.068
278.436
276.676
274.782
272.744
270.555
268.205
265.687
262.992
260.113
257.044
253.777
250.307
246.629
242.739
238.636
234.319
229.787
225.044
220.094
214.941
209.594
204.062
198.356
192.489
186.476
180.332
174.074
167.721
161.292
154.807
148.288
141.754
135.227
128.728
122.277
115.896
109.604
103.419
97.3599
91.443
85.6839
80.0965
74.6935
69.486
64.4832
59.6929
55.1212
50.7723
46.649
42.7523
39.0818
35.6357
32.4108
29.4025
26.6054
24.0129
21.6178
19.4121
17.387
15.5337
13.8427
12.3047
10.9101
9.64924
8.51278
7.49149
6.57639
5.75883
5.03053
4.3836
3.81059
3.30447
2.85868
2.46712
2.12413
1.8245
1.56345
1.33661
1.14004
0.970122
0.823636
0.697671
0.589629
0.497193
0.418308
0.351152
0.294124
0.245814
0.204988
0.17057
0.141622
0.117334
0.0970016
0.080021
0.0658713
0.0541063
0.0443439
0.0362568
0.0295634
0.0240189
0.0194036
0.0155092
0.0121154
0.00895294
0.00563565
0.00153728
-0.00443897
-0.0142923
-0.031737
-0.0637336
-0.123375
-0.235327
-0.446085
-0.843309
-1.59226
-3.00447
-5.66711
-10.6867
-20.1483
-37.98
-71.5809
-134.887
-254.14
-478.752
-901.744
-1698.22
-3197.72
-6020.42
-11333.2
-21331.4
-40144.3
300
300
300
300
300
300
300
300
300
300
300
300
300
300
300
300
300
300
300
300
300
300
300
300
300
300
300
300
300
300
300
300
300
300
300
300
300
300
299.999
299.999
299.999
299.999
299.999
299.998
299.998
299.998
299.997
299.997
299.996
299.995
299.994
299.993
299.992
299.99
299.988
299.986
299.983
299.98
299.977
299.973
299.968
299.963
299.957
299.95
299.942
299.933
299.923
299.911
299.898
299.883
299.866
299.847
299.826
299.803
299.777
299.748
299.715
299.68
299.64
299.597
299.549
299.497
299.439
299.376
299.307
299.232
299.151
299.062
298.965
298.861
298.747
298.624
298.491
298.348
298.193
298.025
297.845
297.65
297.441
297.215
296.972
296.71
296.428
296.124
295.797
295.445
295.066
294.657
294.217
293.742
293.23
292.677
292.081
291.438
290.743
289.993
289.182
288.307
287.361
286.339
285.235
284.043
282.755
281.365
279.865
278.247
276.503
274.626
272.606
270.436
268.106
265.609
262.936
260.079
257.032
253.788
250.34
246.684
242.816
238.734
234.436
229.923
225.197
220.261
215.121
209.786
204.263
198.564
192.701
186.69
180.545
174.285
167.928
161.492
154.999
148.47
141.924
135.385
128.872
122.408
116.012
109.705
103.506
97.4323
91.5014
85.7288
80.1287
74.7138
69.4953
64.4826
59.6834
55.1038
50.7481
46.6191
42.7177
39.0435
35.5945
32.3675
29.358
26.5604
23.968
21.5734
19.3687
17.345
15.4934
13.8044
12.2685
10.876
9.61745
8.48329
7.46428
6.55142
5.73604
5.00982
4.36488
3.79374
3.28937
2.84521
2.45514
2.11353
1.81515
1.55523
1.32942
1.13376
0.964671
0.818913
0.693594
0.58612
0.494183
0.415733
0.348957
0.292258
0.244233
0.203652
0.169444
0.140676
0.116541
0.096339
0.0794686
0.0654121
0.0537256
0.0440291
0.0359971
0.0293497
0.0238433
0.0192596
0.0153912
0.0120185
0.00887286
0.00556838
0.00147871
-0.00449358
-0.0143492
-0.0318056
-0.0638287
-0.123521
-0.235567
-0.44649
-0.844004
-1.59346
-3.00653
-5.67065
-10.6928
-20.1586
-37.9974
-71.6101
-134.935
-254.22
-478.882
-901.953
-1698.54
-3198.22
-6021.15
-11334.2
-21332.6
-40145.5
300
300
300
300
300
300
300
300
300
300
300
300
300
300
300
300
300
300
300
300
300
300
300
300
300
300
300
300
300
300
300
300
300
300
300
300
300
299.999
299.999
299.999
299.999
299.999
299.999
299.998
299.998
299.997
299.997
299.996
299.996
299.995
299.994
299.992
299.991
299.989
299.987
299.984
299.982
299.978
299.974
299.97
299.965
299.959
299.952
299.944
299.935
299.924
299.913
299.899
299.884
299.867
299.848
299.827
299.803
299.776
299.746
299.714
299.677
299.637
299.592
299.543
299.49
299.431
299.367
299.297
299.221
299.138
299.048
298.95
298.845
298.731
298.607
298.474
298.331
298.177
298.011
297.833
297.641
297.435
297.215
296.978
296.724
296.451
296.159
295.845
295.509
295.148
294.76
294.343
293.896
293.415
292.898
292.341
291.742
291.097
290.402
289.653
288.844
287.973
287.032
286.017
284.921
283.738
282.462
281.084
279.599
277.997
276.271
274.413
272.413
270.264
267.957
265.483
262.834
260.003
256.981
253.761
250.339
246.707
242.864
238.805
234.529
230.037
225.33
220.411
215.287
209.964
204.452
198.761
192.904
186.896
180.752
174.49
168.129
161.687
155.186
148.646
142.089
135.537
129.011
122.532
116.121
109.799
103.584
97.4959
91.5504
85.764
80.1508
74.7237
69.4941
64.4712
59.6631
55.0756
50.7132
46.5786
42.6727
38.995
35.5436
32.3149
29.3046
26.5068
23.9149
21.5215
19.3182
17.2964
15.447
13.7604
12.227
10.8372
9.58133
8.44987
7.43352
6.52326
5.71038
4.98656
4.34388
3.77487
3.27248
2.83016
2.44179
2.10172
1.80474
1.5461
1.32144
1.12681
0.958629
0.813684
0.689082
0.58224
0.490857
0.412891
0.346536
0.290201
0.24249
0.20218
0.168204
0.139635
0.115669
0.0956107
0.0788619
0.064908
0.0533078
0.0436837
0.0357122
0.0291153
0.0236509
0.0191019
0.015262
0.0119125
0.00878525
0.00549481
0.00141471
-0.00455319
-0.0144113
-0.0318802
-0.0639321
-0.12368
-0.235827
-0.446931
-0.84476
-1.59476
-3.00877
-5.6745
-10.6994
-20.1699
-38.0164
-71.642
-134.988
-254.308
-479.025
-902.182
-1698.9
-3198.77
-6021.96
-11335.3
-21334.1
-40147
300
300
300
300
300
300
300
300
300
300
300
300
300
300
300
300
300
300
300
300
300
300
300
300
300
300
300
300
300
300
300
300
300
300
300
300
300
299.999
299.999
299.999
299.999
299.999
299.999
299.998
299.998
299.997
299.997
299.996
299.995
299.994
299.993
299.992
299.99
299.988
299.985
299.983
299.979
299.976
299.971
299.966
299.96
299.953
299.945
299.936
299.925
299.913
299.9
299.884
299.867
299.847
299.825
299.8
299.772
299.742
299.707
299.67
299.628
299.582
299.531
299.475
299.414
299.348
299.275
299.196
299.111
299.018
298.917
298.809
298.692
298.566
298.431
298.285
298.129
297.962
297.782
297.591
297.385
297.166
296.932
296.682
296.414
296.129
295.824
295.498
295.15
294.778
294.38
293.954
293.498
293.01
292.487
291.925
291.322
290.675
289.979
289.23
288.424
287.556
286.62
285.612
284.526
283.354
282.09
280.727
279.258
277.674
275.967
274.13
272.153
270.028
267.746
265.298
262.676
259.872
256.878
253.687
250.293
246.689
242.873
238.84
234.589
230.121
225.435
220.537
215.43
210.122
204.623
198.942
193.092
187.088
180.946
174.683
168.318
161.87
155.361
148.811
142.243
135.678
129.138
122.644
116.218
109.88
103.65
97.5463
91.5861
85.7855
80.1591
74.7198
69.479
64.4461
59.6291
55.034
50.6652
46.5254
42.6154
38.9346
35.4812
32.2514
29.2408
26.4435
23.8527
21.4609
19.2598
17.2404
15.3937
13.71
12.1798
10.7931
9.54044
8.41214
7.39889
6.49162
5.68162
4.96053
4.32043
3.75382
3.25368
2.81342
2.42695
2.08862
1.79322
1.536
1.31261
1.11912
0.951963
0.807919
0.684113
0.577971
0.4872
0.409767
0.343876
0.287943
0.240579
0.200567
0.166846
0.138495
0.114715
0.0948142
0.0781987
0.0643572
0.0528516
0.0433067
0.0354015
0.0288597
0.0234411
0.01893
0.0151212
0.011797
0.00868989
0.00541479
0.00134515
-0.00461789
-0.0144785
-0.031961
-0.0640438
-0.123852
-0.236108
-0.447406
-0.845574
-1.59616
-3.01119
-5.67865
-10.7065
-20.1819
-38.0368
-71.6763
-135.046
-254.402
-479.179
-902.429
-1699.29
-3199.36
-6022.84
-11336.6
-21335.6
-40148.6
300
300
300
300
300
300
300
300
300
300
300
300
300
300
300
300
300
300
300
300
300
300
300
300
300
300
300
300
300
300
300
300
300
300
300
300
300
299.999
299.999
299.999
299.999
299.999
299.998
299.998
299.998
299.997
299.996
299.996
299.995
299.994
299.992
299.991
299.989
299.986
299.984
299.98
299.976
299.972
299.967
299.961
299.954
299.945
299.936
299.925
299.913
299.899
299.883
299.864
299.844
299.821
299.795
299.766
299.733
299.697
299.657
299.613
299.564
299.511
299.452
299.387
299.317
299.241
299.158
299.068
298.97
298.865
298.752
298.63
298.499
298.358
298.208
298.047
297.875
297.692
297.496
297.288
297.066
296.83
296.58
296.313
296.03
295.729
295.409
295.068
294.706
294.321
293.911
293.474
293.008
292.511
291.98
291.412
290.805
290.154
289.457
288.708
287.905
287.041
286.111
285.111
284.035
282.875
281.625
280.278
278.826
277.262
275.578
273.764
271.812
269.713
267.459
265.041
262.449
259.676
256.713
253.553
250.19
246.618
242.832
238.829
234.606
230.164
225.503
220.627
215.54
210.25
204.765
199.096
193.255
187.257
181.118
174.855
168.487
162.035
155.518
148.959
142.379
135.801
129.247
122.738
116.297
109.944
103.698
97.5789
91.6039
85.7893
80.1498
74.6984
69.4465
64.4039
59.5785
54.9762
50.6015
46.4569
42.5434
38.8603
35.4055
32.1754
29.1652
26.3691
23.7801
21.3907
19.1923
17.1761
15.3328
13.6528
12.1262
10.7433
9.49435
8.36972
7.36004
6.45621
5.64949
4.93151
4.29432
3.73044
3.23282
2.79489
2.41055
2.07415
1.7805
1.52487
1.3029
1.11068
0.944639
0.801592
0.678664
0.573292
0.483195
0.40635
0.340969
0.285477
0.238493
0.198807
0.165366
0.137253
0.113676
0.0939471
0.0774771
0.0637582
0.0523555
0.042897
0.0350639
0.0285822
0.0232134
0.0187435
0.0149685
0.0116718
0.00858656
0.00532815
0.00126992
-0.00468775