/*--------------------------------*- C++ -*----------------------------------*\
| =========                 |                                                 |
| \\      /  F ield         | OpenFOAM: The Open Source CFD Toolbox           |
|  \\    /   O peration     | Version:  2306                                  |
|   \\  /    A nd           | Website:  www.openfoam.com                      |
|    \\/     M anipulation  |                                                 |
\*---------------------------------------------------------------------------*/
FoamFile
{
    version     2.0;
    format      ascii;
    arch        "LSB;label=32;scalar=64";
    class       volVectorField;
    location    "4";
    object      U;
}
// * * * * * * * * * * * * * * * * * * * * * * * * * * * * * * * * * * * * * //

dimensions      [0 1 -1 0 0 0 0];

internalField   nonuniform List<vector> 
32768
(
(1.00001 -4.02703e-05 0)
(1.00017 -0.000120998 0)
(1.00048 -0.000201857 0)
(1.00097 -0.00028285 0)
(1.00162 -0.000364079 0)
(1.00243 -0.000445641 0)
(1.0034 -0.000527597 0)
(1.00454 -0.000610003 0)
(1.00584 -0.000692916 0)
(1.00731 -0.000776397 0)
(1.00895 -0.000860499 0)
(1.01075 -0.000945269 0)
(1.01273 -0.00103075 0)
(1.01488 -0.00111696 0)
(1.0172 -0.00120394 0)
(1.01969 -0.0012917 0)
(1.02236 -0.00138025 0)
(1.02521 -0.00146958 0)
(1.02824 -0.00155968 0)
(1.03145 -0.00165052 0)
(1.03485 -0.00174207 0)
(1.03842 -0.00183427 0)
(1.04218 -0.00192705 0)
(1.04613 -0.00202035 0)
(1.05027 -0.00211406 0)
(1.05459 -0.00220808 0)
(1.0591 -0.00230229 0)
(1.0638 -0.00239654 0)
(1.06869 -0.00249069 0)
(1.07376 -0.00258457 0)
(1.07903 -0.00267799 0)
(1.08448 -0.00277076 0)
(1.09011 -0.00286267 0)
(1.09593 -0.0029535 0)
(1.10193 -0.003043 0)
(1.1081 -0.00313093 0)
(1.11445 -0.00321704 0)
(1.12097 -0.00330107 0)
(1.12766 -0.00338274 0)
(1.13451 -0.0034618 0)
(1.14151 -0.00353795 0)
(1.14866 -0.00361093 0)
(1.15596 -0.00368048 0)
(1.16339 -0.00374632 0)
(1.17095 -0.00380819 0)
(1.17862 -0.00386587 0)
(1.18641 -0.0039191 0)
(1.19431 -0.00396767 0)
(1.20229 -0.00401137 0)
(1.21036 -0.00405004 0)
(1.21849 -0.00408349 0)
(1.22669 -0.00411158 0)
(1.23495 -0.00413421 0)
(1.24324 -0.00415126 0)
(1.25156 -0.00416267 0)
(1.25989 -0.00416839 0)
(1.26824 -0.00416839 0)
(1.27657 -0.00416267 0)
(1.28489 -0.00415125 0)
(1.29318 -0.00413416 0)
(1.30143 -0.00411147 0)
(1.30963 -0.00408326 0)
(1.31777 -0.0040496 0)
(1.32584 -0.00401062 0)
(1.33382 -0.00396642 0)
(1.34171 -0.00391714 0)
(1.34949 -0.0038629 0)
(1.35716 -0.00380385 0)
(1.36471 -0.00374013 0)
(1.37213 -0.00367187 0)
(1.3794 -0.00359923 0)
(1.38653 -0.00352233 0)
(1.3935 -0.00344132 0)
(1.4003 -0.00335632 0)
(1.40692 -0.00326745 0)
(1.41337 -0.00317484 0)
(1.41963 -0.00307858 0)
(1.42569 -0.00297878 0)
(1.43154 -0.00287553 0)
(1.43719 -0.0027689 0)
(1.44262 -0.00265899 0)
(1.44783 -0.00254585 0)
(1.45281 -0.00242955 0)
(1.45755 -0.00231016 0)
(1.46205 -0.00218773 0)
(1.4663 -0.00206231 0)
(1.4703 -0.00193397 0)
(1.47404 -0.00180276 0)
(1.47751 -0.00166875 0)
(1.48071 -0.00153202 0)
(1.48364 -0.00139263 0)
(1.48629 -0.00125068 0)
(1.48864 -0.00110626 0)
(1.49071 -0.000959492 0)
(1.49248 -0.000810499 0)
(1.49395 -0.000659422 0)
(1.49512 -0.000506418 0)
(1.49598 -0.00035166 0)
(1.49653 -0.00019534 0)
(1.49676 -3.76627e-05 0)
(1.49668 0.000121137 0)
(1.49628 0.000280821 0)
(1.49555 0.000441137 0)
(1.49451 0.000601812 0)
(1.49315 0.000762559 0)
(1.49146 0.000923078 0)
(1.48945 0.00108306 0)
(1.48712 0.00124219 0)
(1.48448 0.00140013 0)
(1.48152 0.00155656 0)
(1.47825 0.00171113 0)
(1.47467 0.00186351 0)
(1.47079 0.00201336 0)
(1.46662 0.00216034 0)
(1.46215 0.00230412 0)
(1.45739 0.00244437 0)
(1.45237 0.00258078 0)
(1.44707 0.00271302 0)
(1.44151 0.00284081 0)
(1.4357 0.00296385 0)
(1.42965 0.00308187 0)
(1.42336 0.00319463 0)
(1.41686 0.00330187 0)
(1.41015 0.00340337 0)
(1.40324 0.00349893 0)
(1.39615 0.00358837 0)
(1.38888 0.00367151 0)
(1.38145 0.0037482 0)
(1.37388 0.0038183 0)
(1.36617 0.00388169 0)
(1.35835 0.00393824 0)
(1.35041 0.00398783 0)
(1.34239 0.00403035 0)
(1.33428 0.00406567 0)
(1.32612 0.00409365 0)
(1.3179 0.00411415 0)
(1.30965 0.00412698 0)
(1.30139 0.00413198 0)
(1.29312 0.00412893 0)
(1.28486 0.00411766 0)
(1.27664 0.00409798 0)
(1.26847 0.00406976 0)
(1.26035 0.00403292 0)
(1.25233 0.00398745 0)
(1.2444 0.00393347 0)
(1.23659 0.00387122 0)
(1.22891 0.00380111 0)
(1.22138 0.00372368 0)
(1.21401 0.00363966 0)
(1.20681 0.00354989 0)
(1.1998 0.00345539 0)
(1.19299 0.00335724 0)
(1.18637 0.00325658 0)
(1.17996 0.0031546 0)
(1.17375 0.00305242 0)
(1.16774 0.00295111 0)
(1.16194 0.00285161 0)
(1.15633 0.00275474 0)
(1.15092 0.00266115 0)
(1.14569 0.00257129 0)
(1.14063 0.00248547 0)
(1.13574 0.00240381 0)
(1.13101 0.00232631 0)
(1.12643 0.00225282 0)
(1.122 0.00218311 0)
(1.1177 0.00211688 0)
(1.11353 0.00205377 0)
(1.10949 0.00199344 0)
(1.10556 0.00193552 0)
(1.10174 0.00187967 0)
(1.09804 0.00182559 0)
(1.09444 0.001773 0)
(1.09095 0.0017217 0)
(1.08755 0.0016715 0)
(1.08426 0.00162225 0)
(1.08107 0.00157386 0)
(1.07797 0.00152626 0)
(1.07496 0.0014794 0)
(1.07205 0.00143328 0)
(1.06923 0.00138787 0)
(1.0665 0.0013432 0)
(1.06386 0.00129928 0)
(1.0613 0.00125614 0)
(1.05883 0.0012138 0)
(1.05645 0.00117229 0)
(1.05415 0.00113164 0)
(1.05192 0.00109186 0)
(1.04978 0.00105299 0)
(1.04771 0.00101504 0)
(1.04572 0.000978029 0)
(1.0438 0.000941965 0)
(1.04195 0.000906858 0)
(1.04018 0.000872716 0)
(1.03846 0.00083954 0)
(1.03682 0.000807331 0)
(1.03524 0.000776085 0)
(1.03372 0.000745797 0)
(1.03225 0.000716459 0)
(1.03085 0.000688063 0)
(1.0295 0.000660596 0)
(1.02821 0.000634045 0)
(1.02697 0.000608397 0)
(1.02578 0.000583636 0)
(1.02463 0.000559744 0)
(1.02354 0.000536704 0)
(1.02249 0.000514498 0)
(1.02148 0.000493107 0)
(1.02052 0.000472512 0)
(1.01959 0.000452691 0)
(1.01871 0.000433625 0)
(1.01786 0.000415294 0)
(1.01705 0.000397677 0)
(1.01627 0.000380753 0)
(1.01552 0.000364501 0)
(1.01481 0.000348902 0)
(1.01413 0.000333935 0)
(1.01348 0.000319579 0)
(1.01285 0.000305815 0)
(1.01225 0.000292624 0)
(1.01168 0.000279985 0)
(1.01113 0.000267881 0)
(1.01061 0.000256293 0)
(1.01011 0.000245203 0)
(1.00963 0.000234593 0)
(1.00917 0.000224446 0)
(1.00873 0.000214745 0)
(1.00831 0.000205475 0)
(1.00791 0.00019662 0)
(1.00753 0.000188164 0)
(1.00716 0.000180093 0)
(1.00681 0.000172392 0)
(1.00647 0.000165049 0)
(1.00615 0.000158049 0)
(1.00584 0.000151381 0)
(1.00554 0.000145032 0)
(1.00526 0.000138989 0)
(1.00499 0.000133243 0)
(1.00473 0.000127782 0)
(1.00448 0.000122596 0)
(1.00424 0.000117675 0)
(1.00401 0.000113009 0)
(1.00378 0.000108589 0)
(1.00357 0.000104408 0)
(1.00337 0.000100456 0)
(1.00317 9.67254e-05 0)
(1.00298 9.32098e-05 0)
(1.0028 8.99013e-05 0)
(1.00262 8.67941e-05 0)
(1.00245 8.38802e-05 0)
(1.00229 8.1157e-05 0)
(1.00213 7.86123e-05 0)
(1.00197 7.6251e-05 0)
(1.00182 7.40544e-05 0)
(1.00167 7.20029e-05 0)
(1.00155 7.02413e-05 0)
(1.00133 6.80326e-05 0)
(1.00001 -0.000120986 0)
(1.00017 -0.000363215 0)
(1.00048 -0.000605752 0)
(1.00097 -0.000848728 0)
(1.00162 -0.00109241 0)
(1.00243 -0.00133707 0)
(1.0034 -0.00158289 0)
(1.00453 -0.00183006 0)
(1.00584 -0.00207876 0)
(1.0073 -0.00232917 0)
(1.00894 -0.00258145 0)
(1.01075 -0.00283574 0)
(1.01272 -0.00309216 0)
(1.01487 -0.0033508 0)
(1.01719 -0.00361174 0)
(1.01968 -0.00387504 0)
(1.02235 -0.0041407 0)
(1.0252 -0.00440872 0)
(1.02823 -0.00467906 0)
(1.03144 -0.00495163 0)
(1.03483 -0.00522633 0)
(1.0384 -0.005503 0)
(1.04216 -0.00578144 0)
(1.04611 -0.00606142 0)
(1.05025 -0.00634267 0)
(1.05457 -0.00662486 0)
(1.05908 -0.00690761 0)
(1.06378 -0.00719053 0)
(1.06867 -0.00747315 0)
(1.07375 -0.00775496 0)
(1.07901 -0.00803541 0)
(1.08446 -0.00831392 0)
(1.0901 -0.00858986 0)
(1.09592 -0.00886254 0)
(1.10192 -0.00913127 0)
(1.1081 -0.0093953 0)
(1.11446 -0.00965387 0)
(1.12098 -0.00990619 0)
(1.12768 -0.0101515 0)
(1.13453 -0.0103889 0)
(1.14154 -0.0106175 0)
(1.1487 -0.0108367 0)
(1.156 -0.0110456 0)
(1.16344 -0.0112433 0)
(1.17101 -0.0114292 0)
(1.1787 -0.0116024 0)
(1.1865 -0.0117622 0)
(1.1944 -0.0119081 0)
(1.2024 -0.0120394 0)
(1.21047 -0.0121555 0)
(1.21862 -0.0122559 0)
(1.22684 -0.0123403 0)
(1.2351 -0.0124082 0)
(1.2434 -0.0124594 0)
(1.25174 -0.0124936 0)
(1.26008 -0.0125108 0)
(1.26844 -0.0125107 0)
(1.27679 -0.0124935 0)
(1.28512 -0.0124592 0)
(1.29342 -0.0124078 0)
(1.30169 -0.0123396 0)
(1.3099 -0.0122549 0)
(1.31805 -0.0121538 0)
(1.32613 -0.0120367 0)
(1.33412 -0.0119039 0)
(1.34202 -0.0117559 0)
(1.34981 -0.011593 0)
(1.3575 -0.0114157 0)
(1.36505 -0.0112244 0)
(1.37248 -0.0110194 0)
(1.37976 -0.0108013 0)
(1.3869 -0.0105705 0)
(1.39388 -0.0103273 0)
(1.40069 -0.0100721 0)
(1.40732 -0.00980539 0)
(1.41377 -0.00952741 0)
(1.42004 -0.00923851 0)
(1.42611 -0.00893898 0)
(1.43197 -0.00862911 0)
(1.43763 -0.00830913 0)
(1.44306 -0.00797928 0)
(1.44828 -0.00763976 0)
(1.45326 -0.00729078 0)
(1.45801 -0.0069325 0)
(1.46252 -0.00656511 0)
(1.46678 -0.00618877 0)
(1.47078 -0.00580365 0)
(1.47452 -0.00540993 0)
(1.478 -0.0050078 0)
(1.48121 -0.00459747 0)
(1.48414 -0.00417919 0)
(1.48679 -0.0037532 0)
(1.48916 -0.00331981 0)
(1.49123 -0.00287935 0)
(1.493 -0.0024322 0)
(1.49448 -0.00197879 0)
(1.49565 -0.00151958 0)
(1.49651 -0.0010551 0)
(1.49706 -0.000585914 0)
(1.49729 -0.00011265 0)
(1.49721 0.000364004 0)
(1.49681 0.000843329 0)
(1.49609 0.00132456 0)
(1.49504 0.00180687 0)
(1.49368 0.00228941 0)
(1.49199 0.00277128 0)
(1.48998 0.00325154 0)
(1.48765 0.00372923 0)
(1.485 0.00420338 0)
(1.48204 0.00467298 0)
(1.47876 0.00513702 0)
(1.47518 0.00559448 0)
(1.47129 0.00604435 0)
(1.46711 0.0064856 0)
(1.46263 0.00691723 0)
(1.45787 0.00733827 0)
(1.45283 0.00774775 0)
(1.44752 0.00814474 0)
(1.44195 0.00852835 0)
(1.43613 0.0088977 0)
(1.43007 0.00925198 0)
(1.42377 0.00959043 0)
(1.41726 0.00991232 0)
(1.41053 0.010217 0)
(1.40361 0.0105038 0)
(1.3965 0.0107722 0)
(1.38922 0.0110217 0)
(1.38178 0.0112518 0)
(1.37419 0.0114622 0)
(1.36647 0.0116523 0)
(1.35863 0.0118219 0)
(1.35068 0.0119707 0)
(1.34264 0.0120982 0)
(1.33452 0.0122041 0)
(1.32634 0.0122879 0)
(1.31811 0.0123493 0)
(1.30985 0.0123877 0)
(1.30156 0.0124025 0)
(1.29328 0.0123933 0)
(1.28501 0.0123593 0)
(1.27678 0.0123002 0)
(1.26859 0.0122154 0)
(1.26047 0.0121047 0)
(1.25242 0.0119681 0)
(1.24448 0.0118061 0)
(1.23666 0.0116192 0)
(1.22897 0.0114087 0)
(1.22143 0.0111763 0)
(1.21404 0.0109241 0)
(1.20684 0.0106546 0)
(1.19982 0.0103709 0)
(1.19299 0.0100762 0)
(1.18636 0.00977402 0)
(1.17994 0.00946782 0)
(1.17372 0.00916102 0)
(1.16771 0.00885681 0)
(1.1619 0.00855805 0)
(1.15628 0.00826716 0)
(1.15086 0.00798608 0)
(1.14562 0.00771623 0)
(1.14056 0.00745849 0)
(1.13567 0.00721326 0)
(1.13094 0.0069805 0)
(1.12635 0.00675979 0)
(1.12192 0.00655044 0)
(1.11762 0.00635153 0)
(1.11344 0.00616203 0)
(1.1094 0.00598085 0)
(1.10547 0.00580691 0)
(1.10165 0.00563921 0)
(1.09795 0.00547683 0)
(1.09435 0.00531896 0)
(1.09085 0.00516494 0)
(1.08746 0.00501422 0)
(1.08417 0.00486638 0)
(1.08097 0.00472112 0)
(1.07787 0.00457824 0)
(1.07487 0.0044376 0)
(1.07196 0.00429915 0)
(1.06914 0.00416288 0)
(1.06641 0.00402882 0)
(1.06377 0.00389702 0)
(1.06122 0.00376756 0)
(1.05875 0.0036405 0)
(1.05637 0.00351594 0)
(1.05407 0.00339396 0)
(1.05184 0.00327461 0)
(1.0497 0.00315798 0)
(1.04764 0.00304412 0)
(1.04565 0.00293307 0)
(1.04373 0.00282488 0)
(1.04188 0.00271956 0)
(1.04011 0.00261713 0)
(1.0384 0.00251761 0)
(1.03675 0.00242099 0)
(1.03517 0.00232726 0)
(1.03366 0.00223641 0)
(1.0322 0.00214841 0)
(1.03079 0.00206323 0)
(1.02945 0.00198085 0)
(1.02816 0.00190122 0)
(1.02692 0.00182429 0)
(1.02573 0.00175003 0)
(1.02459 0.00167837 0)
(1.02349 0.00160927 0)
(1.02244 0.00154268 0)
(1.02144 0.00147852 0)
(1.02048 0.00141676 0)
(1.01955 0.00135732 0)
(1.01867 0.00130014 0)
(1.01782 0.00124517 0)
(1.01701 0.00119234 0)
(1.01624 0.00114159 0)
(1.01549 0.00109286 0)
(1.01478 0.00104608 0)
(1.0141 0.0010012 0)
(1.01345 0.000958152 0)
(1.01282 0.000916881 0)
(1.01223 0.000877326 0)
(1.01166 0.000839431 0)
(1.01111 0.000803137 0)
(1.01059 0.000768391 0)
(1.01009 0.000735138 0)
(1.00961 0.000703325 0)
(1.00915 0.0006729 0)
(1.00871 0.000643815 0)
(1.0083 0.000616021 0)
(1.00789 0.00058947 0)
(1.00751 0.000564117 0)
(1.00714 0.000539918 0)
(1.00679 0.00051683 0)
(1.00646 0.000494814 0)
(1.00613 0.000473828 0)
(1.00583 0.000453835 0)
(1.00553 0.000434799 0)
(1.00525 0.000416683 0)
(1.00498 0.000399455 0)
(1.00472 0.000383083 0)
(1.00447 0.000367534 0)
(1.00423 0.000352779 0)
(1.004 0.000338791 0)
(1.00378 0.000325541 0)
(1.00356 0.000313005 0)
(1.00336 0.000301157 0)
(1.00316 0.000289974 0)
(1.00297 0.000279434 0)
(1.00279 0.000269515 0)
(1.00261 0.000260199 0)
(1.00244 0.000251466 0)
(1.00228 0.000243298 0)
(1.00212 0.000235679 0)
(1.00197 0.00022858 0)
(1.00182 0.000222051 0)
(1.00166 0.000215807 0)
(1.00155 0.000210785 0)
(1.00133 0.000203836 0)
(1.00001 -0.000201732 0)
(1.00017 -0.000605317 0)
(1.00048 -0.00100933 0)
(1.00097 -0.00141414 0)
(1.00161 -0.00182015 0)
(1.00242 -0.00222773 0)
(1.00339 -0.00263726 0)
(1.00453 -0.00304904 0)
(1.00583 -0.0034634 0)
(1.00729 -0.00388062 0)
(1.00893 -0.00430097 0)
(1.01073 -0.00472469 0)
(1.0127 -0.00515199 0)
(1.01485 -0.00558302 0)
(1.01716 -0.00601792 0)
(1.01965 -0.00645677 0)
(1.02232 -0.0068996 0)
(1.02517 -0.0073464 0)
(1.0282 -0.0077971 0)
(1.0314 -0.00825156 0)
(1.03479 -0.00870961 0)
(1.03837 -0.00917098 0)
(1.04213 -0.00963536 0)
(1.04607 -0.0101024 0)
(1.05021 -0.0105715 0)
(1.05453 -0.0110423 0)
(1.05904 -0.011514 0)
(1.06374 -0.0119861 0)
(1.06863 -0.0124578 0)
(1.07371 -0.0129281 0)
(1.07898 -0.0133962 0)
(1.08444 -0.0138611 0)
(1.09008 -0.0143218 0)
(1.09591 -0.0147771 0)
(1.10192 -0.0152258 0)
(1.10811 -0.0156668 0)
(1.11447 -0.0160986 0)
(1.12101 -0.0165201 0)
(1.12771 -0.0169298 0)
(1.13458 -0.0173264 0)
(1.1416 -0.0177085 0)
(1.14878 -0.0180747 0)
(1.1561 -0.0184237 0)
(1.16356 -0.0187541 0)
(1.17114 -0.0190647 0)
(1.17885 -0.0193541 0)
(1.18667 -0.0196213 0)
(1.19459 -0.0198651 0)
(1.20261 -0.0200845 0)
(1.21071 -0.0202785 0)
(1.21888 -0.0204464 0)
(1.22712 -0.0205874 0)
(1.23541 -0.0207009 0)
(1.24374 -0.0207864 0)
(1.25209 -0.0208436 0)
(1.26047 -0.0208722 0)
(1.26885 -0.0208721 0)
(1.27722 -0.0208434 0)
(1.28558 -0.0207859 0)
(1.29391 -0.0207001 0)
(1.30219 -0.0205862 0)
(1.31043 -0.0204445 0)
(1.3186 -0.0202756 0)
(1.3267 -0.02008 0)
(1.33472 -0.0198583 0)
(1.34264 -0.0196111 0)
(1.35046 -0.0193391 0)
(1.35816 -0.019043 0)
(1.36574 -0.0187236 0)
(1.37319 -0.0183815 0)
(1.38049 -0.0180174 0)
(1.38764 -0.0176321 0)
(1.39464 -0.0172263 0)
(1.40146 -0.0168005 0)
(1.40812 -0.0163555 0)
(1.41459 -0.0158918 0)
(1.42087 -0.0154098 0)
(1.42695 -0.0149102 0)
(1.43283 -0.0143934 0)
(1.4385 -0.0138597 0)
(1.44395 -0.0133096 0)
(1.44918 -0.0127434 0)
(1.45417 -0.0121615 0)
(1.45893 -0.0115641 0)
(1.46345 -0.0109514 0)
(1.46772 -0.0103239 0)
(1.47174 -0.0096817 0)
(1.4755 -0.00902517 0)
(1.47899 -0.0083546 0)
(1.4822 -0.00767035 0)
(1.48515 -0.00697279 0)
(1.48781 -0.00626235 0)
(1.49018 -0.00553954 0)
(1.49226 -0.00480491 0)
(1.49404 -0.00405907 0)
(1.49552 -0.00330274 0)
(1.4967 -0.00253669 0)
(1.49757 -0.00176181 0)
(1.49812 -0.000979029 0)
(1.49836 -0.000189406 0)
(1.49828 0.000605934 0)
(1.49788 0.00140578 0)
(1.49716 0.00220885 0)
(1.49611 0.00301377 0)
(1.49474 0.00381909 0)
(1.49305 0.00462333 0)
(1.49104 0.00542493 0)
(1.4887 0.00622227 0)
(1.48604 0.00701371 0)
(1.48307 0.00779758 0)
(1.47979 0.00857218 0)
(1.47619 0.00933582 0)
(1.47229 0.0100868 0)
(1.46809 0.0108234 0)
(1.4636 0.0115439 0)
(1.45882 0.0122467 0)
(1.45376 0.0129303 0)
(1.44843 0.0135929 0)
(1.44284 0.0142333 0)
(1.43699 0.0148498 0)
(1.43091 0.0154411 0)
(1.42459 0.0160059 0)
(1.41804 0.0165431 0)
(1.41129 0.0170515 0)
(1.40434 0.0175301 0)
(1.39721 0.0179779 0)
(1.3899 0.0183942 0)
(1.38243 0.018778 0)
(1.37481 0.0191288 0)
(1.36706 0.0194458 0)
(1.35919 0.0197286 0)
(1.35121 0.0199764 0)
(1.34314 0.0201888 0)
(1.33499 0.0203651 0)
(1.32678 0.0205046 0)
(1.31852 0.0206066 0)
(1.31023 0.0206703 0)
(1.30192 0.0206947 0)
(1.29361 0.0206788 0)
(1.28531 0.0206219 0)
(1.27705 0.0205229 0)
(1.26883 0.0203811 0)
(1.26069 0.0201963 0)
(1.25262 0.0199683 0)
(1.24465 0.0196978 0)
(1.2368 0.019386 0)
(1.22909 0.0190347 0)
(1.22152 0.0186469 0)
(1.21412 0.0182259 0)
(1.20689 0.0177763 0)
(1.19985 0.0173028 0)
(1.193 0.0168109 0)
(1.18635 0.0163065 0)
(1.17991 0.0157953 0)
(1.17367 0.015283 0)
(1.16764 0.014775 0)
(1.16181 0.014276 0)
(1.15619 0.0137902 0)
(1.15075 0.0133206 0)
(1.1455 0.0128698 0)
(1.14043 0.0124393 0)
(1.13553 0.0120296 0)
(1.13078 0.0116407 0)
(1.12619 0.011272 0)
(1.12175 0.0109222 0)
(1.11744 0.0105899 0)
(1.11327 0.0102734 0)
(1.10921 0.00997072 0)
(1.10528 0.00968021 0)
(1.10146 0.00940015 0)
(1.09776 0.00912898 0)
(1.09416 0.00886539 0)
(1.09066 0.00860824 0)
(1.08727 0.00835664 0)
(1.08398 0.00810987 0)
(1.08078 0.00786744 0)
(1.07769 0.00762899 0)
(1.07468 0.00739431 0)
(1.07178 0.00716331 0)
(1.06896 0.00693596 0)
(1.06623 0.00671232 0)
(1.0636 0.00649247 0)
(1.06104 0.00627653 0)
(1.05858 0.00606464 0)
(1.0562 0.00585691 0)
(1.0539 0.0056535 0)
(1.05169 0.00545451 0)
(1.04955 0.00526006 0)
(1.04749 0.00507023 0)
(1.0455 0.00488511 0)
(1.04359 0.00470475 0)
(1.04174 0.0045292 0)
(1.03997 0.00435849 0)
(1.03827 0.00419262 0)
(1.03663 0.0040316 0)
(1.03505 0.00387541 0)
(1.03354 0.00372402 0)
(1.03208 0.00357739 0)
(1.03068 0.00343548 0)
(1.02934 0.00329822 0)
(1.02805 0.00316555 0)
(1.02682 0.0030374 0)
(1.02563 0.00291368 0)
(1.02449 0.00279432 0)
(1.0234 0.00267922 0)
(1.02236 0.0025683 0)
(1.02136 0.00246145 0)
(1.0204 0.00235858 0)
(1.01948 0.00225958 0)
(1.01859 0.00216436 0)
(1.01775 0.00207282 0)
(1.01694 0.00198484 0)
(1.01617 0.00190033 0)
(1.01543 0.00181918 0)
(1.01472 0.00174129 0)
(1.01404 0.00166656 0)
(1.01339 0.00159488 0)
(1.01277 0.00152617 0)
(1.01218 0.00146031 0)
(1.01161 0.00139722 0)
(1.01106 0.00133679 0)
(1.01054 0.00127894 0)
(1.01005 0.00122358 0)
(1.00957 0.00117062 0)
(1.00911 0.00111997 0)
(1.00868 0.00107155 0)
(1.00826 0.00102528 0)
(1.00786 0.000981082 0)
(1.00748 0.000938877 0)
(1.00711 0.000898595 0)
(1.00676 0.000860164 0)
(1.00643 0.000823515 0)
(1.00611 0.000788582 0)
(1.0058 0.000755303 0)
(1.00551 0.000723616 0)
(1.00522 0.000693463 0)
(1.00495 0.000664787 0)
(1.00469 0.000637535 0)
(1.00445 0.000611655 0)
(1.00421 0.000587097 0)
(1.00398 0.000563814 0)
(1.00376 0.000541761 0)
(1.00355 0.000520895 0)
(1.00334 0.000501175 0)
(1.00315 0.000482563 0)
(1.00296 0.000465021 0)
(1.00278 0.000448514 0)
(1.0026 0.000433008 0)
(1.00243 0.000418475 0)
(1.00227 0.000404876 0)
(1.00211 0.000392211 0)
(1.00196 0.00038037 0)
(1.00181 0.000369574 0)
(1.00165 0.000359078 0)
(1.00154 0.000351005 0)
(1.00132 0.000339066 0)
(1.00001 -0.00028221 0)
(1.00017 -0.000846752 0)
(1.00048 -0.0014119 0)
(1.00096 -0.00197821 0)
(1.00161 -0.00254621 0)
(1.00242 -0.00311644 0)
(1.00338 -0.00368939 0)
(1.00452 -0.00426553 0)
(1.00581 -0.00484531 0)
(1.00728 -0.00542914 0)
(1.00891 -0.0060174 0)
(1.01071 -0.00661042 0)
(1.01268 -0.00720849 0)
(1.01482 -0.00781186 0)
(1.01713 -0.00842069 0)
(1.01962 -0.00903512 0)
(1.02228 -0.0096552 0)
(1.02512 -0.0102809 0)
(1.02815 -0.0109122 0)
(1.03135 -0.0115488 0)
(1.03474 -0.0121905 0)
(1.03831 -0.012837 0)
(1.04207 -0.0134877 0)
(1.04601 -0.0141423 0)
(1.05014 -0.0147999 0)
(1.05447 -0.01546 0)
(1.05898 -0.0161215 0)
(1.06368 -0.0167836 0)
(1.06858 -0.0174451 0)
(1.07366 -0.018105 0)
(1.07894 -0.0187618 0)
(1.0844 -0.0194143 0)
(1.09005 -0.0200609 0)
(1.09589 -0.0207001 0)
(1.10191 -0.0213301 0)
(1.10811 -0.0219493 0)
(1.11449 -0.0225558 0)
(1.12104 -0.0231478 0)
(1.12776 -0.0237234 0)
(1.13465 -0.0242806 0)
(1.1417 -0.0248175 0)
(1.14889 -0.0253322 0)
(1.15624 -0.0258227 0)
(1.16372 -0.0262871 0)
(1.17133 -0.0267237 0)
(1.17907 -0.0271307 0)
(1.18692 -0.0275063 0)
(1.19488 -0.0278491 0)
(1.20293 -0.0281575 0)
(1.21106 -0.0284303 0)
(1.21927 -0.0286664 0)
(1.22754 -0.0288646 0)
(1.23587 -0.0290242 0)
(1.24423 -0.0291445 0)
(1.25263 -0.0292249 0)
(1.26104 -0.0292652 0)
(1.26946 -0.0292651 0)
(1.27787 -0.0292246 0)
(1.28627 -0.0291439 0)
(1.29463 -0.0290233 0)
(1.30296 -0.0288633 0)
(1.31123 -0.0286642 0)
(1.31944 -0.028427 0)
(1.32757 -0.0281522 0)
(1.33562 -0.0278409 0)
(1.34358 -0.0274938 0)
(1.35143 -0.0271119 0)
(1.35916 -0.0266963 0)
(1.36677 -0.026248 0)
(1.37425 -0.0257679 0)
(1.38158 -0.0252572 0)
(1.38876 -0.0247167 0)
(1.39578 -0.0241475 0)
(1.40263 -0.0235505 0)
(1.40931 -0.0229265 0)
(1.4158 -0.0222763 0)
(1.42211 -0.0216008 0)
(1.42821 -0.0209005 0)
(1.43411 -0.0201762 0)
(1.4398 -0.0194283 0)
(1.44528 -0.0186575 0)
(1.45052 -0.0178642 0)
(1.45554 -0.0170489 0)
(1.46032 -0.0162119 0)
(1.46486 -0.0153536 0)
(1.46915 -0.0144744 0)
(1.47318 -0.0135747 0)
(1.47695 -0.0126549 0)
(1.48046 -0.0117154 0)
(1.4837 -0.0107567 0)
(1.48665 -0.00977927 0)
(1.48933 -0.00878375 0)
(1.49171 -0.00777081 0)
(1.4938 -0.00674121 0)
(1.4956 -0.00569582 0)
(1.49709 -0.00463564 0)
(1.49828 -0.00356173 0)
(1.49915 -0.00247533 0)
(1.49971 -0.00137777 0)
(1.49996 -0.000270499 0)
(1.49988 0.000844884 0)
(1.49949 0.00196668 0)
(1.49876 0.00309309 0)
(1.49772 0.00422219 0)
(1.49635 0.00535195 0)
(1.49465 0.00648025 0)
(1.49263 0.00760491 0)
(1.49028 0.00872367 0)
(1.48761 0.0098342 0)
(1.48462 0.0109342 0)
(1.48132 0.0120211 0)
(1.47771 0.0130928 0)
(1.47379 0.0141466 0)
(1.46956 0.0151803 0)
(1.46505 0.0161915 0)
(1.46024 0.0171778 0)
(1.45515 0.018137 0)
(1.44979 0.019067 0)
(1.44417 0.0199655 0)
(1.43829 0.0208305 0)
(1.43217 0.0216602 0)
(1.42581 0.0224527 0)
(1.41923 0.0232063 0)
(1.41244 0.0239195 0)
(1.40545 0.0245907 0)
(1.39827 0.0252187 0)
(1.39091 0.0258023 0)
(1.3834 0.0263403 0)
(1.37574 0.0268319 0)
(1.36794 0.0272761 0)
(1.36003 0.0276721 0)
(1.352 0.0280191 0)
(1.34389 0.0283163 0)
(1.3357 0.0285627 0)
(1.32744 0.0287576 0)
(1.31914 0.0288999 0)
(1.3108 0.0289883 0)
(1.30245 0.0290218 0)
(1.2941 0.0289989 0)
(1.28576 0.0289184 0)
(1.27746 0.028779 0)
(1.2692 0.0285798 0)
(1.26101 0.0283203 0)
(1.25291 0.0280004 0)
(1.2449 0.0276209 0)
(1.23702 0.0271835 0)
(1.22927 0.0266909 0)
(1.22166 0.0261469 0)
(1.21422 0.0255565 0)
(1.20696 0.0249257 0)
(1.19989 0.0242615 0)
(1.19301 0.0235714 0)
(1.18633 0.0228635 0)
(1.17986 0.0221461 0)
(1.17359 0.021427 0)
(1.16754 0.0207137 0)
(1.16169 0.0200131 0)
(1.15604 0.0193307 0)
(1.15058 0.0186712 0)
(1.14531 0.0180379 0)
(1.14022 0.017433 0)
(1.13531 0.0168574 0)
(1.13055 0.016311 0)
(1.12595 0.0157929 0)
(1.1215 0.0153016 0)
(1.11718 0.0148347 0)
(1.113 0.01439 0)
(1.10894 0.0139649 0)
(1.10501 0.0135569 0)
(1.10119 0.0131637 0)
(1.09748 0.0127829 0)
(1.09387 0.0124129 0)
(1.09038 0.012052 0)
(1.08699 0.0116989 0)
(1.0837 0.0113526 0)
(1.0805 0.0110125 0)
(1.07741 0.010678 0)
(1.07441 0.0103489 0)
(1.0715 0.0100249 0)
(1.06869 0.00970615 0)
(1.06597 0.00939261 0)
(1.06333 0.00908443 0)
(1.06079 0.00878177 0)
(1.05833 0.00848481 0)
(1.05595 0.00819373 0)
(1.05366 0.00790873 0)
(1.05145 0.00762995 0)
(1.04931 0.00735756 0)
(1.04726 0.00709168 0)
(1.04528 0.00683242 0)
(1.04337 0.00657985 0)
(1.04154 0.00633404 0)
(1.03977 0.00609502 0)
(1.03807 0.00586281 0)
(1.03644 0.00563741 0)
(1.03486 0.00541878 0)
(1.03336 0.00520689 0)
(1.03191 0.00500168 0)
(1.03051 0.00480308 0)
(1.02918 0.00461101 0)
(1.02789 0.00442538 0)
(1.02666 0.00424608 0)
(1.02548 0.004073 0)
(1.02435 0.00390602 0)
(1.02327 0.00374502 0)
(1.02223 0.00358986 0)
(1.02123 0.00344041 0)
(1.02027 0.00329654 0)
(1.01936 0.00315809 0)
(1.01848 0.00302493 0)
(1.01764 0.00289691 0)
(1.01684 0.00277389 0)
(1.01607 0.00265572 0)
(1.01533 0.00254226 0)
(1.01463 0.00243336 0)
(1.01395 0.00232887 0)
(1.01331 0.00222867 0)
(1.01269 0.00213261 0)
(1.0121 0.00204054 0)
(1.01153 0.00195234 0)
(1.01099 0.00186788 0)
(1.01048 0.00178702 0)
(1.00998 0.00170964 0)
(1.00951 0.00163561 0)
(1.00905 0.00156482 0)
(1.00862 0.00149715 0)
(1.00821 0.00143248 0)
(1.00781 0.00137071 0)
(1.00743 0.00131173 0)
(1.00707 0.00125543 0)
(1.00672 0.00120173 0)
(1.00638 0.00115051 0)
(1.00607 0.00110169 0)
(1.00576 0.00105519 0)
(1.00547 0.00101091 0)
(1.00519 0.000968775 0)
(1.00492 0.000928705 0)
(1.00466 0.000890625 0)
(1.00442 0.000854462 0)
(1.00418 0.000820147 0)
(1.00395 0.000787615 0)
(1.00373 0.000756801 0)
(1.00352 0.000727647 0)
(1.00332 0.000700094 0)
(1.00313 0.000674089 0)
(1.00294 0.000649579 0)
(1.00276 0.000626516 0)
(1.00259 0.000604852 0)
(1.00242 0.000584548 0)
(1.00225 0.000565548 0)
(1.0021 0.000547858 0)
(1.00194 0.00053131 0)
(1.0018 0.00051625 0)
(1.00164 0.00050156 0)
(1.00153 0.000490344 0)
(1.00131 0.000473559 0)
(1.00001 -0.000362444 0)
(1.00017 -0.00108749 0)
(1.00048 -0.00181333 0)
(1.00096 -0.00254069 0)
(1.0016 -0.00327026 0)
(1.00241 -0.00400273 0)
(1.00337 -0.00473873 0)
(1.0045 -0.00547888 0)
(1.0058 -0.00622376 0)
(1.00726 -0.00697391 0)
(1.00888 -0.00772983 0)
(1.01068 -0.00849195 0)
(1.01264 -0.00926066 0)
(1.01477 -0.0100363 0)
(1.01708 -0.010819 0)
(1.01956 -0.0116091 0)
(1.02222 -0.0124065 0)
(1.02506 -0.0132113 0)
(1.02808 -0.0140234 0)
(1.03128 -0.0148425 0)
(1.03466 -0.0156683 0)
(1.03823 -0.0165005 0)
(1.04199 -0.0173383 0)
(1.04593 -0.0181811 0)
(1.05006 -0.0190281 0)
(1.05438 -0.0198783 0)
(1.0589 -0.0207307 0)
(1.06361 -0.021584 0)
(1.0685 -0.0224367 0)
(1.07359 -0.0232874 0)
(1.07887 -0.0241345 0)
(1.08435 -0.0249761 0)
(1.09001 -0.0258103 0)
(1.09586 -0.026635 0)
(1.10189 -0.0274482 0)
(1.10811 -0.0282475 0)
(1.11451 -0.0290307 0)
(1.12108 -0.0297952 0)
(1.12783 -0.0305387 0)
(1.13474 -0.0312585 0)
(1.14181 -0.0319523 0)
(1.14904 -0.0326174 0)
(1.15642 -0.0332513 0)
(1.16394 -0.0338517 0)
(1.17159 -0.0344161 0)
(1.17936 -0.0349422 0)
(1.18726 -0.0354279 0)
(1.19525 -0.0358711 0)
(1.20335 -0.03627 0)
(1.21153 -0.0366228 0)
(1.21979 -0.0369281 0)
(1.22811 -0.0371845 0)
(1.23648 -0.0373909 0)
(1.2449 -0.0375464 0)
(1.25334 -0.0376504 0)
(1.2618 -0.0377024 0)
(1.27027 -0.0377023 0)
(1.27874 -0.03765 0)
(1.28718 -0.0375457 0)
(1.2956 -0.0373899 0)
(1.30397 -0.037183 0)
(1.31229 -0.036926 0)
(1.32055 -0.0366195 0)
(1.32873 -0.0362647 0)
(1.33683 -0.0358627 0)
(1.34482 -0.0354147 0)
(1.35272 -0.0349219 0)
(1.36049 -0.0343857 0)
(1.36814 -0.0338074 0)
(1.37566 -0.0331882 0)
(1.38303 -0.0325297 0)
(1.39025 -0.031833 0)
(1.3973 -0.0310993 0)
(1.40419 -0.03033 0)
(1.4109 -0.0295261 0)
(1.41743 -0.0286886 0)
(1.42376 -0.0278185 0)
(1.4299 -0.0269168 0)
(1.43583 -0.0259842 0)
(1.44155 -0.0250215 0)
(1.44704 -0.0240294 0)
(1.45232 -0.0230083 0)
(1.45736 -0.021959 0)
(1.46217 -0.0208818 0)
(1.46673 -0.0197773 0)
(1.47105 -0.0186459 0)
(1.4751 -0.017488 0)
(1.4789 -0.0163043 0)
(1.48243 -0.0150952 0)
(1.48568 -0.0138612 0)
(1.48866 -0.0126031 0)
(1.49135 -0.0113216 0)
(1.49376 -0.0100175 0)
(1.49587 -0.00869187 0)
(1.49768 -0.00734573 0)
(1.49919 -0.00598036 0)
(1.50038 -0.00459717 0)
(1.50127 -0.0031977 0)
(1.50184 -0.00178367 0)
(1.50209 -0.000356946 0)
(1.50202 0.0010804 0)
(1.50163 0.00252618 0)
(1.50091 0.00397806 0)
(1.49986 0.00543355 0)
(1.49848 0.00689004 0)
(1.49678 0.00834479 0)
(1.49474 0.00979496 0)
(1.49239 0.0112376 0)
(1.4897 0.0126698 0)
(1.4867 0.0140884 0)
(1.48337 0.0154903 0)
(1.47973 0.0168724 0)
(1.47578 0.0182317 0)
(1.47153 0.019565 0)
(1.46698 0.0208692 0)
(1.46214 0.0221414 0)
(1.45701 0.0233786 0)
(1.45161 0.024578 0)
(1.44594 0.0257368 0)
(1.44002 0.0268524 0)
(1.43385 0.0279223 0)
(1.42744 0.0289441 0)
(1.42081 0.0299157 0)
(1.41396 0.030835 0)
(1.40692 0.0317001 0)
(1.39968 0.0325093 0)
(1.39227 0.0332611 0)
(1.3847 0.0339541 0)
(1.37698 0.034587 0)
(1.36912 0.0351587 0)
(1.36114 0.0356681 0)
(1.35306 0.0361141 0)
(1.34489 0.0364959 0)
(1.33663 0.0368123 0)
(1.32832 0.0370621 0)
(1.31996 0.037244 0)
(1.31157 0.0373566 0)
(1.30316 0.0373984 0)
(1.29475 0.0373677 0)
(1.28636 0.0372628 0)
(1.278 0.0370823 0)
(1.26969 0.0368249 0)
(1.26145 0.0364898 0)
(1.25329 0.0360771 0)
(1.24524 0.0355878 0)
(1.2373 0.035024 0)
(1.2295 0.0343891 0)
(1.22185 0.0336881 0)
(1.21436 0.0329272 0)
(1.20706 0.0321141 0)
(1.19994 0.0312578 0)
(1.19301 0.030368 0)
(1.1863 0.029455 0)
(1.17979 0.0285295 0)
(1.17349 0.0276016 0)
(1.1674 0.0266811 0)
(1.16152 0.0257766 0)
(1.15584 0.0248956 0)
(1.15035 0.024044 0)
(1.14506 0.0232261 0)
(1.13995 0.0224447 0)
(1.13502 0.0217011 0)
(1.13024 0.0209953 0)
(1.12563 0.020326 0)
(1.12116 0.0196912 0)
(1.11684 0.0190882 0)
(1.11264 0.0185139 0)
(1.10858 0.017965 0)
(1.10464 0.0174382 0)
(1.10081 0.0169305 0)
(1.0971 0.0164391 0)
(1.0935 0.0159617 0)
(1.09 0.015496 0)
(1.08661 0.0150406 0)
(1.08332 0.0145941 0)
(1.08013 0.0141556 0)
(1.07703 0.0137244 0)
(1.07404 0.0133002 0)
(1.07113 0.0128828 0)
(1.06833 0.0124721 0)
(1.06561 0.0120682 0)
(1.06298 0.0116713 0)
(1.06044 0.0112816 0)
(1.05799 0.0108992 0)
(1.05562 0.0105245 0)
(1.05333 0.0101577 0)
(1.05113 0.00979898 0)
(1.049 0.0094485 0)
(1.04696 0.00910644 0)
(1.04498 0.00877294 0)
(1.04308 0.0084481 0)
(1.04126 0.00813199 0)
(1.0395 0.00782465 0)
(1.03781 0.0075261 0)
(1.03618 0.00723634 0)
(1.03462 0.00695531 0)
(1.03312 0.00668298 0)
(1.03167 0.00641926 0)
(1.03029 0.00616407 0)
(1.02896 0.00591729 0)
(1.02769 0.0056788 0)
(1.02646 0.00544847 0)
(1.02529 0.00522615 0)
(1.02416 0.00501168 0)
(1.02309 0.00480491 0)
(1.02205 0.00460565 0)
(1.02106 0.00441375 0)
(1.02011 0.00422901 0)
(1.0192 0.00405126 0)
(1.01833 0.0038803 0)
(1.0175 0.00371596 0)
(1.0167 0.00355804 0)
(1.01594 0.00340636 0)
(1.01521 0.00326074 0)
(1.01451 0.00312097 0)
(1.01384 0.00298688 0)
(1.0132 0.00285829 0)
(1.01258 0.00273502 0)
(1.012 0.00261689 0)
(1.01143 0.00250372 0)
(1.0109 0.00239535 0)
(1.01038 0.0022916 0)
(1.00989 0.00219233 0)
(1.00942 0.00209736 0)
(1.00897 0.00200654 0)
(1.00854 0.00191973 0)
(1.00813 0.00183677 0)
(1.00774 0.00175754 0)
(1.00736 0.00168188 0)
(1.007 0.00160967 0)
(1.00666 0.00154078 0)
(1.00633 0.0014751 0)
(1.00601 0.00141249 0)
(1.00571 0.00135284 0)
(1.00542 0.00129605 0)
(1.00514 0.00124202 0)
(1.00488 0.00119063 0)
(1.00462 0.00114179 0)
(1.00438 0.00109542 0)
(1.00414 0.00105141 0)
(1.00392 0.00100969 0)
(1.0037 0.00097018 0)
(1.00349 0.000932794 0)
(1.00329 0.000897463 0)