/*--------------------------------*- C++ -*----------------------------------*\
| =========                 |                                                 |
| \\      /  F ield         | OpenFOAM: The Open Source CFD Toolbox           |
|  \\    /   O peration     | Version:  2306                                  |
|   \\  /    A nd           | Website:  www.openfoam.com                      |
|    \\/     M anipulation  |                                                 |
\*---------------------------------------------------------------------------*/
FoamFile
{
    version     2.0;
    format      ascii;
    arch        "LSB;label=32;scalar=64";
    class       volScalarField;
    location    "0.04";
    object      G;
}
// * * * * * * * * * * * * * * * * * * * * * * * * * * * * * * * * * * * * * //

dimensions      [1 0 -3 0 0 0 0];

internalField   nonuniform List<scalar> 
100
(
10114.5
11223.5
11940.7
12313.2
12491.9
12491.9
12313.1
11940.7
11223.5
10114.5
11223.5
12532.9
13357.9
13771.8
13961.5
13961.5
13771.8
13358
12532.9
11223.5
11940.7
13357.9
14256.4
14706.5
14911.3
14911.2
14706.4
14256.4
13358
11940.7
12313.2
13771.8
14706.5
15179.6
15394.5
15394.5
15179.5
14706.4
13771.8
12313.1
12491.9
13961.5
14911.3
15394.5
15613.7
15613.7
15394.5
14911.2
13961.5
12491.9
12491.9
13961.5
14911.2
15394.5
15613.7
15613.7
15394.5
14911.3
13961.5
12491.9
12313.1
13771.8
14706.4
15179.5
15394.5
15394.5
15179.6
14706.5
13771.8
12313.2
11940.7
13358
14256.4
14706.4
14911.2
14911.3
14706.5
14256.4
13357.9
11940.7
11223.5
12532.9
13358
13771.8
13961.5
13961.5
13771.8
13357.9
12532.9
11223.5
10114.5
11223.5
11940.7
12313.1
12491.9
12491.9
12313.2
11940.7
11223.5
10114.5
)
;

boundaryField
{
    fixedWall_Bottom
    {
        type            calculated;
        value           nonuniform List<scalar> 10(8846.19 9722.61 10335.3 10659.6 10820 10820 10659.6 10335.3 9722.65 8846.25);
    }
    fixedWall_Right
    {
        type            calculated;
        value           nonuniform List<scalar> 10(8846.25 9722.65 10335.3 10659.6 10820 10820 10659.6 10335.3 9722.61 8846.19);
    }
    fixedWall_Left
    {
        type            calculated;
        value           nonuniform List<scalar> 10(8846.19 9722.61 10335.3 10659.6 10820 10820 10659.6 10335.3 9722.65 8846.25);
    }
    fixedWall_Top
    {
        type            calculated;
        value           nonuniform List<scalar> 10(8846.25 9722.65 10335.3 10659.6 10820 10820 10659.6 10335.3 9722.61 8846.19);
    }
    frontAndBack
    {
        type            empty;
    }
}


// ************************************************************************* //
