/*--------------------------------*- C++ -*----------------------------------*\
| =========                 |                                                 |
| \\      /  F ield         | OpenFOAM: The Open Source CFD Toolbox           |
|  \\    /   O peration     | Version:  2306                                  |
|   \\  /    A nd           | Website:  www.openfoam.com                      |
|    \\/     M anipulation  |                                                 |
\*---------------------------------------------------------------------------*/
FoamFile
{
    version     2.0;
    format      ascii;
    arch        "LSB;label=32;scalar=64";
    class       volScalarField;
    location    "0.04";
    object      qin;
}
// * * * * * * * * * * * * * * * * * * * * * * * * * * * * * * * * * * * * * //

dimensions      [1 0 -3 0 0 0 0];

internalField   uniform 0;

boundaryField
{
    fixedWall_Bottom
    {
        type            calculated;
        value           nonuniform List<scalar> 10(4597.02 5354.29 5824.95 6116.3 6270.2 6270.21 6116.29 5824.92 5354.32 4597.07);
    }
    fixedWall_Right
    {
        type            calculated;
        value           nonuniform List<scalar> 10(4597.07 5354.32 5824.92 6116.29 6270.21 6270.2 6116.3 5824.95 5354.29 4597.02);
    }
    fixedWall_Left
    {
        type            calculated;
        value           nonuniform List<scalar> 10(4597.02 5354.29 5824.95 6116.3 6270.2 6270.21 6116.29 5824.92 5354.32 4597.07);
    }
    fixedWall_Top
    {
        type            calculated;
        value           nonuniform List<scalar> 10(4597.07 5354.32 5824.92 6116.29 6270.21 6270.2 6116.3 5824.95 5354.29 4597.02);
    }
    frontAndBack
    {
        type            empty;
    }
}


// ************************************************************************* //
