/*--------------------------------*- C++ -*----------------------------------*\
| =========                 |                                                 |
| \\      /  F ield         | OpenFOAM: The Open Source CFD Toolbox           |
|  \\    /   O peration     | Version:  2112                                  |
|   \\  /    A nd           | Website:  www.openfoam.com                      |
|    \\/     M anipulation  |                                                 |
\*---------------------------------------------------------------------------*/
FoamFile
{
    version     2.0;
    format      ascii;
    arch        "LSB;label=32;scalar=64";
    class       volScalarField;
    location    "0.09";
    object      G;
}
// * * * * * * * * * * * * * * * * * * * * * * * * * * * * * * * * * * * * * //

dimensions      [1 0 -3 0 0 0 0];

internalField   nonuniform List<scalar> 
900
(
139722
161659
170120
174934
178471
181341
183727
185727
187406
188800
189935
190825
191484
191920
192137
192137
191920
191484
190825
189935
188800
187406
185727
183727
181341
178471
174934
170120
161659
139721
123854
146445
159679
167962
173716
178066
181508
184296
186576
188431
189918
191071
191918
192474
192750
192750
192474
191918
191071
189918
188431
186576
184296
181508
178066
173715
167962
159679
146445
123854
119923
138601
152176
162000
169246
174795
179167
182684
185538
187846
189684
191106
192146
192828
193165
193165
192828
192146
191106
189684
187846
185538
182685
179167
174795
169246
162000
152176
138601
119923
118641
134408
146935
156949
164842
171102
176118
180178
183478
186146
188269
189908
191106
191891
192279
192279
191891
191106
189908
188269
186146
183478
180178
176118
171102
164842
156949
146935
134408
118641
118035
131906
143279
152900
160878
167438
172817
177232
180848
183784
186127
187939
189265
190133
190563
190563
190133
189265
187939
186127
183784
180848
177232
172817
167438
160878
152901
143279
131906
118035
117294
129900
140331
149429
157238
163850
169399
174027
177860
180995
183510
185462
186893
187832
188297
188297
187832
186893
185462
183510
180995
177860
174027
169399
163850
157238
149429
140331
129901
117294
116482
128192
137879
146468
154003
160518
166088
170804
174752
178008
180635
182682
184186
185175
185666
185666
185175
184186
182682
180635
178008
174752
170804
166088
160518
154003
146468
137879
128192
116482
115662
126665
135741
143856
151072
157403
162892
167597
171576
174884
177568
179669
181219
182239
182746
182746
182239
181219
179669
177568
174884
171576
167597
162892
157403
151072
143856
135741
126665
115663
114761
125170
133733
141417
148313
154421
159774
164408
168361
171670
174371
176494
178065
179102
179617
179617
179102
178065
176494
174371
171670
168361
164408
159774
154421
148313
141417
133733
125170
114761
113727
123639
131767
139067
145659
151536
156724
161249
165136
168408
171093
173212
174784
175824
176341
176341
175824
174784
173212
171093
168408
165136
161249
156724
151536
145659
139067
131767
123639
113727
112584
122069
129819
136772
143077
148721
153728
158120
161912
165120
167763
169855
171412
172443
172957
172957
172443
171412
169855
167763
165120
161912
158120
153728
148721
143077
136771
129819
122069
112584
111350
120452
127866
134498
140532
145946
150766
155011
158690
161814
164396
166447
167975
168990
169496
169496
168990
167975
166447
164396
161814
158690
155011
150766
145946
140532
134498
127866
120452
111350
110020
118771
125883
132216
137995
143187
147819
151910
155466
158494
161003
163000
164491
165482
165977
165977
165482
164491
163000
161003
158494
155466
151910
147819
143187
137995
132216
125883
118771
110020
108591
117019
123856
129911
135449
140428
144875
148809
152236
155161
157588
159524
160971
161934
162414
162414
161934
160971
159524
157588
155161
152236
148809
144875
140428
135449
129911
123856
117019
108591
107069
115195
121781
127573
132881
137656
141921
145699
148994
151811
154152
156020
157419
158350
158816
158816
158350
157419
156020
154152
151811
148994
145699
141921
137656
132881
127572
121781
115195
107070
105461
113299
119651
125192
130281
134860
138947
142570
145734
148440
150691
152490
153837
154735
155184
155184
154735
153838
152490
150691
148440
145734
142570
138947
134860
130281
125192
119651
113300
105461
103767
111330
117462
122762
127640
132030
135944
139415
142448
145043
147203
148930
150224
151087
151518
151518
151087
150224
148930
147203
145043
142448
139415
135944
132030
127640
122762
117462
111330
103768
101990
109285
115209
120277
124950
129158
132904
136225
139127
141612
143681
145335
146576
147403
147816
147816
147403
146576
145335
143681
141612
139127
136225
132904
129158
124950
120277
115209
109285
101990
100131
107164
112891
117732
122204
126236
129818
132990
135765
138140
140117
141699
142885
143676
144072
144072
143676
142885
141699
140117
138140
135765
132990
129818
126236
122204
117732
112891
107164
100132
98192.4
104965
110502
115121
119396
123255
126676
129703
132351
134617
136504
138013
139145
139900
140277
140277
139900
139145
138013
136504
134617
132351
129703
126676
123255
119396
115121
110502
104965
98192.5
96172.3
102686
108038
112439
116516
120207
123470
126352
128875
131034
132830
134267
135345
136063
136423
136423
136063
135345
134267
132830
131034
128875
126352
123470
120207
116516
112438
108038
102687
96172.5
94070.1
100324
105493
109677
113557
117081
120188
122926
125324
127376
129083
130448
131472
132154
132496
132496
132154
131472
130448
129083
127376
125324
122926
120188
117081
113557
109677
105493
100324
94070.3
91885
97872.7
102861
106828
110507
113864
116816
119411
121684
123630
125248
126541
127511
128158
128481
128481
128158
127511
126541
125248
123630
121684
119411
116816
113864
110507
106828
102861
97872.8
91885.2
89612.4
95327
100132
103880
107353
110541
113340
115790
117937
119778
121306
122527
123444
124055
124361
124361
124055
123444
122527
121306
119778
117937
115790
113340
110541
107353
103879
100132
95327.1
89612.6
87239.7
92671.5
97287.8
100814
104076
107092
109736
112041
114061
115796
117235
118385
119248
119823
120111
120111
119823
119248
118385
117235
115796
114061
112041
109736
107092
104076
100814
97287.8
92671.6
87239.9
84752.4
89883.9
94301.9
97598.9
100640
103479
105968
108126
110019
111647
112998
114075
114884
115424
115694
115694
115424
114884
114075
112998
111647
110019
108126
105968
103479
100640
97598.7
94301.9
89884.1
84752.7
82164
86965.3
91166
94221.2
97028.7
99682.4
102012
104021
105782
107302
108564
109569
110323
110828
111080
111080
110828
110323
109569
108564
107302
105782
104021
102012
99682.4
97028.6
94221.1
91166
86965.5
82164.2
79402.3
83826.3
87780.2
90575.1
93129.3
95583.3
97747.5
99600.2
101223
102629
103799
104728
105426
105893
106126
106126
105893
105426
104728
103799
102629
101223
99600.3
97747.5
95583.3
93129.2
90575
87780.2
83826.5
79402.6
76469.1
80474.1
84151.9
86684.2
88993.2
91255.5
93262.4
94968.7
96461.7
97763.2
98846.8
99706.3
100351
100784
101001
101001
100784
100351
99706.4
98846.9
97763.3
96461.8
94968.7
93262.5
91255.4
88993.1
86684.1
84152
80474.4
76469.5
72328.4
75665
78969.5
81158.2
83119.9
85112.3
86914.8
88427.1
89737.4
90890.5
91858.3
92622.9
93193.4
93577.4
93771.7
93771.7
93577.5
93193.5
92623
91858.4
90890.6
89737.5
88427.2
86914.8
85112.3
83119.9
81158.2
78969.6
75665.3
72328.8
)
;

boundaryField
{
    fixedWall_Bottom
    {
        type            calculated;
        value           nonuniform List<scalar> 
30
(
164811
169161
172349
175028
177366
179427
181222
182777
184115
185246
186178
186916
187467
187832
188014
188014
187832
187467
186916
186178
185246
184115
182777
181222
179427
177366
175028
172349
169161
164811
)
;
    }
    fixedWall_Right
    {
        type            calculated;
        value           nonuniform List<scalar> 
30
(
108642
109266
110068
110584
110936
110831
110483
110021
109406
108613
107677
106626
105463
104189
102813
101344
99785.4
98140
96411.2
94601.2
92710.3
90738.3
88685.3
86548
84315.4
81975.5
79544.9
76963.2
74248.8
70508.3
)
;
    }
    fixedWall_Left
    {
        type            calculated;
        value           nonuniform List<scalar> 
30
(
108642
109266
110067
110584
110936
110831
110482
110021
109406
108613
107677
106626
105463
104189
102813
101344
99785.2
98139.9
96411
94601
92710.1
90738.1
88685.1
86547.8
84315.2
81975.3
79544.6
76962.9
74248.5
70507.9
)
;
    }
    fixedWall_Top
    {
        type            calculated;
        value           nonuniform List<scalar> 
30
(
70669.6
73668.8
76787.2
78846
80703.6
82606
84331.1
85777.6
87031.8
88137.3
89066
89799.6
90347
90715.7
90902.3
90902.3
90715.7
90347.1
89799.6
89066.1
88137.4
87031.9
85777.7
84331.2
82606
80703.6
78846
76787.3
73669
70670
)
;
    }
    frontAndBack
    {
        type            empty;
    }
}


// ************************************************************************* //
