/*--------------------------------*- C++ -*----------------------------------*\
| =========                 |                                                 |
| \\      /  F ield         | OpenFOAM: The Open Source CFD Toolbox           |
|  \\    /   O peration     | Version:  2112                                  |
|   \\  /    A nd           | Website:  www.openfoam.com                      |
|    \\/     M anipulation  |                                                 |
\*---------------------------------------------------------------------------*/
FoamFile
{
    version     2.0;
    format      ascii;
    arch        "LSB;label=32;scalar=64";
    class       volScalarField;
    location    "0.09";
    object      qin;
}
// * * * * * * * * * * * * * * * * * * * * * * * * * * * * * * * * * * * * * //

dimensions      [1 0 -3 0 0 0 0];

internalField   uniform 0;

boundaryField
{
    fixedWall_Bottom
    {
        type            calculated;
        value           nonuniform List<scalar> 
30
(
24448.3
27661.5
29886.2
31769.7
33402.7
34840.6
36090.1
37170.2
38097.4
38880.7
39525.1
40035.5
40415.5
40667.6
40793.3
40793.3
40667.6
40415.5
40035.5
39525.1
38880.7
38097.4
37170.2
36090.1
34840.6
33402.7
31769.7
29886.2
27661.4
24448.2
)
;
    }
    fixedWall_Right
    {
        type            calculated;
        value           nonuniform List<scalar> 
30
(
56490.5
57334.8
57869.7
58264.3
58501.2
58382.4
58072.7
57679.4
57174.1
56538.5
55802.1
54988.6
54100.8
53140.2
52114.8
51031.5
49893.4
48702.5
47460.8
46169.8
44829.2
43438
41995.5
40498.3
38936.7
37300.5
35601.4
33790.8
31885.9
29164.3
)
;
    }
    fixedWall_Left
    {
        type            calculated;
        value           nonuniform List<scalar> 
30
(
56490.6
57334.7
57869.6
58264.1
58501.1
58382.3
58072.7
57679.3
57174
56538.5
55802
54988.5
54100.7
53140.2
52114.7
51031.4
49893.3
48702.3
47460.7
46169.7
44829.1
43437.9
41995.4
40498.1
38936.5
37300.3
35601.2
33790.7
31885.7
29164.1
)
;
    }
    fixedWall_Top
    {
        type            calculated;
        value           nonuniform List<scalar> 
30
(
42410.2
45120.2
47632.2
49379.5
50947.4
52548.1
54002.4
55230.1
56297.3
57237.6
58028.3
58654.4
59122.2
59437.1
59596.5
59596.5
59437.1
59122.2
58654.4
58028.4
57237.7
56297.4
55230.2
54002.5
52548.1
50947.4
49379.4
47632.2
45120.3
42410.3
)
;
    }
    frontAndBack
    {
        type            empty;
    }
}


// ************************************************************************* //
