/*--------------------------------*- C++ -*----------------------------------*\
| =========                 |                                                 |
| \\      /  F ield         | OpenFOAM: The Open Source CFD Toolbox           |
|  \\    /   O peration     | Version:  2306                                  |
|   \\  /    A nd           | Website:  www.openfoam.com                      |
|    \\/     M anipulation  |                                                 |
\*---------------------------------------------------------------------------*/
FoamFile
{
    version     2.0;
    format      ascii;
    arch        "LSB;label=32;scalar=64";
    class       volScalarField;
    location    "9.5";
    object      Keff;
}
// * * * * * * * * * * * * * * * * * * * * * * * * * * * * * * * * * * * * * //

dimensions      [1 1 -3 -1 0 0 0];

internalField   nonuniform List<scalar> 
32768
(
67.2037
67.2017
67.1976
67.1914
67.1831
67.1728
67.1603
67.1457
67.129
67.1102
67.0892
67.066
67.0407
67.0131
66.9834
66.9513
66.9171
66.8805
66.8416
66.8003
66.7567
66.7108
66.6624
66.6117
66.5585
66.5029
66.4448
66.3843
66.3213
66.2559
66.1881
66.1178
66.0451
65.97
65.8925
65.8127
65.7306
65.6463
65.5597
65.471
65.3802
65.2874
65.1926
65.096
64.9977
64.8977
64.7961
64.693
64.5886
64.483
64.3762
64.2685
64.1599
64.0505
63.9405
63.83
63.7191
63.608
63.4968
63.3856
63.2745
63.1636
63.0531
62.943
62.8335
62.7246
62.6165
62.5091
62.4027
62.2972
62.1927
62.0894
61.9872
61.8861
61.7863
61.6877
61.5904
61.4944
61.3998
61.3064
61.2144
61.1238
61.0345
60.9465
60.8598
60.7745
60.6904
60.6076
60.5262
60.4459
60.3669
60.2891
60.2125
60.1371
60.0629
59.9898
59.9179
59.8471
59.7774
59.7089
59.6414
59.5751
59.5098
59.4457
59.3827
59.3208
59.2601
59.2005
59.1421
59.0849
59.0289
58.9742
58.9207
58.8686
58.8178
58.7684
58.7204
58.6738
58.6288
58.5853
58.5434
58.5031
58.4645
58.4276
58.3925
58.3592
58.3278
58.2983
58.2708
58.2453
58.2218
58.2004
58.1812
58.1642
58.1494
58.1369
58.1266
58.1188
58.1133
58.1102
58.1096
58.1115
58.1158
58.1227
58.1322
58.1442
58.1589
58.1761
58.196
58.2185
58.2437
58.2716
58.3021
58.3353
58.3711
58.4096
58.4508
58.4947
58.5412
58.5904
58.6421
58.6965
58.7535
58.813
58.8751
58.9397
59.0068
59.0764
59.1483
59.2227
59.2994
59.3783
59.4595
59.5429
59.6284
59.7161
59.8057
59.8973
59.9908
60.086
60.1831
60.2818
60.3821
60.484
60.5873
60.6919
60.7978
60.9049
61.0131
61.1222
61.2323
61.3432
61.4548
61.567
61.6797
61.7929
61.9063
62.0201
62.1339
62.2478
62.3617
62.4754
62.5888
62.702
62.8147
62.9269
63.0386
63.1495
63.2598
63.3692
63.4778
63.5854
63.692
63.7976
63.902
64.0052
64.1072
64.2079
64.3073
64.4053
64.502
64.5972
64.691
64.7834
64.8742
64.9636
65.0514
65.1377
65.2225
65.3058
65.3875
65.4677
65.5465
65.6237
65.6994
65.7737
65.8465
65.9179
65.9878
66.0564
66.1236
66.1895
66.2541
66.3174
66.3795
66.4404
66.5
66.5586
66.616
66.6725
66.7275
66.7827
66.834
66.8914
66.9314
67.0132
67.2037
67.2017
67.1976
67.1914
67.1832
67.1728
67.1603
67.1457
67.129
67.1102
67.0892
67.0661
67.0408
67.0132
66.9834
66.9514
66.9171
66.8805
66.8417
66.8004
66.7568
66.7109
66.6625
66.6117
66.5585
66.5029
66.4448
66.3843
66.3213
66.2558
66.1879
66.1176
66.0449
65.9697
65.8922
65.8123
65.7301
65.6456
65.559
65.4702
65.3793
65.2863
65.1915
65.0948
64.9963
64.8961
64.7944
64.6912
64.5867
64.4809
64.374
64.2661
64.1573
64.0478
63.9376
63.827
63.716
63.6048
63.4934
63.3821
63.2708
63.1599
63.0492
62.939
62.8294
62.7204
62.6122
62.5048
62.3982
62.2927
62.1882
62.0848
61.9825
61.8814
61.7816
61.683
61.5857
61.4897
61.395
61.3017
61.2097
61.119
61.0297
60.9417
60.855
60.7697
60.6857
60.6029
60.5214
60.4412
60.3622
60.2845
60.2079
60.1325
60.0583
59.9852
59.9133
59.8425
59.7728
59.7043
59.6368
59.5705
59.5052
59.4411
59.3781
59.3162
59.2554
59.1958
59.1374
59.0802
59.0242
58.9694
58.9159
58.8637
58.8129
58.7634
58.7154
58.6688
58.6237
58.5802
58.5382
58.4979
58.4592
58.4223
58.3872
58.3539
58.3224
58.2929
58.2653
58.2397
58.2162
58.1948
58.1755
58.1585
58.1436
58.1311
58.1208
58.1129
58.1074
58.1043
58.1037
58.1055
58.1098
58.1167
58.1262
58.1382
58.1528
58.17
58.1899
58.2124
58.2376
58.2654
58.296
58.3291
58.365
58.4035
58.4447
58.4886
58.5351
58.5843
58.6361
58.6905
58.7475
58.8071
58.8692
58.9338
59.0009
59.0705
59.1425
59.2169
59.2936
59.3726
59.4539
59.5373
59.6229
59.7106
59.8003
59.8919
59.9855
60.0808
60.178
60.2768
60.3772
60.4791
60.5825
60.6872
60.7932
60.9004
61.0086
61.1179
61.2281
61.339
61.4507
61.5631
61.6759
61.7892
61.9028
62.0166
62.1306
62.2446
62.3585
62.4723
62.5859
62.6992
62.812
62.9243
63.0361
63.1472
63.2575
63.3671
63.4757
63.5834
63.6901
63.7958
63.9002
64.0036
64.1056
64.2064
64.3059
64.404
64.5007
64.596
64.6899
64.7823
64.8731
64.9625
65.0504
65.1368
65.2216
65.3049
65.3867
65.4669
65.5457
65.6229
65.6986
65.7729
65.8457
65.9171
65.9871
66.0557
66.1229
66.1888
66.2534
66.3167
66.3787
66.4396
66.4992
66.5578
66.6152
66.6717
66.7266
66.7818
66.8331
66.8905
66.9305
67.0123
67.2037
67.2017
67.1976
67.1915
67.1832
67.1728
67.1603
67.1458
67.1291
67.1103
67.0893
67.0662
67.0409
67.0134
66.9836
66.9516
66.9173
66.8807
66.8418
66.8006
66.757
66.711
66.6626
66.6118
66.5586
66.5029
66.4448
66.3842
66.3212
66.2556
66.1877
66.1172
66.0444
65.9691
65.8914
65.8114
65.729
65.6444
65.5576
65.4685
65.3774
65.2843
65.1892
65.0922
64.9935
64.893
64.791
64.6876
64.5827
64.4767
64.3695
64.2613
64.1522
64.0424
63.9319
63.821
63.7097
63.5982
63.4866
63.375
63.2635
63.1523
63.0414
62.931
62.8212
62.712
62.6036
62.496
62.3894
62.2837
62.1791
62.0756
61.9732
61.872
61.7721
61.6735
61.5761
61.4801
61.3854
61.2921
61.2001
61.1094
61.0201
60.9321
60.8455
60.7602
60.6762
60.5935
60.512
60.4318
60.3529
60.2751
60.1986
60.1232
60.0491
59.976
59.9041
59.8333
59.7637
59.6951
59.6276
59.5613
59.496
59.4319
59.3688
59.3069
59.2461
59.1865
59.128
59.0708
59.0147
58.9599
58.9063
58.8541
58.8032
58.7536
58.7055
58.6588
58.6136
58.57
58.528
58.4875
58.4488
58.4118
58.3766
58.3431
58.3116
58.282
58.2543
58.2286
58.205
58.1836
58.1642
58.1471
58.1322
58.1195
58.1092
58.1012
58.0957
58.0925
58.0918
58.0936
58.0979
58.1047
58.1141
58.1261
58.1407
58.1579
58.1777
58.2002
58.2254
58.2532
58.2837
58.3169
58.3528
58.3913
58.4325
58.4764
58.523
58.5721
58.624
58.6784
58.7354
58.7951
58.8572
58.9219
58.9891
59.0588
59.1308
59.2053
59.2821
59.3612
59.4425
59.5261
59.6118
59.6996
59.7894
59.8812
59.9749
60.0704
60.1677
60.2666
60.3672
60.4693
60.5728
60.6777
60.7839
60.8913
60.9998
61.1092
61.2196
61.3308
61.4427
61.5552
61.6683
61.7818
61.8956
62.0097
62.1239
62.2381
62.3523
62.4663
62.5801
62.6936
62.8066
62.9192
63.0311
63.1424
63.253
63.3627
63.4716
63.5795
63.6864
63.7922
63.8968
64.0003
64.1025
64.2035
64.3031
64.4013
64.4982
64.5936
64.6875
64.78
64.871
64.9605
65.0485
65.1349
65.2198
65.3031
65.385
65.4653
65.544
65.6213
65.6971
65.7714
65.8442
65.9156
65.9856
66.0542
66.1214
66.1873
66.2518
66.3151
66.3772
66.438
66.4976
66.5562
66.6135
66.67
66.7249
66.78
66.8313
66.8887
66.9286
67.0103
67.2037
67.2017
67.1977
67.1915
67.1832
67.1728
67.1604
67.1459
67.1292
67.1104
67.0895
67.0664
67.0411
67.0136
66.9838
66.9518
66.9176
66.881
66.8421
66.8009
66.7573
66.7113
66.6629
66.612
66.5588
66.503
66.4448
66.3842
66.321
66.2554
66.1873
66.1167
66.0436
65.9682
65.8903
65.81
65.7275
65.6426
65.5554
65.4661
65.3747
65.2812
65.1857
65.0884
64.9893
64.8884
64.786
64.6821
64.5768
64.4703
64.3627
64.254
64.1445
64.0343
63.9234
63.812
63.7003
63.5884
63.4764
63.3644
63.2525
63.1409
63.0297
62.919
62.8089
62.6994
62.5908
62.483
62.3761
62.2702
62.1654
62.0617
61.9593
61.858
61.758
61.6592
61.5618
61.4658
61.371
61.2777
61.1857
61.095
61.0057
60.9178
60.8312
60.7459
60.662
60.5793
60.4979
60.4178
60.3389
60.2612
60.1847
60.1094
60.0352
59.9622
59.8903
59.8196
59.7499
59.6814
59.6139
59.5475
59.4823
59.4181
59.355
59.2931
59.2322
59.1725
59.114
59.0566
59.0005
58.9456
58.8919
58.8396
58.7886
58.7389
58.6907
58.6439
58.5986
58.5548
58.5126
58.4721
58.4332
58.396
58.3606
58.3271
58.2954
58.2656
58.2378
58.2121
58.1883
58.1667
58.1473
58.13
58.115
58.1022
58.0918
58.0837
58.0781
58.0748
58.074
58.0757
58.08
58.0867
58.0961
58.108
58.1225
58.1397
58.1595
58.182
58.2071
58.2349
58.2654
58.2986
58.3345
58.373
58.4142
58.4582
58.5047
58.554
58.6058
58.6603
58.7174
58.7771
58.8394
58.9041
58.9714
59.0412
59.1133
59.1879
59.2649
59.3441
59.4256
59.5093
59.5952
59.6831
59.7731
59.8651
59.959
60.0547
60.1522
60.2514
60.3523
60.4546
60.5584
60.6636
60.7701
60.8777
60.9865
61.0962
61.2069
61.3184
61.4307
61.5435
61.6569
61.7707
61.8849
61.9993
62.1138
62.2284
62.3429
62.4573
62.5714
62.6852
62.7986
62.9115
63.0237
63.1354
63.2462
63.3563
63.4654
63.5736
63.6807
63.7868
63.8917
63.9954
64.0979
64.199
64.2989
64.3973
64.4944
64.59
64.6841
64.7767
64.8679
64.9575
65.0455
65.1321
65.2171
65.3005
65.3824
65.4628
65.5416
65.619
65.6948
65.7691
65.8419
65.9134
65.9833
66.0519
66.1191
66.185
66.2495
66.3128
66.3748
66.4356
66.4952
66.5537
66.611
66.6674
66.7223
66.7774
66.8286
66.8859
66.9257
67.0074
67.2037
67.2017
67.1977
67.1915
67.1832
67.1729
67.1605
67.146
67.1293
67.1106
67.0897
67.0666
67.0413
67.0138
66.9841
66.9522
66.9179
66.8814
66.8425
66.8012
66.7576
66.7116
66.6632
66.6123
66.559
66.5032
66.4449
66.3841
66.3208
66.255
66.1868
66.116
66.0427
65.967
65.8889
65.8083
65.7254
65.6402
65.5526
65.4629
65.371
65.2771
65.1812
65.0833
64.9837
64.8823
64.7793
64.6749
64.569
64.4619
64.3537
64.2444
64.1343
64.0235
63.912
63.8001
63.6878
63.5753
63.4627
63.3502
63.2379
63.1258
63.0141
62.903
62.7925
62.6826
62.5736
62.4655
62.3583
62.2522
62.1472
62.0433
61.9406
61.8392
61.7391
61.6403
61.5428
61.4467
61.3519
61.2585
61.1665
61.0759
60.9866
60.8987
60.8122
60.727
60.643
60.5604
60.4791
60.399
60.3202
60.2426
60.1662
60.0909
60.0168
59.9439
59.872
59.8013
59.7317
59.6631
59.5957
59.5293
59.464
59.3998
59.3367
59.2746
59.2137
59.154
59.0953
59.0379
58.9816
58.9266
58.8728
58.8203
58.7691
58.7193
58.6709
58.624
58.5785
58.5345
58.4922
58.4514
58.4124
58.375
58.3395
58.3057
58.2739
58.2439
58.2159
58.19
58.1661
58.1443
58.1247
58.1073
58.0921
58.0792
58.0686
58.0604
58.0546
58.0513
58.0504
58.052
58.0561
58.0628
58.072
58.0839
58.0984
58.1155
58.1352
58.1577
58.1828
58.2106
58.241
58.2742
58.3101
58.3486
58.3899
58.4338
58.4805
58.5297
58.5817
58.6362
58.6934
58.7532
58.8155
58.8804
58.9478
59.0177
59.0901
59.1648
59.2419
59.3213
59.403
59.4869
59.573
59.6612
59.7515
59.8437
59.9379
60.0339
60.1317
60.2312
60.3324
60.4351
60.5392
60.6448
60.7516
60.8596
60.9688
61.079
61.1901
61.302
61.4146
61.5279
61.6418
61.756
61.8706
61.9855
62.1005
62.2155
62.3304
62.4453
62.5598
62.6741
62.7879
62.9012
63.0139
63.1259
63.2372
63.3476
63.4572
63.5657
63.6733
63.7797
63.8849
63.989
64.0917
64.1932
64.2933
64.392
64.4893
64.5851
64.6795
64.7723
64.8637
64.9535
65.0417
65.1284
65.2135
65.2971
65.3791
65.4595
65.5385
65.6158
65.6917
65.7661
65.839
65.9104
65.9804
66.049
66.1162
66.182
66.2465
66.3098
66.3717
66.4325
66.492
66.5505
66.6077
66.664
66.7188
66.7738
66.825
66.8822
66.922
67.0035
67.2037
67.2017
67.1977
67.1915
67.1833
67.173
67.1606
67.1461
67.1295
67.1108
67.0899
67.0669
67.0417
67.0142
66.9845
66.9526
66.9184
66.8818
66.843
66.8017
66.7581
66.7121
66.6636
66.6127
66.5593
66.5034
66.445
66.3841
66.3206
66.2547
66.1862
66.1152
66.0416
65.9656
65.8871
65.8062
65.7229
65.6372
65.5492
65.459
65.3666
65.2721
65.1755
65.0771
64.9767
64.8747
64.771
64.6658
64.5593
64.4514
64.3424
64.2324
64.1216
64.01
63.8978
63.7851
63.6721
63.5589
63.4457
63.3325
63.2195
63.1068
62.9946
62.8829
62.7719
62.6616
62.5522
62.4436
62.3361
62.2297
62.1244
62.0202
61.9174
61.8157
61.7155
61.6165
61.5189
61.4228
61.328
61.2346
61.1426
61.052
60.9627
60.8749
60.7884
60.7033
60.6194
60.5369
60.4557
60.3757
60.297
60.2194
60.1431
60.0679
59.9939
59.921
59.8492
59.7785
59.7089
59.6404
59.5729
59.5065
59.4412
59.377
59.3138
59.2517
59.1907
59.1308
59.0721
59.0145
58.9581
58.9029
58.849
58.7963
58.7449
58.6949
58.6463
58.5991
58.5535
58.5093
58.4667
58.4257
58.3864
58.3489
58.3131
58.2791
58.247
58.2168
58.1886
58.1625
58.1383
58.1164
58.0965
58.0789
58.0635
58.0505
58.0397
58.0314
58.0254
58.0219
58.0208
58.0223
58.0263
58.0329
58.042
58.0538
58.0682
58.0852
58.1049
58.1273
58.1524
58.1801
58.2106
58.2438
58.2797
58.3182
58.3595
58.4035
58.4502
58.4995
58.5515
58.6062
58.6635
58.7233
58.7858
58.8508
58.9184
58.9885
59.061
59.1359
59.2132
59.2929
59.3748
59.459
59.5454
59.6339
59.7244
59.817
59.9115
60.0079
60.1061
60.206
60.3075
60.4106
60.5152
60.6212
60.7285
60.837
60.9467
61.0574
61.169
61.2814
61.3946
61.5085
61.6229
61.7377
61.8528
61.9682
62.0838
62.1994
62.3149
62.4303
62.5454
62.6602
62.7746
62.8884
63.0017
63.1142
63.226
63.3369
63.4469
63.556
63.664
63.7708
63.8765
63.9809
64.0841
64.1859
64.2864
64.3854
64.483
64.5792
64.6738
64.7669
64.8585
64.9485
65.0369
65.1238
65.2091
65.2928
65.3749
65.4555
65.5345
65.612
65.6879
65.7623
65.8353
65.9067
65.9767
66.0453
66.1125
66.1783
66.2428
66.306
66.3679
66.4286
66.488
66.5464
66.6035
66.6598
66.7145
66.7695
66.8205
66.8776
66.9173
66.9987
67.2037
67.2017
67.1977
67.1916
67.1834
67.1731
67.1607
67.1463
67.1297
67.1111
67.0902
67.0672
67.0421
67.0147
66.985
66.9531
66.919
66.8825
66.8436
66.8024
66.7588
66.7127
66.6642
66.6132
66.5597
66.5037
66.4452
66.3841
66.3205
66.2543
66.1856
66.1143
66.0404
65.964
65.8851
65.8037
65.7199
65.6337
65.5452
65.4543
65.3613
65.2661
65.1688
65.0696
64.9685
64.8656
64.7611
64.6551
64.5476
64.4388
64.329
64.218
64.1063
63.9938
63.8807
63.7671
63.6532
63.5392
63.4251
63.3112
63.1974
63.0841
62.9712
62.8588
62.7472
62.6363
62.5264
62.4174
62.3094
62.2026
62.0969
61.9925
61.8894
61.7876
61.6871
61.588
61.4904
61.3941
61.2992
61.2058
61.1138
61.0233
60.9341
60.8463
60.7599
60.6749
60.5912
60.5088
60.4276
60.3478
60.2691
60.1917
60.1155
60.0404
59.9665
59.8936
59.8219
59.7513
59.6817
59.6132
59.5458
59.4794
59.414
59.3497
59.2865
59.2243
59.1632
59.1032
59.0443
58.9866
58.93
58.8746
58.8205
58.7676
58.716
58.6658
58.6169
58.5695
58.5235
58.4791
58.4363
58.395
58.3554
58.3176
58.2815
58.2473
58.2149
58.1844
58.156
58.1295
58.1052
58.0829
58.0628
58.045
58.0294
58.0161
58.0051
57.9966
57.9904
57.9867
57.9855
57.9868
57.9907
57.9971
58.0061
58.0178
58.0321
58.049
58.0687
58.091
58.116
58.1437
58.1742
58.2074
58.2432
58.2818
58.3231
58.3672
58.4139
58.4633
58.5154
58.5702
58.6276
58.6876
58.7502
58.8154
58.8832
58.9534
59.0261
59.1013
59.1789
59.2588
59.341
59.4255
59.5122
59.6011
59.692
59.785
59.8799
59.9767
60.0753
60.1757
60.2777
60.3814
60.4865
60.593
60.7009
60.81
60.9202
61.0315
61.1437
61.2568
61.3707
61.4852
61.6002
61.7157
61.8315
61.9476
62.0638
62.1801
62.2963
62.4124
62.5282
62.6436
62.7586
62.8731
62.987
63.1002
63.2126
63.3241
63.4347
63.5443
63.6529
63.7602
63.8664
63.9714
64.075
64.1773
64.2782
64.3776
64.4756
64.5721
64.6671
64.7605
64.8523
64.9426
65.0313
65.1184
65.2039
65.2877
65.37
65.4507
65.5299
65.6074
65.6834
65.7579
65.8309
65.9023
65.9724
66.0409
66.1081
66.1739
66.2383
66.3015
66.3633
66.4239
66.4833
66.5416
66.5986
66.6548
66.7094
66.7642
66.8151
66.8721
66.9117
66.9929
67.2037
67.2017
67.1977
67.1916
67.1834
67.1732
67.1609
67.1465
67.13
67.1114
67.0906
67.0677
67.0426
67.0152
66.9857
66.9538
66.9197
66.8832
66.8444
66.8032
66.7596
66.7135
66.6649
66.6139
66.5603
66.5042
66.4455
66.3843
66.3204
66.254
66.185
66.1133
66.0391
65.9623
65.8829
65.801
65.7166
65.6298
65.5406
65.449
65.3552
65.2592
65.1611
65.061
64.9589
64.8551
64.7496
64.6425
64.534
64.4242
64.3133
64.2013
64.0884
63.9749
63.8607
63.7461
63.6312
63.5162
63.4012
63.2863
63.1717
63.0574
62.9437
62.8306
62.7183
62.6068
62.4962
62.3867
62.2782
62.171
62.0649
61.9602
61.8567
61.7547
61.654
61.5548
61.457
61.3607
61.2658
61.1723
61.0804
60.9899
60.9008
60.8131
60.7268
60.6418
60.5583
60.476
60.395
60.3153
60.2368
60.1595
60.0834
60.0084
59.9346
59.8619
59.7902
59.7197
59.6502
59.5817
59.5142
59.4478
59.3824
59.3181
59.2548
59.1925
59.1313
59.0711
59.0121
58.9542
58.8974
58.8418
58.7874
58.7343
58.6825
58.6319
58.5828
58.5351
58.4888
58.4441
58.4009
58.3593
58.3194
58.2813
58.2448
58.2103
58.1776
58.1468
58.118
58.0912
58.0666
58.044
58.0237
58.0055
57.9897
57.9761
57.9649
57.9561
57.9497
57.9458
57.9444
57.9455
57.9492
57.9555
57.9644
57.9759
57.9901
58.007
58.0265
58.0488
58.0737
58.1014
58.1318
58.165
58.2008
58.2395
58.2808
58.3249
58.3717
58.4212
58.4734
58.5283
58.5858
58.646
58.7088
58.7742
58.8421
58.9126
58.9856
59.061
59.1389
59.2191
59.3017
59.3866
59.4736
59.5629
59.6543
59.7477
59.8431
59.9404
60.0395
60.1404
60.243
60.3473
60.453
60.5602
60.6687
60.7784
60.8894
61.0014
61.1143
61.2282
61.3427
61.458
61.5738
61.6901
61.8067
61.9236
62.0406
62.1577
62.2747
62.3915
62.5081
62.6243
62.7401
62.8554
62.97
63.0839
63.197
63.3093
63.4206
63.5308
63.64
63.748
63.8548
63.9603
64.0645
64.1673
64.2687
64.3686
64.467
64.5639
64.6593
64.753
64.8452
64.9358
65.0248
65.1121
65.1978
65.2819
65.3644
65.4453
65.5245
65.6022
65.6783
65.7528
65.8258
65.8973
65.9673
66.0359
66.103
66.1688
66.2332
66.2962
66.358
66.4185
66.4778
66.536
66.5929
66.649
66.7034
66.7581
66.8089
66.8658
66.9052
66.9861
67.2037
67.2017
67.1977
67.1917
67.1835
67.1733
67.1611
67.1467
67.1303
67.1118
67.0911
67.0682
67.0432
67.0159
66.9864
66.9546
66.9206
66.8841
66.8454
66.8042
66.7605
66.7145
66.6659
66.6148
66.5611
66.5049
66.446
66.3846
66.3205
66.2538
66.1844
66.1124
66.0377
65.9604
65.8805
65.7981
65.713
65.6255
65.5355
65.4431
65.3484
65.2515
65.1524
65.0513
64.9482
64.8432
64.7366
64.6283
64.5186
64.4076
64.2954
64.1822
64.0681
63.9533
63.8379
63.7221
63.606
63.4899
63.3737
63.2578
63.1421
63.0269
62.9123
62.7984
62.6852
62.573
62.4617
62.3516
62.2425
62.1348
62.0283
61.9231
61.8194
61.7171
61.6162
61.5168
61.4189
61.3225
61.2275
61.1341
61.0422
60.9517
60.8627
60.7751
60.689
60.6042
60.5208
60.4387
60.3579
60.2783
60.2
60.1229
60.0469
59.9721
59.8984
59.8258
59.7543
59.6838
59.6143
59.5459
59.4784
59.412
59.3466
59.2822
59.2188
59.1564
59.095
59.0347
58.9755
58.9174
58.8604
58.8045
58.7499
58.6965
58.6443
58.5935
58.544
58.496
58.4493
58.4042
58.3607
58.3188
58.2785
58.2399
58.2031
58.1682
58.1351
58.104
58.0748
58.0477
58.0227
57.9998
57.9791
57.9606
57.9445
57.9306
57.9191
57.91
57.9034
57.8993
57.8976
57.8985
57.902
57.9081
57.9169
57.9282
57.9423
57.959
57.9785
58.0006
58.0255
58.0532
58.0836
58.1167
58.1526
58.1912
58.2326
58.2767
58.3236
58.3732
58.4255
58.4805
58.5382
58.5986
58.6615
58.7272
58.7953
58.8661
58.9394
59.0151
59.0933
59.1739
59.2569
59.3421
59.4296
59.5193
59.6112
59.7051
59.801
59.8989
59.9987
60.1002
60.2035
60.3083
60.4148
60.5227
60.6319
60.7425
60.8542
60.967
61.0808
61.1954
61.3109
61.427
61.5437
61.6609
61.7784
61.8962
62.0141
62.1321
62.25
62.3678
62.4853
62.6024
62.7191
62.8352
62.9507
63.0654
63.1794
63.2924
63.4045
63.5155
63.6254
63.7341
63.8416
63.9478
64.0526
64.156
64.2579
64.3584
64.4573
64.5547
64.6505
64.7447
64.8373
64.9282
65.0175
65.1051
65.1911
65.2754
65.3581
65.4391
65.5185
65.5963
65.6725
65.7471
65.8201
65.8917
65.9617
66.0302
66.0974
66.1631
66.2274
66.2904
66.352
66.4125
66.4716
66.5297
66.5865
66.6424
66.6967
66.7512
66.8018
66.8585
66.8978
66.9785
67.2037
67.2017
67.1978
67.1917
67.1836
67.1735
67.1613
67.147
67.1307
67.1122
67.0916
67.0688
67.0439
67.0167
66.9873
66.9556
66.9216
66.8853
66.8465
66.8054
66.7618
66.7157
66.6671
66.6159
66.5621
66.5058
66.4468
66.3851
66.3208
66.2537
66.184
66.1116
66.0364
65.9586
65.8781
65.7949
65.7092
65.6209
65.53
65.4367
65.341
65.243
65.1428
65.0405
64.9362
64.83
64.722
64.6124
64.5014
64.3889
64.2753
64.1607
64.0452
63.929
63.8122
63.6951
63.5777
63.4602
63.3428
63.2256
63.1088
62.9925
62.8769
62.762
62.6479
62.5348
62.4228
62.3119
62.2023
62.094
61.987
61.8814
61.7773
61.6747
61.5736
61.474
61.376
61.2795
61.1846
61.0912
60.9993
60.9089
60.82
60.7326
60.6466
60.562
60.4788
60.3969
60.3163
60.2369
60.1588
60.0819
60.0061
59.9315
59.8579
59.7855
59.714
59.6436
59.5743
59.5059
59.4384
59.372
59.3066
59.2421
59.1786
59.1161
59.0546
58.9941
58.9347
58.8763
58.819
58.7629
58.708
58.6542
58.6017
58.5505
58.5007
58.4522
58.4052
58.3597
58.3158
58.2734
58.2327
58.1937
58.1565
58.1211
58.0876
58.056
58.0265
57.999
57.9735
57.9503
57.9292
57.9104
57.8938
57.8797
57.8678
57.8585
57.8515
57.8471
57.8452
57.8459
57.8492
57.8551
57.8636
57.8748
57.8887
57.9053
57.9247
57.9467
57.9716
57.9991
58.0295
58.0626
58.0985
58.1371
58.1786
58.2228
58.2697
58.3194
58.3718
58.427
58.4848
58.5454
58.6086
58.6744
58.7429
58.8139
58.8875
58.9636
59.0421
59.1231
59.2065
59.2922
59.3802
59.4704
59.5628
59.6573
59.7539
59.8524
59.9528
60.055
60.159
60.2647
60.3719
60.4806
60.5907
60.7021
60.8147
60.9284
61.0431
61.1587
61.2752
61.3923
61.51
61.6281
61.7467
61.8655
61.9844
62.1034
62.2224
62.3412
62.4597
62.5778
62.6955
62.8126
62.9291
63.0448
63.1597
63.2736
63.3866
63.4984
63.6092
63.7187
63.8269
63.9338
64.0393
64.1434
64.246
64.3471
64.4466
64.5445
64.6408
64.7354
64.8284
64.9197
65.0094
65.0973
65.1836
65.2682
65.3511
65.4323
65.5119
65.5898
65.6661
65.7408
65.8139
65.8854
65.9555
66.024
66.0911
66.1567
66.2209
66.2838
66.3454
66.4057
66.4647
66.5226
66.5793
66.635
66.6891
66.7435
66.7939
66.8504
66.8896
66.9699
67.2037
67.2018
67.1978
67.1918
67.1838
67.1737
67.1616
67.1474
67.1311
67.1127
67.0922
67.0696
67.0447
67.0177
66.9884
66.9568
66.9229
66.8866
66.8479
66.8068
66.7632
66.7171
66.6685
66.6173
66.5634
66.5069
66.4478
66.3859
66.3213
66.2539
66.1838
66.1109
66.0352
65.9568
65.8756
65.7918
65.7052
65.616
65.5242
65.4298
65.333
65.2339
65.1324
65.0288
64.9231
64.8155
64.706
64.5949
64.4823
64.3683
64.2532
64.1369
64.0198
63.902
63.7837
63.665
63.5461
63.4272
63.3084
63.1899
63.0718
62.9542
62.8374
62.7214
62.6063
62.4923
62.3794
62.2678
62.1575
62.0485
61.941
61.835
61.7305
61.6276
61.5263
61.4265
61.3284
61.2318
61.1369
61.0435
60.9517
60.8615
60.7727
60.6855
60.5997
60.5153
60.4323
60.3506
60.2703
60.1912
60.1133
60.0366
59.9611
59.8866
59.8133
59.741
59.6697
59.5994
59.5301
59.4618
59.3944
59.328
59.2625
59.1979
59.1343
59.0717
59.01
58.9493
58.8897
58.8311
58.7735
58.7171
58.6618
58.6077
58.5548
58.5032
58.4529
58.404
58.3566
58.3106
58.2662
58.2233
58.1822
58.1427
58.105
58.0691
58.0352
58.0031
57.9731
57.9451
57.9193
57.8956
57.8741
57.8548
57.8379
57.8234
57.8112
57.8015
57.7942
57.7895
57.7873
57.7877
57.7908
57.7964
57.8047
57.8158
57.8295
57.846
57.8652
57.8871
57.9119
57.9394
57.9697
58.0028
58.0386
58.0773
58.1188
58.163
58.2101
58.2599
58.3124
58.3678
58.4258
58.4865
58.55
58.6161
58.6848
58.7562
58.8301
58.9065
58.9855
59.0669
59.1508
59.237
59.3255
59.4163
59.5093
59.6044
59.7016
59.8008
59.902
60.005
60.1097
60.2162
60.3243
60.4339
60.5449
60.6573
60.7709
60.8856
61.0014
61.1181
61.2356
61.3538
61.4726
61.5919
61.7116
61.8315
61.9516
62.0718
62.1918
62.3118
62.4314
62.5507
62.6695
62.7877
62.9052
63.022
63.1379
63.2529
63.3668
63.4797
63.5913
63.7017
63.8108
63.9185
64.0248
64.1297
64.233
64.3347
64.4348
64.5333
64.6302
64.7254
64.8188
64.9106
65.0006
65.0889
65.1755
65.2603
65.3435
65.4249
65.5047
65.5827
65.6591
65.7339
65.8071
65.8786
65.9487
66.0172
66.0842
66.1498
66.2139
66.2767
66.3381
66.3983
66.4572
66.5149
66.5713
66.6269
66.6808
66.7349
66.7852
66.8414
66.8804
66.9604
67.2037
67.2018
67.1979
67.1919
67.1839
67.1739
67.1619
67.1478
67.1316
67.1133
67.093
67.0704
67.0457
67.0188
66.9896
66.9581
66.9243
66.8882
66.8496
66.8085
66.765
66.7189
66.6703
66.619
66.5651
66.5085
66.4491
66.387
66.3221
66.2544
66.1838
66.1104
66.0342
65.9551
65.8733
65.7886
65.7011
65.6109
65.5181
65.4226
65.3246
65.2241
65.1212
65.0162
64.909
64.7997
64.6887
64.5759
64.4615
64.3458
64.2288
64.1108
63.992
63.8724
63.7523
63.6319
63.5113
63.3908
63.2704
63.1504
63.0308
62.9119
62.7938
62.6766
62.5605
62.4454
62.3316
62.2191
62.1081
61.9985
61.8904
61.7839
61.679
61.5758
61.4742
61.3742
61.276
61.1794
61.0845
60.9912
60.8995
60.8094
60.7209
60.6338
60.5483
60.4642
60.3815
60.3001
60.22
60.1412
60.0636
59.9872
59.9119
59.8377
59.7646
59.6925
59.6214
59.5512
59.4821
59.4138
59.3464
59.28
59.2145
59.1499
59.0861
59.0234
58.9615
58.9006
58.8407
58.7818
58.7239
58.6671
58.6115
58.557
58.5037
58.4516
58.4009
58.3515
58.3035
58.2571
58.2121
58.1688
58.127
58.087
58.0488
58.0124
57.9779
57.9454
57.9148
57.8864
57.86
57.8358
57.8139
57.7942
57.7768
57.7618
57.7493
57.7392
57.7316
57.7265
57.724
57.7241
57.7269
57.7323
57.7404
57.7512
57.7647
57.781
57.8001
57.8219
57.8466
57.874
57.9043
57.9373
57.9732
58.0119
58.0534
58.0977
58.1448
58.1947
58.2474
58.3029
58.3611
58.4221
58.4858
58.5522
58.6212
58.6929
58.7672
58.844
58.9234
59.0053
59.0897
59.1764
59.2655
59.3569
59.4505
59.5463
59.6443
59.7443
59.8462
59.95
60.0557
60.1631
60.2721
60.3827
60.4948
60.6082
60.7229
60.8387
60.9556
61.0735
61.1921
61.3116
61.4316
61.5521
61.6731
61.7943
61.9156
62.0371
62.1584
62.2796
62.4005
62.521
62.6411
62.7605
62.8792
62.9972
63.1142
63.2303
63.3453
63.4592
63.5719
63.6833
63.7933
63.902
64.0091
64.1148
64.2189
64.3213
64.4222
64.5213
64.6188
64.7145
64.8085
64.9007
64.9912
65.0799
65.1668
65.2519
65.3353
65.417
65.4969
65.5751
65.6517
65.7265
65.7997
65.8713
65.9414
66.0098
66.0768
66.1423
66.2063
66.269
66.3303
66.3903
66.449
66.5065
66.5627
66.618
66.6718
66.7256
66.7757
66.8316
66.8705
66.95
67.2037
67.2018
67.1979
67.192
67.1841
67.1741
67.1622
67.1482
67.1322
67.1141
67.0938
67.0714
67.0469
67.0201
66.991
66.9597
66.926
66.89
66.8515
66.8106
66.7671
66.7211
66.6724
66.6211
66.5671
66.5104
66.4508
66.3885
66.3233
66.2552
66.1842
66.1103
66.0335
65.9537
65.8711
65.7855
65.6971
65.6058
65.5118
65.4151
65.3157
65.2138
65.1094
65.0027
64.8938
64.7829
64.67
64.5553
64.4391
64.3214
64.2025
64.0825
63.9616
63.8401
63.7181
63.5958
63.4733
63.351
63.2289
63.1072
62.9861
62.8657
62.7461
62.6276
62.5102
62.3941
62.2793
62.1659
62.054
61.9437
61.835
61.728
61.6227
61.5192
61.4173
61.3172
61.2189
61.1223
61.0274
60.9342
60.8427
60.7528
60.6645
60.5777
60.4925
60.4087
60.3263
60.2453
60.1656
60.0871
60.0098
59.9338
59.8588
59.7849
59.712
59.6401
59.5692
59.4992
59.4302
59.362
59.2947
59.2283
59.1627
59.098
59.0342
58.9713
58.9092
58.8481
58.7879
58.7287
58.6704
58.6133
58.5572
58.5022
58.4485
58.3959
58.3447
58.2948
58.2463
58.1992
58.1537
58.1098
58.0675
58.0269
57.9881
57.9511
57.916
57.8829
57.8518
57.8227
57.7958
57.7711
57.7487
57.7285
57.7107
57.6952
57.6822
57.6717
57.6637
57.6583
57.6554
57.6552
57.6577
57.6628
57.6707
57.6812
57.6946
57.7107
57.7296
57.7513
57.7758
57.8032
57.8334
57.8664
57.9022
57.9409
57.9825
58.0269
58.0741
58.1241
58.1769
58.2326
58.291
58.3522
58.4161
58.4828
58.5522
58.6242
58.6989
58.7762
58.856
58.9384
59.0233
59.1106
59.2003
59.2924
59.3867
59.4833
59.582
59.6828
59.7856
59.8903
59.9969
60.1053
60.2154
60.3271
60.4402
60.5548
60.6707
60.7877
60.9059
61.025
61.145
61.2657
61.3871
61.509
61.6313
61.7539
61.8766
61.9994
62.1222
62.2447
62.367
62.4889
62.6103
62.731
62.8511
62.9703
63.0886
63.2059
63.3222
63.4372
63.551
63.6635
63.7746
63.8842
63.9923
64.0989
64.2038
64.3071
64.4087
64.5085
64.6066
64.703
64.7975
64.8902
64.9812
65.0703
65.1576
65.243
65.3267
65.4086
65.4888
65.5671
65.6438
65.7187
65.792
65.8636
65.9336
66.002
66.0689
66.1343
66.1982
66.2607
66.3218
66.3816
66.4401
66.4974
66.5534
66.6085
66.662
66.7156
66.7654
66.821
66.8596
66.9387
67.2037
67.2018
67.198
67.1921
67.1843
67.1744
67.1626
67.1487
67.1328
67.1149
67.0948
67.0726
67.0482
67.0216
66.9927
66.9616
66.9281
66.8922
66.8538
66.813
66.7696
66.7236
66.675
66.6237
66.5696
66.5128
66.4531
66.3905
66.325
66.2565
66.1851
66.1106
66.0332
65.9527
65.8692
65.7827
65.6932
65.6008
65.5055
65.4074
65.3066
65.2031
65.097
64.9886
64.8778
64.7649
64.65
64.5333
64.4149
64.2951
64.174
64.0519
63.9288
63.8051
63.681
63.5566
63.4321
63.3078
63.1838
63.0602
62.9374
62.8154
62.6943
62.5744
62.4557
62.3383
62.2224
62.1081
61.9953
61.8843
61.775
61.6674
61.5617
61.4578
61.3557
61.2555
61.1571
61.0605
60.9657
60.8727
60.7813
60.6917
60.6037
60.5173
60.4324
60.349
60.267
60.1863
60.107
60.029
59.9521
59.8764
59.8018
59.7282
59.6556
59.584
59.5134
59.4436
59.3747
59.3066
59.2394
59.173
59.1074
59.0426
58.9787
58.9156
58.8533
58.7919
58.7314
58.6719
58.6133
58.5557
58.4991
58.4437
58.3894
58.3363
58.2845
58.234
58.1849
58.1373
58.0911
58.0465
58.0036
57.9624
57.9229
57.8853
57.8496
57.8158
57.7841
57.7545
57.727
57.7017
57.6787
57.658
57.6396
57.6237
57.6102
57.5993
57.5908
57.585
57.5818
57.5812
57.5833
57.5882
57.5957
57.6061
57.6192
57.6351
57.6538
57.6754
57.6998
57.727
57.7571
57.7901
57.8259
57.8646
57.9062
57.9507
57.998
58.0481
58.1011
58.1569
58.2155
58.277
58.3412
58.4081
58.4778
58.5502
58.6253
58.703
58.7834
58.8663
58.9517
59.0397
59.13
59.2228
59.3179
59.4152
59.5148
59.6164
59.7202
59.8259
59.9336
60.043
60.1542
60.267
60.3814
60.4972
60.6143
60.7327
60.8522
60.9727
61.0941
61.2162
61.3391
61.4624
61.5862
61.7103
61.8346
61.9589
62.0832
62.2072
62.331
62.4544
62.5772
62.6994
62.8209
62.9415
63.0612
63.1799
63.2974
63.4137
63.5287
63.6424
63.7546
63.8653
63.9744
64.0819
64.1878
64.292
64.3944
64.495
64.5938
64.6908
64.7859
64.8792
64.9706
65.0602
65.1479
65.2337
65.3177
65.3998
65.4802
65.5587
65.6355
65.7105
65.7838
65.8554
65.9254
65.9938
66.0606
66.1258
66.1896
66.2519
66.3129
66.3725
66.4307
66.4878
66.5435
66.5983
66.6515
66.7048
66.7543
66.8097
66.848
66.9266
67.2037
67.2018
67.198
67.1922
67.1845
67.1748
67.163
67.1493
67.1336
67.1158
67.0959
67.0739
67.0497
67.0233
66.9946
66.9637
66.9304
66.8947
66.8565
66.8158
66.7726
66.7267
66.6781
66.6268
66.5727
66.5158
66.4559
66.3931
66.3273
66.2584
66.1865
66.1115
66.0334
65.9521
65.8677
65.7802
65.6896
65.596
65.4993
65.3997
65.2973
65.1921
65.0842
64.9738
64.861
64.746
64.6289
64.5099
64.3892
64.267
64.1436
64.019
63.8936
63.7675
63.641
63.5143
63.3876
63.2611
63.135
63.0095
62.8848
62.761
62.6382
62.5168
62.3967
62.278
62.161
62.0456
61.9319
61.8201
61.7101
61.6021
61.4959
61.3917
61.2894
61.1891
61.0906
60.9941
60.8994
60.8066
60.7155
60.6262
60.5385
60.4525
60.3681
60.2851
60.2036
60.1234
60.0446
59.967
59.8906
59.8153
59.7411
59.6679
59.5957
59.5244
59.454
59.3845
59.3158
59.2478
59.1807
59.1143
59.0487
58.9839
58.9198
58.8565