/*--------------------------------*- C++ -*----------------------------------*\
| =========                 |                                                 |
| \\      /  F ield         | OpenFOAM: The Open Source CFD Toolbox           |
|  \\    /   O peration     | Version:  2306                                  |
|   \\  /    A nd           | Website:  www.openfoam.com                      |
|    \\/     M anipulation  |                                                 |
\*---------------------------------------------------------------------------*/
FoamFile
{
    version     2.0;
    format      ascii;
    arch        "LSB;label=32;scalar=64";
    class       volScalarField;
    location    "9.5";
    object      p;
}
// * * * * * * * * * * * * * * * * * * * * * * * * * * * * * * * * * * * * * //

dimensions      [0 2 -2 0 0 0 0];

internalField   nonuniform List<scalar> 
32768
(
0.271553
0.27142
0.27113
0.270672
0.270049
0.269262
0.26831
0.267193
0.265908
0.264453
0.262826
0.261026
0.259049
0.256894
0.254557
0.252036
0.249328
0.246429
0.243336
0.240047
0.236556
0.232862
0.228961
0.224849
0.220523
0.21598
0.211216
0.206228
0.201014
0.19557
0.189895
0.183987
0.177843
0.171461
0.164842
0.157985
0.150889
0.143555
0.135984
0.128178
0.120139
0.11187
0.103374
0.0946566
0.0857216
0.0765749
0.0672231
0.0576732
0.0479328
0.0380104
0.0279148
0.0176556
0.00724296
-0.00331269
-0.0140004
-0.0248087
-0.0357261
-0.0467407
-0.0578405
-0.0690133
-0.0802471
-0.0915297
-0.102849
-0.114193
-0.125551
-0.136912
-0.148263
-0.159596
-0.170899
-0.182164
-0.193381
-0.204542
-0.21564
-0.226666
-0.237615
-0.24848
-0.259257
-0.269939
-0.280524
-0.291007
-0.301385
-0.311656
-0.321818
-0.331869
-0.341808
-0.351634
-0.361347
-0.370946
-0.380431
-0.389803
-0.399062
-0.408208
-0.417243
-0.426166
-0.434978
-0.44368
-0.452271
-0.460753
-0.469125
-0.477388
-0.48554
-0.493581
-0.501511
-0.509328
-0.51703
-0.524617
-0.532085
-0.539433
-0.546657
-0.553755
-0.560723
-0.567557
-0.574255
-0.58081
-0.587219
-0.593477
-0.599578
-0.605519
-0.611292
-0.616893
-0.622316
-0.627555
-0.632604
-0.637458
-0.642109
-0.646552
-0.650782
-0.654791
-0.658575
-0.662128
-0.665443
-0.668516
-0.671341
-0.673913
-0.676228
-0.67828
-0.680066
-0.681581
-0.682822
-0.683784
-0.684466
-0.684864
-0.684975
-0.684798
-0.684331
-0.683572
-0.68252
-0.681176
-0.679538
-0.677607
-0.675383
-0.672867
-0.670061
-0.666967
-0.663585
-0.65992
-0.655973
-0.651749
-0.64725
-0.64248
-0.637445
-0.632149
-0.626597
-0.620795
-0.614748
-0.608463
-0.601946
-0.595204
-0.588245
-0.581076
-0.573705
-0.56614
-0.558389
-0.550462
-0.542368
-0.534115
-0.525712
-0.517171
-0.508501
-0.499711
-0.490811
-0.481814
-0.472727
-0.463563
-0.454331
-0.445043
-0.435708
-0.426337
-0.416941
-0.407529
-0.398113
-0.388702
-0.379306
-0.369934
-0.360597
-0.351302
-0.34206
-0.332878
-0.323765
-0.314729
-0.305776
-0.296915
-0.288152
-0.279492
-0.270943
-0.262509
-0.254196
-0.246007
-0.237948
-0.230021
-0.222231
-0.214579
-0.207068
-0.1997
-0.192477
-0.1854
-0.178469
-0.171685
-0.165048
-0.158557
-0.152213
-0.146013
-0.139958
-0.134044
-0.128271
-0.122636
-0.117138
-0.111773
-0.106539
-0.101433
-0.0964527
-0.0915941
-0.0868544
-0.08223
-0.0777175
-0.0733133
-0.0690137
-0.0648151
-0.0607138
-0.0567058
-0.0527874
-0.0489548
-0.0452041
-0.0415315
-0.0379332
-0.0344053
-0.030944
-0.0275461
-0.0242065
-0.0209249
-0.0176896
-0.0145168
-0.0113557
-0.00831494
-0.00510856
-0.00232961
0.271714
0.271581
0.271292
0.270834
0.270211
0.269425
0.268474
0.267358
0.266073
0.264619
0.262994
0.261195
0.259219
0.257065
0.25473
0.25221
0.249503
0.246605
0.243513
0.240225
0.236736
0.233042
0.229142
0.22503
0.220704
0.216161
0.211396
0.206408
0.201192
0.195747
0.19007
0.184159
0.178012
0.171628
0.165005
0.158143
0.151042
0.143703
0.136125
0.128313
0.120266
0.111989
0.103484
0.0947574
0.0858125
0.0766556
0.067293
0.0577319
0.0479799
0.0380454
0.0279376
0.017666
0.00724067
-0.00332773
-0.0140282
-0.0248493
-0.0357793
-0.0468064
-0.0579184
-0.0691032
-0.0803485
-0.0916422
-0.102972
-0.114327
-0.125694
-0.137064
-0.148424
-0.159764
-0.171074
-0.182345
-0.193568
-0.204735
-0.215836
-0.226866
-0.237818
-0.248686
-0.259464
-0.270148
-0.280733
-0.291216
-0.301594
-0.311864
-0.322025
-0.332074
-0.342011
-0.351835
-0.361545
-0.371141
-0.380624
-0.389993
-0.399249
-0.408393
-0.417425
-0.426345
-0.435154
-0.443854
-0.452443
-0.460923
-0.469294
-0.477554
-0.485705
-0.493746
-0.501675
-0.509491
-0.517194
-0.524781
-0.53225
-0.539598
-0.546824
-0.553924
-0.560894
-0.567731
-0.57443
-0.580988
-0.587401
-0.593662
-0.599767
-0.605711
-0.611489
-0.617094
-0.622521
-0.627764
-0.632818
-0.637675
-0.642331
-0.646779
-0.651012
-0.655027
-0.658815
-0.662372
-0.665691
-0.668768
-0.671598
-0.674174
-0.676492
-0.678548
-0.680338
-0.681856
-0.6831
-0.684065
-0.684749
-0.68515
-0.685263
-0.685088
-0.684623
-0.683866
-0.682816
-0.681473
-0.679836
-0.677906
-0.675683
-0.673168
-0.670362
-0.667267
-0.663886
-0.66022
-0.656273
-0.652047
-0.647547
-0.642777
-0.637741
-0.632443
-0.626889
-0.621084
-0.615035
-0.608747
-0.602227
-0.595483
-0.58852
-0.581347
-0.573972
-0.566403
-0.558649
-0.550717
-0.542617
-0.534359
-0.525952
-0.517405
-0.508728
-0.499932
-0.491027
-0.482023
-0.47293
-0.463759
-0.45452
-0.445224
-0.435882
-0.426504
-0.4171
-0.407681
-0.398257
-0.388838
-0.379434
-0.370055
-0.360709
-0.351407
-0.342157
-0.332967
-0.323847
-0.314803
-0.305843
-0.296975
-0.288204
-0.279538
-0.270982
-0.262542
-0.254222
-0.246028
-0.237963
-0.230031
-0.222235
-0.214578
-0.207062
-0.19969
-0.192463
-0.185382
-0.178447
-0.17166
-0.16502
-0.158527
-0.15218
-0.145979
-0.139921
-0.134006
-0.128232
-0.122596
-0.117097
-0.111731
-0.106497
-0.101391
-0.0964108
-0.0915525
-0.0868133
-0.0821895
-0.0776779
-0.0732746
-0.0689762
-0.0647789
-0.060679
-0.0566725
-0.0527558
-0.0489249
-0.045176
-0.0415052
-0.0379088
-0.034383
-0.0309237
-0.0275279
-0.0241903
-0.0209109
-0.0176775
-0.0145073
-0.0113467
-0.00831034
-0.00509831
-0.00233907
0.272038
0.271905
0.271615
0.271159
0.270537
0.269752
0.268802
0.267688
0.266405
0.264953
0.26333
0.261533
0.25956
0.257408
0.255075
0.252558
0.249853
0.246958
0.243868
0.240582
0.237094
0.233403
0.229503
0.225392
0.221067
0.216523
0.211758
0.206768
0.20155
0.196102
0.190421
0.184506
0.178353
0.171962
0.165331
0.15846
0.151349
0.143998
0.136408
0.128582
0.12052
0.112227
0.103705
0.0949595
0.0859951
0.0768175
0.0674333
0.0578496
0.0480743
0.0381158
0.0279834
0.0176867
0.00723599
-0.00335801
-0.0140841
-0.0249308
-0.0358863
-0.0469384
-0.058075
-0.0692837
-0.0805523
-0.0918684
-0.10322
-0.114595
-0.125982
-0.137369
-0.148746
-0.160102
-0.171426
-0.18271
-0.193944
-0.205121
-0.216231
-0.227268
-0.238226
-0.249098
-0.25988
-0.270566
-0.281152
-0.291635
-0.302012
-0.312281
-0.322439
-0.332485
-0.342418
-0.352237
-0.361942
-0.371534
-0.381011
-0.390374
-0.399625
-0.408763
-0.417789
-0.426703
-0.435508
-0.444202
-0.452787
-0.461263
-0.46963
-0.477888
-0.486036
-0.494075
-0.502003
-0.509819
-0.517522
-0.525109
-0.53258
-0.53993
-0.547159
-0.554262
-0.561236
-0.568077
-0.574782
-0.581346
-0.587764
-0.594032
-0.600145
-0.606096
-0.611882
-0.617495
-0.62293
-0.628182
-0.633244
-0.638111
-0.642776
-0.647232
-0.651475
-0.655498
-0.659295
-0.662861
-0.666189
-0.669274
-0.672112
-0.674696
-0.677022
-0.679085
-0.680881
-0.682406
-0.683656
-0.684628
-0.685318
-0.685723
-0.685842
-0.685671
-0.68521
-0.684456
-0.683409
-0.682069
-0.680434
-0.678506
-0.676284
-0.67377
-0.670965
-0.66787
-0.664489
-0.660822
-0.656874
-0.652647
-0.648145
-0.643372
-0.638332
-0.633031
-0.627473
-0.621664
-0.61561
-0.609317
-0.602792
-0.596041
-0.589072
-0.581892
-0.574509
-0.566932
-0.559168
-0.551227
-0.543118
-0.53485
-0.526432
-0.517874
-0.509185
-0.500377
-0.49146
-0.482442
-0.473336
-0.464151
-0.454898
-0.445588
-0.436231
-0.426838
-0.417419
-0.407985
-0.398545
-0.389111
-0.379691
-0.370296
-0.360935
-0.351617
-0.342352
-0.333147
-0.324011
-0.314952
-0.305977
-0.297094
-0.28831
-0.27963
-0.27106
-0.262607
-0.254275
-0.246069
-0.237992
-0.230049
-0.222243
-0.214576
-0.207051
-0.19967
-0.192435
-0.185346
-0.178404
-0.171611
-0.164965
-0.158467
-0.152115
-0.145909
-0.139848
-0.13393
-0.128153
-0.122515
-0.117014
-0.111648
-0.106413
-0.101307
-0.0963267
-0.0914691
-0.0867308
-0.0821084
-0.0775984
-0.0731972
-0.068901
-0.0647063
-0.0606091
-0.0566057
-0.0526922
-0.0488647
-0.0451195
-0.0414525
-0.0378599
-0.0343381
-0.0308829
-0.0274913
-0.0241579
-0.0208827
-0.0176535
-0.0144876
-0.011331
-0.00829919
-0.00509089
-0.00233966
0.272522
0.272389
0.272101
0.271645
0.271025
0.270241
0.269294
0.268182
0.266902
0.265453
0.263833
0.26204
0.260071
0.257923
0.255593
0.25308
0.250379
0.247487
0.244401
0.241118
0.237633
0.233944
0.230046
0.225936
0.221611
0.217067
0.212301
0.207309
0.202088
0.196635
0.190949
0.185026
0.178864
0.172463
0.165821
0.158936
0.15181
0.144442
0.136834
0.128986
0.120902
0.112585
0.104037
0.0952635
0.0862695
0.0770608
0.067644
0.0580264
0.0482159
0.0382213
0.0280518
0.0177173
0.00722833
-0.00340425
-0.0141691
-0.0250543
-0.036048
-0.0471379
-0.0583115
-0.0695563
-0.0808598
-0.0922097
-0.103593
-0.114999
-0.126415
-0.137829
-0.149232
-0.160611
-0.171956
-0.183259
-0.194511
-0.205702
-0.216825
-0.227873
-0.23884
-0.249719
-0.260506
-0.271195
-0.281782
-0.292266
-0.302641
-0.312907
-0.323061
-0.333102
-0.343029
-0.352841
-0.362539
-0.372122
-0.381591
-0.390946
-0.400188
-0.409317
-0.418335
-0.427241
-0.436038
-0.444725
-0.453303
-0.461773
-0.470135
-0.478388
-0.486533
-0.494568
-0.502494
-0.51031
-0.518012
-0.525601
-0.533074
-0.540428
-0.54766
-0.554768
-0.561749
-0.568597
-0.57531
-0.581882
-0.58831
-0.594588
-0.600711
-0.606674
-0.612471
-0.618097
-0.623545
-0.62881
-0.633885
-0.638765
-0.643443
-0.647914
-0.65217
-0.656206
-0.660017
-0.663595
-0.666936
-0.670034
-0.672884
-0.67548
-0.677817
-0.679892
-0.681698
-0.683233
-0.684493
-0.685473
-0.686171
-0.686584
-0.68671
-0.686546
-0.686091
-0.685342
-0.6843
-0.682964
-0.681333
-0.679407
-0.677188
-0.674675
-0.671871
-0.668776
-0.665394
-0.661726
-0.657776
-0.653547
-0.649042
-0.644265
-0.639221
-0.633915
-0.628351
-0.622536
-0.616475
-0.610174
-0.60364
-0.596879
-0.5899
-0.582709
-0.575315
-0.567726
-0.559949
-0.551994
-0.543871
-0.535587
-0.527153
-0.518578
-0.509873
-0.501046
-0.49211
-0.483073
-0.473947
-0.464741
-0.455467
-0.446136
-0.436757
-0.427341
-0.417899
-0.408442
-0.398979
-0.389521
-0.380078
-0.370659
-0.361274
-0.351933
-0.342644
-0.333416
-0.324257
-0.315175
-0.306179
-0.297274
-0.288468
-0.279768
-0.271178
-0.262705
-0.254355
-0.24613
-0.238036
-0.230076
-0.222254
-0.214573
-0.207034
-0.19964
-0.192392
-0.185292
-0.17834
-0.171536
-0.164882
-0.158375
-0.152017
-0.145805
-0.139738
-0.133815
-0.128034
-0.122394
-0.11689
-0.111522
-0.106286
-0.10118
-0.0962001
-0.0913434
-0.0866066
-0.0819862
-0.0774788
-0.0730805
-0.0687879
-0.064597
-0.060504
-0.0565052
-0.0525966
-0.0487743
-0.0450344
-0.0413731
-0.0377864
-0.0342706
-0.0308216
-0.0274362
-0.0241091
-0.0208404
-0.0176176
-0.014458
-0.0113078
-0.00828262
-0.00508076
-0.00233619
0.273167
0.273035
0.272747
0.272293
0.271675
0.270894
0.26995
0.268841
0.267565
0.26612
0.264504
0.262716
0.260751
0.258608
0.256284
0.253776
0.25108
0.248193
0.245112
0.241832
0.238352
0.234666
0.23077
0.226663
0.222338
0.217794
0.213026
0.208031
0.202806
0.197348
0.191654
0.185722
0.179549
0.173134
0.166476
0.159574
0.152427
0.145037
0.137403
0.129528
0.121414
0.113064
0.104481
0.0956702
0.0866367
0.0773863
0.0679258
0.0582626
0.048405
0.0383618
0.0281425
0.0177573
0.00721695
-0.00346743
-0.0142842
-0.0252212
-0.0362662
-0.0474067
-0.0586299
-0.0699232
-0.0812736
-0.0926686
-0.104096
-0.115542
-0.126997
-0.138448
-0.149884
-0.161294
-0.172668
-0.183997
-0.195271
-0.206482
-0.217622
-0.228684
-0.239663
-0.250551
-0.261344
-0.272037
-0.282626
-0.293109
-0.303483
-0.313744
-0.323893
-0.333927
-0.343845
-0.353648
-0.363336
-0.372908
-0.382366
-0.391709
-0.400939
-0.410057
-0.419063
-0.427958
-0.436744
-0.445422
-0.453991
-0.462452
-0.470807
-0.479054
-0.487193
-0.495226
-0.503149
-0.510963
-0.518666
-0.526256
-0.533732
-0.54109
-0.548328
-0.555444
-0.562432
-0.56929
-0.576013
-0.582597
-0.589038
-0.595329
-0.601467
-0.607445
-0.613258
-0.6189
-0.624365
-0.629648
-0.634741
-0.639638
-0.644335
-0.648823
-0.653098
-0.657152
-0.66098
-0.664576
-0.667935
-0.67105
-0.673916
-0.676527
-0.67888
-0.680969
-0.68279
-0.684338
-0.68561
-0.686603
-0.687312
-0.687736
-0.687871
-0.687715
-0.687268
-0.686527
-0.685491
-0.68416
-0.682533
-0.680612
-0.678395
-0.675884
-0.673081
-0.669987
-0.666604
-0.662935
-0.658983
-0.65475
-0.650241
-0.645459
-0.640409
-0.635096
-0.629525
-0.623701
-0.61763
-0.611319
-0.604774
-0.598001
-0.591008
-0.583803
-0.576393
-0.568787
-0.560993
-0.55302
-0.544877
-0.536573
-0.528117
-0.51952
-0.510792
-0.501941
-0.492979
-0.483917
-0.474764
-0.465531
-0.456229
-0.446868
-0.43746
-0.428014
-0.418542
-0.409053
-0.39956
-0.39007
-0.380595
-0.371145
-0.361729
-0.352356
-0.343035
-0.333776
-0.324587
-0.315475
-0.306448
-0.297514
-0.28868
-0.279952
-0.271335
-0.262837
-0.25446
-0.246212
-0.238095
-0.230113
-0.22227
-0.214568
-0.20701
-0.199598
-0.192334
-0.185219
-0.178252
-0.171436
-0.16477
-0.158253
-0.151885
-0.145664
-0.13959
-0.133661
-0.127875
-0.12223
-0.116724
-0.111354
-0.106117
-0.10101
-0.0960305
-0.091175
-0.0864402
-0.0818226
-0.0773185
-0.0729243
-0.0686362
-0.0644505
-0.0603632
-0.0563705
-0.0524684
-0.0486531
-0.0449205
-0.0412668
-0.0376879
-0.0341802
-0.0307394
-0.0273624
-0.0240438
-0.0207837
-0.0175695
-0.0144186
-0.0112769
-0.00826034
-0.005067
-0.00233079
0.273972
0.273841
0.273554
0.273102
0.272486
0.271708
0.270768
0.269663
0.268392
0.266953
0.265343
0.26356
0.261602
0.259465
0.257148
0.254646
0.251957
0.249076
0.246001
0.242727
0.239251
0.235569
0.231678
0.227572
0.223249
0.218705
0.213935
0.208937
0.203707
0.198242
0.192538
0.186594
0.180407
0.173976
0.167298
0.160374
0.153202
0.145783
0.138118
0.130208
0.122057
0.113665
0.105039
0.0961811
0.0870977
0.0777948
0.0682792
0.0585587
0.0486416
0.0385372
0.0282551
0.017806
0.00720083
-0.00354887
-0.0144311
-0.0254334
-0.0365431
-0.0477474
-0.0590332
-0.0703873
-0.0817968
-0.0932486
-0.10473
-0.116229
-0.127732
-0.139228
-0.150706
-0.162155
-0.173565
-0.184925
-0.196228
-0.207464
-0.218625
-0.229705
-0.240698
-0.251597
-0.262397
-0.273095
-0.283687
-0.294169
-0.304539
-0.314795
-0.324936
-0.334961
-0.344869
-0.35466
-0.364335
-0.373893
-0.383336
-0.392664
-0.401879
-0.410982
-0.419973
-0.428855
-0.437627
-0.446292
-0.454849
-0.4633
-0.471645
-0.479885
-0.488018
-0.496045
-0.503966
-0.511778
-0.519482
-0.527074
-0.534553
-0.541917
-0.549162
-0.556286
-0.563285
-0.570155
-0.576891
-0.58349
-0.589947
-0.596256
-0.602412
-0.608409
-0.614242
-0.619905
-0.625392
-0.630696
-0.635811
-0.640732
-0.645451
-0.649962
-0.65426
-0.658337
-0.662187
-0.665806
-0.669186
-0.672322
-0.675208
-0.67784
-0.680212
-0.68232
-0.684158
-0.685723
-0.687011
-0.688019
-0.688742
-0.689179
-0.689326
-0.689181
-0.688744
-0.688012
-0.686984
-0.68566
-0.684039
-0.682122
-0.679908
-0.6774
-0.674599
-0.671505
-0.668121
-0.664451
-0.660495
-0.656259
-0.651744
-0.646957
-0.6419
-0.636578
-0.630997
-0.625163
-0.61908
-0.612756
-0.606196
-0.599407
-0.592398
-0.585175
-0.577746
-0.57012
-0.562304
-0.554308
-0.54614
-0.537811
-0.529328
-0.520703
-0.511945
-0.503065
-0.494071
-0.484976
-0.47579
-0.466522
-0.457185
-0.447788
-0.438342
-0.428859
-0.419348
-0.409821
-0.400288
-0.390759
-0.381245
-0.371755
-0.362299
-0.352886
-0.343526
-0.334228
-0.325
-0.31585
-0.306786
-0.297816
-0.288946
-0.280182
-0.271532
-0.263001
-0.254593
-0.246314
-0.238167
-0.230158
-0.222288
-0.214561
-0.20698
-0.199546
-0.192261
-0.185126
-0.178142
-0.17131
-0.164628
-0.158098
-0.151718
-0.145487
-0.139404
-0.133468
-0.127675
-0.122025
-0.116515
-0.111142
-0.105903
-0.100796
-0.095817
-0.0909631
-0.0862308
-0.0816166
-0.0771168
-0.0727277
-0.0684455
-0.0642662
-0.0601861
-0.0562011
-0.0523073
-0.0485007
-0.0447772
-0.0411331
-0.0375641
-0.0340665
-0.030636
-0.0272696
-0.0239617
-0.0207124
-0.017509
-0.0143689
-0.0112381
-0.00823224
-0.00504971
-0.00232383
0.274937
0.274806
0.274521
0.274071
0.273458
0.272684
0.271749
0.270649
0.269384
0.267951
0.266348
0.264573
0.262622
0.260494
0.258184
0.255691
0.253009
0.250136
0.247068
0.243802
0.240332
0.236656
0.232768
0.228666
0.224345
0.2198
0.215029
0.210028
0.204792
0.199318
0.193604
0.187646
0.181443
0.174991
0.168291
0.161339
0.154137
0.146684
0.138981
0.13103
0.122833
0.114392
0.105712
0.0967977
0.0876541
0.0782875
0.0687053
0.0589152
0.0489261
0.0387473
0.0283892
0.0178625
0.00717868
-0.00365025
-0.0146119
-0.0256933
-0.0368815
-0.0481631
-0.0595246
-0.0709526
-0.0824335
-0.0939541
-0.105501
-0.117062
-0.128624
-0.140175
-0.151705
-0.1632
-0.174652
-0.186051
-0.197387
-0.208652
-0.219839
-0.23094
-0.241949
-0.252861
-0.263671
-0.274374
-0.284967
-0.295448
-0.305814
-0.316063
-0.326194
-0.336207
-0.346102
-0.355878
-0.365536
-0.375077
-0.384502
-0.393812
-0.403008
-0.412093
-0.421066
-0.42993
-0.438686
-0.447335
-0.455878
-0.464316
-0.47265
-0.48088
-0.489006
-0.497027
-0.504944
-0.512755
-0.520459
-0.528053
-0.535537
-0.542908
-0.550162
-0.557296
-0.564308
-0.571192
-0.577945
-0.584562
-0.591038
-0.597367
-0.603546
-0.609566
-0.615424
-0.621112
-0.626625
-0.631956
-0.637099
-0.642047
-0.646793
-0.651333
-0.655658
-0.659762
-0.66364
-0.667285
-0.670692
-0.673853
-0.676765
-0.679421
-0.681816
-0.683946
-0.685806
-0.687391
-0.688698
-0.689724
-0.690464
-0.690916
-0.691078
-0.690947
-0.690522
-0.6898
-0.688782
-0.687466
-0.685852
-0.68394
-0.681731
-0.679226
-0.676426
-0.673333
-0.669949
-0.666276
-0.662317
-0.658076
-0.653556
-0.648761
-0.643695
-0.638363
-0.632771
-0.626924
-0.620827
-0.614487
-0.60791
-0.601103
-0.594073
-0.586829
-0.579377
-0.571726
-0.563884
-0.55586
-0.547663
-0.539303
-0.530789
-0.52213
-0.513337
-0.50442
-0.495389
-0.486254
-0.477027
-0.467718
-0.458338
-0.448897
-0.439407
-0.429879
-0.420322
-0.410748
-0.401168
-0.391591
-0.382029
-0.372491
-0.362987
-0.353526
-0.344119
-0.334774
-0.325499
-0.316303
-0.307194
-0.298179
-0.289266
-0.28046
-0.271769
-0.263198
-0.254752
-0.246436
-0.238254
-0.230211
-0.222309
-0.214552
-0.206942
-0.199482
-0.192172
-0.185014
-0.178008
-0.171156
-0.164457
-0.157911
-0.151516
-0.145273
-0.139179
-0.133233
-0.127433
-0.121776
-0.116261
-0.110885
-0.105644
-0.100537
-0.0955586
-0.0907067
-0.0859775
-0.0813675
-0.0768729
-0.07249
-0.0682148
-0.0640434
-0.0599719
-0.0559963
-0.0521124
-0.0483164
-0.044604
-0.0409714
-0.0374143
-0.033929
-0.0305111
-0.0271574
-0.0238625
-0.0206261
-0.0174359
-0.0143089
-0.0111912
-0.00819825
-0.00502884
-0.00231532
0.276061
0.275931
0.275648
0.2752
0.274591
0.273822
0.272891
0.271798
0.27054
0.269115
0.26752
0.265753
0.263812
0.261693
0.259393
0.256909
0.254238
0.251374
0.248315
0.245057
0.241595
0.237926
0.234044
0.229946
0.225627
0.221083
0.216311
0.211305
0.206063
0.20058
0.194854
0.18888
0.182657
0.176183
0.169455
0.162473
0.155235
0.147743
0.139995
0.131995
0.123744
0.115246
0.106504
0.0975222
0.0883075
0.078866
0.069205
0.0593328
0.0492586
0.0389921
0.028544
0.0179256
0.00714892
-0.00377364
-0.0148291
-0.026004
-0.0372849
-0.0486578
-0.0601087
-0.0716236
-0.0831888
-0.0947903
-0.106415
-0.118049
-0.12968
-0.141296
-0.152884
-0.164435
-0.175937
-0.18738
-0.198755
-0.210055
-0.22127
-0.232395
-0.243423
-0.254349
-0.265169
-0.275877
-0.286472
-0.29695
-0.30731
-0.31755
-0.32767
-0.337669
-0.347546
-0.357304
-0.366942
-0.376462
-0.385866
-0.395153
-0.404327
-0.413389
-0.422341
-0.431184
-0.43992
-0.448551
-0.457077
-0.4655
-0.47382
-0.482039
-0.490155
-0.49817
-0.506082
-0.513891
-0.521595
-0.529193
-0.536682
-0.54406
-0.551325
-0.558472
-0.565499
-0.5724
-0.579173
-0.585811
-0.59231
-0.598664
-0.604869
-0.610917
-0.616804
-0.622522
-0.628066
-0.633429
-0.638603
-0.643584
-0.648364
-0.652936
-0.657293
-0.66143
-0.66534
-0.669017
-0.672454
-0.675646
-0.678587
-0.681272
-0.683695
-0.685851
-0.687736
-0.689345
-0.690675
-0.691722
-0.692482
-0.692952
-0.693131
-0.693016
-0.692604
-0.691895
-0.690888
-0.689582
-0.687976
-0.686071
-0.683867
-0.681366
-0.678568
-0.675476
-0.672091
-0.668415
-0.664453
-0.660206
-0.655679
-0.650875
-0.645799
-0.640456
-0.63485
-0.628988
-0.622875
-0.616516
-0.609919
-0.603091
-0.596038
-0.588768
-0.58129
-0.57361
-0.565738
-0.557682
-0.549451
-0.541055
-0.532503
-0.523805
-0.514971
-0.506011
-0.496935
-0.487755
-0.478481
-0.469123
-0.459693
-0.450201
-0.440658
-0.431076
-0.421465
-0.411837
-0.402201
-0.392568
-0.38295
-0.373355
-0.363795
-0.354278
-0.344815
-0.335414
-0.326084
-0.316834
-0.307672
-0.298605
-0.289641
-0.280786
-0.272046
-0.263428
-0.254937
-0.246578
-0.238355
-0.230272
-0.222333
-0.21454
-0.206897
-0.199405
-0.192065
-0.18488
-0.17785
-0.170974
-0.164254
-0.157689
-0.151278
-0.145019
-0.138913
-0.132956
-0.127146
-0.121483
-0.115962
-0.110582
-0.10534
-0.100231
-0.0952543
-0.0904047
-0.0856792
-0.0810742
-0.0765857
-0.07221
-0.0679432
-0.0637811
-0.0597198
-0.0557552
-0.0518831
-0.0480995
-0.0444002
-0.0407811
-0.0372381
-0.0337671
-0.030364
-0.0270254
-0.0237457
-0.0205247
-0.0173498
-0.0142383
-0.011136
-0.00815823
-0.00500429
-0.0023052
0.277342
0.277213
0.276932
0.276488
0.275883
0.275119
0.274195
0.273109
0.271859
0.270443
0.268858
0.267102
0.265171
0.263064
0.260775
0.258303
0.255643
0.25279
0.249742
0.246494
0.243042
0.23938
0.235505
0.231412
0.227097
0.222555
0.217781
0.212772
0.207523
0.20203
0.19629
0.190299
0.184055
0.177554
0.170796
0.163778
0.1565
0.148962
0.141164
0.133108
0.124795
0.11623
0.107415
0.0983569
0.0890601
0.0795317
0.0697796
0.0598124
0.0496394
0.0392712
0.0287188
0.0179941
0.00710964
-0.00392152
-0.0150858
-0.0263691
-0.0377574
-0.049236
-0.0607904
-0.072406
-0.0840685
-0.0957635
-0.107477
-0.119196
-0.130906
-0.142596
-0.154253
-0.165867
-0.177425
-0.188919
-0.200339
-0.211677
-0.222925
-0.234077
-0.245126
-0.256068
-0.266897
-0.277611
-0.288206
-0.298681
-0.309033
-0.319262
-0.329366
-0.339348
-0.349205
-0.358941
-0.368555
-0.37805
-0.387428
-0.396689
-0.405837
-0.414872
-0.423799
-0.432617
-0.44133
-0.449939
-0.458445
-0.46685
-0.475154
-0.483359
-0.491465
-0.499472
-0.507379
-0.515185
-0.52289
-0.530491
-0.537987
-0.545375
-0.552651
-0.559813
-0.566858
-0.573779
-0.580574
-0.587237
-0.593763
-0.600147
-0.606382
-0.612463
-0.618383
-0.624136
-0.629716
-0.635115
-0.640327
-0.645346
-0.650163
-0.654773
-0.659169
-0.663344
-0.667291
-0.671004
-0.674478
-0.677704
-0.680679
-0.683397
-0.685851
-0.688038
-0.689952
-0.691589
-0.692944
-0.694016
-0.694799
-0.695291
-0.695489
-0.695392
-0.694996
-0.694302
-0.693308
-0.692012
-0.690416
-0.688519
-0.686321
-0.683824
-0.681028
-0.677937
-0.67455
-0.670872
-0.666905
-0.662653
-0.658117
-0.653304
-0.648217
-0.64286
-0.63724
-0.631361
-0.625228
-0.618849
-0.61223
-0.605377
-0.598297
-0.590999
-0.583489
-0.575777
-0.56787
-0.559777
-0.551507
-0.54307
-0.534475
-0.525732
-0.516851
-0.507842
-0.498716
-0.489483
-0.480154
-0.47074
-0.461252
-0.451702
-0.442099
-0.432455
-0.422782
-0.41309
-0.40339
-0.393693
-0.38401
-0.37435
-0.364725
-0.355143
-0.345615
-0.33615
-0.326758
-0.317445
-0.308222
-0.299095
-0.290071
-0.281159
-0.272364
-0.263693
-0.25515
-0.24674
-0.23847
-0.230341
-0.222358
-0.214525
-0.206843
-0.199314
-0.191941
-0.184724
-0.177665
-0.170763
-0.164019
-0.157432
-0.151001
-0.144726
-0.138604
-0.132635
-0.126815
-0.121144
-0.115617
-0.110232
-0.104987
-0.0998786
-0.0949025
-0.0900557
-0.0853346
-0.0807353
-0.076254
-0.0718867
-0.0676295
-0.0634782
-0.0594287
-0.0554768
-0.0516183
-0.047849
-0.0441648
-0.0405614
-0.0370346
-0.0335803
-0.0301943
-0.026873
-0.0236108
-0.0204076
-0.0172505
-0.0141568
-0.0110723
-0.00811201
-0.00497597
-0.00229345
0.278781
0.278653
0.278374
0.277934
0.277334
0.276576
0.275659
0.274582
0.273341
0.271935
0.270361
0.268617
0.266699
0.264605
0.26233
0.259871
0.257224
0.254385
0.25135
0.248114
0.244673
0.241021
0.237155
0.233068
0.228758
0.224218
0.219443
0.214431
0.209175
0.203671
0.197916
0.191906
0.185638
0.179109
0.172317
0.165259
0.157936
0.150346
0.142491
0.134371
0.125989
0.117348
0.108451
0.0993047
0.0899143
0.0802869
0.0704308
0.0603548
0.0500691
0.0395845
0.0289128
0.0180664
0.00705862
-0.0040968
-0.0153855
-0.0267929
-0.0383038
-0.0499032
-0.0615758
-0.0733063
-0.0850798
-0.0968813
-0.108696
-0.120511
-0.132312
-0.144086
-0.15582
-0.167504
-0.179126
-0.190677
-0.202147
-0.213528
-0.224812
-0.235993
-0.247065
-0.258023
-0.268863
-0.279581
-0.290176
-0.300645
-0.310987
-0.321201
-0.331288
-0.341248
-0.351082
-0.360791
-0.370377
-0.379843
-0.38919
-0.39842
-0.407537
-0.416542
-0.425438
-0.434228
-0.442914
-0.451497
-0.45998
-0.468364
-0.476651
-0.48484
-0.492934
-0.500931
-0.508832
-0.516636
-0.524341
-0.531947
-0.53945
-0.546848
-0.554139
-0.561319
-0.568383
-0.575328
-0.582149
-0.58884
-0.595398
-0.601814
-0.608085
-0.614203
-0.620162
-0.625955
-0.631576
-0.637017
-0.642272
-0.647334
-0.652195
-0.656848
-0.661287
-0.665505
-0.669495
-0.67325
-0.676764
-0.680031
-0.683044
-0.685799
-0.68829
-0.690511
-0.692458
-0.694126
-0.695511
-0.69661
-0.697419
-0.697936
-0.698156
-0.698079
-0.697702
-0.697024
-0.696044
-0.694762
-0.693176
-0.691287
-0.689096
-0.686604
-0.683812
-0.680721
-0.677334
-0.673653
-0.669681
-0.665421
-0.660877
-0.656053
-0.650953
-0.645582
-0.639945
-0.634046
-0.627893
-0.621491
-0.614846
-0.607965
-0.600856
-0.593525
-0.585981
-0.578232
-0.570286
-0.562151
-0.553838
-0.545355
-0.536711
-0.527917
-0.518983
-0.509919
-0.500735
-0.491443
-0.482052
-0.472575
-0.463022
-0.453405
-0.443734
-0.434021
-0.424277
-0.414513
-0.40474
-0.39497
-0.385213
-0.375479
-0.36578
-0.356125
-0.346523
-0.336986
-0.327521
-0.318138
-0.308844
-0.299649
-0.290559
-0.281582
-0.272723
-0.263991
-0.255389
-0.246923
-0.238597
-0.230417
-0.222385
-0.214505
-0.206779
-0.199209
-0.191797
-0.184545
-0.177453
-0.170521
-0.163749
-0.157138
-0.150685
-0.14439
-0.138252
-0.132269
-0.126438
-0.120756
-0.115223
-0.109834
-0.104586
-0.0994765
-0.0945018
-0.0896582
-0.084942
-0.0803494
-0.0758763
-0.0715187
-0.0672724
-0.0631334
-0.0590973
-0.0551599
-0.051317
-0.0475641
-0.043897
-0.0403114
-0.0368031
-0.0333678
-0.0300011
-0.0266995
-0.0234574
-0.0202743
-0.0171375
-0.014064
-0.0109998
-0.00805939
-0.00494375
-0.00228002
0.280374
0.280247
0.279971
0.279535
0.278941
0.27819
0.277282
0.276214
0.274984
0.27359
0.27203
0.270299
0.268396
0.266316
0.264057
0.261614
0.258983
0.256159
0.253139
0.249917
0.246489
0.242849
0.238993
0.234915
0.230611
0.226074
0.2213
0.216284
0.211022
0.205507
0.199737
0.193706
0.187413
0.180852
0.174022
0.166921
0.159547
0.151901
0.143981
0.13579
0.12733
0.118603
0.109615
0.100369
0.090873
0.0811339
0.0711601
0.0609613
0.050548
0.0399317
0.0291248
0.0181407
0.00699323
-0.00430288
-0.0157325
-0.0272802
-0.03893
-0.0506659
-0.062472
-0.0743322
-0.0862307
-0.0981522
-0.110081
-0.122004
-0.133906
-0.145773
-0.157594
-0.169357
-0.18105
-0.192664
-0.204188
-0.215616
-0.226939
-0.238152
-0.249248
-0.260223
-0.271073
-0.281796
-0.292388
-0.302849
-0.313178
-0.323375
-0.33344
-0.343374
-0.353179
-0.362857
-0.372411
-0.381842
-0.391153
-0.400347
-0.409428
-0.418398
-0.42726
-0.436017
-0.444671
-0.453225
-0.461682
-0.470042
-0.478307
-0.48648
-0.494559
-0.502546
-0.51044
-0.518241
-0.525947
-0.533557
-0.541069
-0.54848
-0.555787
-0.562986
-0.570074
-0.577045
-0.583896
-0.59062
-0.597212
-0.603667
-0.609978
-0.616138
-0.622141
-0.627979
-0.633647
-0.639136
-0.644439
-0.64955
-0.65446
-0.659163
-0.663651
-0.667917
-0.671955
-0.675757
-0.679317
-0.682629
-0.685687
-0.688483
-0.691014
-0.693274
-0.695258
-0.696962
-0.698381
-0.699511
-0.700349
-0.700892
-0.701138
-0.701083
-0.700727
-0.700068
-0.699104
-0.697836
-0.696262
-0.694383
-0.6922
-0.689713
-0.686923
-0.683834
-0.680446
-0.676762
-0.672784
-0.668517
-0.663964
-0.659128
-0.654014
-0.648626
-0.64297
-0.637051
-0.630875
-0.624447
-0.617774
-0.610862
-0.60372
-0.596354
-0.588772
-0.580982
-0.572992
-0.564812
-0.556449
-0.547915
-0.539217
-0.530367
-0.521373
-0.512247
-0.503
-0.493641
-0.484182
-0.474634
-0.465008
-0.455315
-0.445568
-0.435777
-0.425953
-0.416109
-0.406255
-0.396402
-0.386563
-0.376746
-0.366964
-0.357225
-0.347542
-0.337922
-0.328377
-0.318914
-0.309542
-0.300269
-0.291104
-0.282054
-0.273124
-0.264323
-0.255654
-0.247125
-0.238738
-0.2305
-0.222412
-0.21448
-0.206704
-0.199088
-0.191633
-0.184341
-0.177212
-0.170246
-0.163444
-0.156805
-0.150328
-0.144011
-0.137855
-0.131855
-0.126011
-0.12032
-0.114778
-0.109384
-0.104133
-0.0990234
-0.0940503
-0.0892104
-0.0844999
-0.0799148
-0.075451
-0.0711043
-0.0668705
-0.0627453
-0.0587244
-0.0548034
-0.0509779
-0.0472434
-0.0435956
-0.0400302
-0.0365426
-0.0331286
-0.0297838
-0.0265044
-0.0232847
-0.0201243
-0.0170104
-0.0139596
-0.0109182
-0.00800016
-0.0049075
-0.00226483
0.282122
0.281996
0.281723
0.281292
0.280704
0.279961
0.279063
0.278006
0.276788
0.275408
0.273862
0.272147
0.27026
0.268198
0.265957
0.263531
0.260918
0.258113
0.25511
0.251905
0.248492
0.244866
0.241023
0.236955
0.232659
0.228127
0.223355
0.218337
0.213068
0.207542
0.201756
0.195704
0.189382
0.182788
0.175917
0.168768
0.161339
0.15363
0.14564
0.13737
0.128823
0.120001
0.11091
0.101554
0.0919396
0.0820753
0.0719698
0.0616331
0.0510766
0.0403124
0.0293537
0.0182148
0.00691049
-0.00454368
-0.0161316
-0.0278367
-0.0396423
-0.0515314
-0.063487
-0.0754923
-0.0875307
-0.0995861
-0.111643
-0.123685
-0.135699
-0.147671
-0.159587
-0.171437
-0.183208
-0.19489
-0.206475
-0.217953
-0.229319
-0.240565
-0.251686
-0.262678
-0.273537
-0.284262
-0.29485
-0.3053
-0.315612
-0.325787
-0.335826
-0.34573
-0.355502
-0.365143
-0.374658
-0.384049
-0.393319
-0.402472
-0.411512
-0.420441
-0.429263
-0.437982
-0.446601
-0.455122
-0.463548
-0.471881
-0.480123
-0.488275
-0.496338
-0.504313
-0.5122
-0.519997
-0.527705
-0.53532
-0.542842
-0.550267
-0.557592
-0.564814
-0.571928
-0.578929
-0.585814
-0.592575
-0.599207
-0.605705
-0.612061
-0.618268
-0.624321
-0.630211
-0.635931
-0.641474
-0.646831
-0.651997
-0.656962
-0.661721
-0.666264
-0.670584
-0.674676
-0.678531
-0.682142
-0.685504
-0.68861