/*--------------------------------*- C++ -*----------------------------------*\
| =========                 |                                                 |
| \\      /  F ield         | OpenFOAM: The Open Source CFD Toolbox           |
|  \\    /   O peration     | Version:  2306                                  |
|   \\  /    A nd           | Website:  www.openfoam.com                      |
|    \\/     M anipulation  |                                                 |
\*---------------------------------------------------------------------------*/
FoamFile
{
    version     2.0;
    format      ascii;
    arch        "LSB;label=32;scalar=64";
    class       surfaceScalarField;
    location    "9.5";
    object      phi;
}
// * * * * * * * * * * * * * * * * * * * * * * * * * * * * * * * * * * * * * //

dimensions      [0 3 -1 0 0 0 0];

oriented        oriented;

internalField   nonuniform List<scalar> 
65152
(
0.0062505
-5.045e-07
0.00625202
-1.51544e-06
0.00625455
-2.52704e-06
0.00625809
-3.5404e-06
0.00626264
-4.55721e-06
0.00626822
-5.57855e-06
0.00627483
-6.6051e-06
0.00628247
-7.63761e-06
0.00629114
-8.67687e-06
0.00630087
-9.72366e-06
0.00631165
-1.07787e-05
0.00632349
-1.18425e-05
0.0063364
-1.29157e-05
0.0063504
-1.39987e-05
0.00636549
-1.50918e-05
0.00638169
-1.61954e-05
0.006399
-1.73094e-05
0.00641743
-1.84339e-05
0.006437
-1.95687e-05
0.00645771
-2.07137e-05
0.00647958
-2.18683e-05
0.00650261
-2.3032e-05
0.00652682
-2.4204e-05
0.0065522
-2.53834e-05
0.00657877
-2.65692e-05
0.00660653
-2.77601e-05
0.00663549
-2.89546e-05
0.00666564
-3.01511e-05
0.00669699
-3.13477e-05
0.00672953
-3.25426e-05
0.00676326
-3.37335e-05
0.00679818
-3.4918e-05
0.00683427
-3.60937e-05
0.00687153
-3.72579e-05
0.00690994
-3.84078e-05
0.00694948
-3.95406e-05
0.00699013
-4.06531e-05
0.00703187
-4.17422e-05
0.00707468
-4.28049e-05
0.00711852
-4.3838e-05
0.00716336
-4.48381e-05
0.00720916
-4.58022e-05
0.00725588
-4.67272e-05
0.00730349
-4.76099e-05
0.00735194
-4.84476e-05
0.00740118
-4.92374e-05
0.00745116
-4.99767e-05
0.00750182
-5.06632e-05
0.00755311
-5.12947e-05
0.00760498
-5.18694e-05
0.00765737
-5.23856e-05
0.00771021
-5.2842e-05
0.00776345
-5.32377e-05
0.00781702
-5.35721e-05
0.00787087
-5.38447e-05
0.00792492
-5.40556e-05
0.00797913
-5.42052e-05
0.00803342
-5.42942e-05
0.00808774
-5.43236e-05
0.00814204
-5.42946e-05
0.00819625
-5.42089e-05
0.00825032
-5.40685e-05
0.00830419
-5.38753e-05
0.00835782
-5.36319e-05
0.00841116
-5.33407e-05
0.00846417
-5.30044e-05
0.00851679
-5.2626e-05
0.008569
-5.22084e-05
0.00862076
-5.17547e-05
0.00867203
-5.12681e-05
0.00872278
-5.07516e-05
0.00877299
-5.02084e-05
0.00882263
-4.96416e-05
0.00887168
-4.90544e-05
0.00892013
-4.84497e-05
0.00896796
-4.78304e-05
0.00901516
-4.71993e-05
0.00906172
-4.65591e-05
0.00910763
-4.59122e-05
0.00915289
-4.5261e-05
0.0091975
-4.46076e-05
0.00924146
-4.39541e-05
0.00928476
-4.33021e-05
0.00932741
-4.26534e-05
0.00936942
-4.20092e-05
0.00941079
-4.13707e-05
0.00945153
-4.07389e-05
0.00949164
-4.01146e-05
0.00953114
-3.94982e-05
0.00957003
-3.88902e-05
0.00960832
-3.82907e-05
0.00964602
-3.76996e-05
0.00968314
-3.71169e-05
0.00971968
-3.6542e-05
0.00975566
-3.59745e-05
0.00979107
-3.54137e-05
0.00982593
-3.48587e-05
0.00986024
-3.43087e-05
0.009894
-3.37625e-05
0.00992722
-3.32191e-05
0.0099599
-3.26772e-05
0.00999203
-3.21355e-05
0.0100236
-3.15927e-05
0.0100547
-3.10473e-05
0.0100852
-3.0498e-05
0.0101151
-2.99433e-05
0.0101445
-2.93817e-05
0.0101733
-2.88118e-05
0.0102015
-2.82323e-05
0.0102292
-2.76416e-05
0.0102562
-2.70386e-05
0.0102826
-2.64218e-05
0.0103084
-2.579e-05
0.0103336
-2.51421e-05
0.0103581
-2.4477e-05
0.0103818
-2.37937e-05
0.0104049
-2.30911e-05
0.0104273
-2.23686e-05
0.0104489
-2.16254e-05
0.0104698
-2.08607e-05
0.0104899
-2.00741e-05
0.0105091
-1.9265e-05
0.0105276
-1.84332e-05
0.0105451
-1.75783e-05
0.0105618
-1.67002e-05
0.0105776
-1.57989e-05
0.0105925
-1.48743e-05
0.0106064
-1.39266e-05
0.0106194
-1.2956e-05
0.0106314
-1.19628e-05
0.0106423
-1.09472e-05
0.0106522
-9.90989e-06
0.0106611
-8.85122e-06
0.0106688
-7.77182e-06
0.0106755
-6.67233e-06
0.0106811
-5.55344e-06
0.0106855
-4.41593e-06
0.0106887
-3.26057e-06
0.0106908
-2.08824e-06
0.0106917
-8.99828e-07
0.0106914
3.03776e-07
0.0106899
1.52159e-06
0.0106872
2.75261e-06
0.0106832
3.99585e-06
0.0106779
5.25025e-06
0.0106714
6.51477e-06
0.0106636
7.78832e-06
0.0106545
9.0698e-06
0.0106442
1.03581e-05
0.0106325
1.16521e-05
0.0106196
1.29507e-05
0.0106053
1.42527e-05
0.0105898
1.5557e-05
0.0105729
1.68623e-05
0.0105547
1.81676e-05
0.0105353
1.94715e-05
0.0105145
2.07729e-05
0.0104924
2.20706e-05
0.0104691
2.33633e-05
0.0104444
2.46497e-05
0.0104185
2.59286e-05
0.0103913
2.71986e-05
0.0103628
2.84586e-05
0.0103331
2.9707e-05
0.0103022
3.09427e-05
0.01027
3.21642e-05
0.0102366
3.33701e-05
0.0102021
3.4559e-05
0.0101663
3.57295e-05
0.0101295
3.68802e-05
0.0100915
3.80096e-05
0.0100523
3.91163e-05
0.0100121
4.01988e-05
0.00997089
4.12556e-05
0.0099286
4.22853e-05
0.00988531
4.32863e-05
0.00984106
4.42574e-05
0.00979586
4.51969e-05
0.00974976
4.61035e-05
0.00970278
4.69758e-05
0.00965497
4.78124e-05
0.00960636
4.86121e-05
0.00955698
4.93736e-05
0.00950689
5.00956e-05
0.00945611
5.0777e-05
0.00940469
5.14168e-05
0.00935268
5.20138e-05
0.00930011
5.25674e-05
0.00924704
5.30765e-05
0.00919349
5.35404e-05
0.00913954
5.39586e-05
0.00908521
5.43306e-05
0.00903055
5.46558e-05
0.00897562
5.49341e-05
0.00892045
5.51652e-05
0.0088651
5.53492e-05
0.00880962
5.5486e-05
0.00875404
5.5576e-05
0.00869842
5.56194e-05
0.0086428
5.56166e-05
0.00858723
5.55684e-05
0.00853176
5.54753e-05
0.00847642
5.53383e-05
0.00842126
5.51581e-05
0.00836633
5.4936e-05
0.00831165
5.46731e-05
0.00825728
5.43705e-05
0.00820325
5.40298e-05
0.0081496
5.36522e-05
0.00809636
5.32394e-05
0.00804357
5.27929e-05
0.00799125
5.23144e-05
0.00793945
5.18055e-05
0.00788818
5.12682e-05
0.00783748
5.07041e-05
0.00778736
5.01152e-05
0.00773786
4.95032e-05
0.00768899
4.887e-05
0.00764077
4.82176e-05
0.00759322
4.75479e-05
0.00754636
4.68626e-05
0.0075002
4.61637e-05
0.00745474
4.54531e-05
0.00741001
4.47325e-05
0.00736601
4.40038e-05
0.00732274
4.32687e-05
0.00728021
4.25288e-05
0.00723842
4.1786e-05
0.00719738
4.10418e-05
0.00715708
4.02977e-05
0.00711753
3.95553e-05
0.00707871
3.8816e-05
0.00704063
3.80812e-05
0.00700328
3.73522e-05
0.00696665
3.66302e-05
0.00693073
3.59164e-05
0.00689552
3.5212e-05
0.006861
3.45179e-05
0.00682717
3.38352e-05
0.006794
3.31647e-05
0.0067615
3.25073e-05
0.00672963
3.18636e-05
0.0066984
3.12345e-05
0.00666778
3.06205e-05
0.00663775
3.00221e-05
0.00660831
2.94399e-05
0.00657944
2.88741e-05
0.00655112
2.83255e-05
0.00652332
2.77935e-05
0.00649604
2.72798e-05
0.00646926
2.67815e-05
0.00644296
2.63044e-05
0.00641712
2.58369e-05
0.00639173
2.53921e-05
0.00636676
2.49681e-05
2.44741e-05
0.0062505
-1.0095e-06
0.00625202
-3.02905e-06
0.00625454
-5.0512e-06
0.00625808
-7.07787e-06
0.00626263
-9.11114e-06
0.00626821
-1.1153e-05
0.00627481
-1.32054e-05
0.00628244
-1.52697e-05
0.00629111
-1.73477e-05
0.00630083
-1.94407e-05
0.0063116
-2.15503e-05
0.00632344
-2.36777e-05
0.00633634
-2.58238e-05
0.00635033
-2.79896e-05
0.00636542
-3.01758e-05
0.00638161
-3.23829e-05
0.00639891
-3.46111e-05
0.00641733
-3.68604e-05
0.0064369
-3.91305e-05
0.0064576
-4.1421e-05
0.00647947
-4.3731e-05
0.00650249
-4.60593e-05
0.00652669
-4.84045e-05
0.00655208
-5.07647e-05
0.00657864
-5.31377e-05
0.0066064
-5.55211e-05
0.00663536
-5.79119e-05
0.00666552
-6.03069e-05
0.00669687
-6.27024e-05
0.00672942
-6.50944e-05
0.00676317
-6.74787e-05
0.0067981
-6.98505e-05
0.00683421
-7.22047e-05
0.00687149
-7.45361e-05
0.00690992
-7.6839e-05
0.00694949
-7.91076e-05
0.00699017
-8.13359e-05
0.00703195
-8.35176e-05
0.00707479
-8.56463e-05
0.00711867
-8.77157e-05
0.00716355
-8.97193e-05
0.0072094
-9.16508e-05
0.00725617
-9.35039e-05
0.00730384
-9.52724e-05
0.00735234
-9.69506e-05
0.00740163
-9.85329e-05
0.00745167
-0.000100014
0.0075024
-0.000101389
0.00755376
-0.000102654
0.00760569
-0.000103805
0.00765815
-0.000104839
0.00771106
-0.000105753
0.00776436
-0.000106545
0.00781801
-0.000107214
0.00787192
-0.000107759
0.00792605
-0.000108181
0.00798032
-0.00010848
0.00803468
-0.000108656
0.00808907
-0.000108714
0.00814343
-0.000108654
0.00819771
-0.000108481
0.00825184
-0.000108198
0.00830577
-0.000107809
0.00835946
-0.00010732
0.00841285
-0.000106735
0.00846591
-0.000106059
0.00851858
-0.0001053
0.00857083
-0.000104461
0.00862263
-0.000103551
0.00867393
-0.000102574
0.00872472
-0.000101538
0.00877496
-0.000100448
0.00882463
-9.93117e-05
0.00887371
-9.81341e-05
0.00892218
-9.69217e-05
0.00897003
-9.56802e-05
0.00901725
-9.44153e-05
0.00906382
-9.31322e-05
0.00910975
-9.1836e-05
0.00915502
-9.05313e-05
0.00919963
-8.92225e-05
0.00924359
-8.79136e-05
0.0092869
-8.6608e-05
0.00932955
-8.5309e-05
0.00937156
-8.40193e-05
0.00941293
-8.27413e-05
0.00945367
-8.14769e-05
0.00949378
-8.02275e-05
0.00953328
-7.89943e-05
0.00957217
-7.7778e-05
0.00961046
-7.65789e-05
0.00964815
-7.53969e-05
0.00968527
-7.42317e-05
0.00972181
-7.30823e-05
0.00975778
-7.19479e-05
0.00979319
-7.08269e-05
0.00982805
-6.97179e-05
0.00986236
-6.86188e-05
0.00989613
-6.75275e-05
0.00992935
-6.64418e-05
0.00996203
-6.53592e-05
0.00999418
-6.42771e-05
0.0100258
-6.31927e-05
0.0100568
-6.21033e-05
0.0100873
-6.1006e-05
0.0101173
-5.98979e-05
0.0101467
-5.87761e-05
0.0101755
-5.76376e-05
0.0102038
-5.64798e-05
0.0102314
-5.52997e-05
0.0102585
-5.40948e-05
0.0102849
-5.28623e-05
0.0103107
-5.15998e-05
0.0103359
-5.0305e-05
0.0103604
-4.89757e-05
0.0103842
-4.76098e-05
0.0104073
-4.62055e-05
0.0104297
-4.47611e-05
0.0104514
-4.32751e-05
0.0104722
-4.17461e-05
0.0104923
-4.01732e-05
0.0105116
-3.85553e-05
0.0105301
-3.68917e-05
0.0105477
-3.5182e-05
0.0105644
-3.34258e-05
0.0105802
-3.16229e-05
0.0105951
-2.97735e-05
0.0106091
-2.78777e-05
0.0106221
-2.5936e-05
0.0106341
-2.3949e-05
0.010645
-2.19173e-05
0.010655
-1.98419e-05
0.0106638
-1.77238e-05
0.0106716
-1.55641e-05
0.0106783
-1.33643e-05
0.0106839
-1.11255e-05
0.0106883
-8.84949e-06
0.0106916
-6.53773e-06
0.0106937
-4.19196e-06
0.0106946
-1.81396e-06
0.0106943
5.94409e-07
0.0106928
3.03123e-06
0.0106901
5.49453e-06
0.0106861
7.98226e-06
0.0106809
1.04924e-05
0.0106743
1.30227e-05
0.0106666
1.55711e-05
0.0106575
1.81354e-05
0.0106471
2.07134e-05
0.0106355
2.33029e-05
0.0106225
2.59014e-05
0.0106083
2.85068e-05
0.0105927
3.11168e-05
0.0105759
3.37289e-05
0.0105577
3.63408e-05
0.0105382
3.89502e-05
0.0105174
4.15545e-05
0.0104953
4.41513e-05
0.010472
4.67381e-05
0.0104473
4.93125e-05
0.0104214
5.18718e-05
0.0103941
5.44135e-05
0.0103657
5.69349e-05
0.0103359
5.94334e-05
0.010305
6.19063e-05
0.0102728
6.43509e-05
0.0102394
6.67643e-05
0.0102048
6.91438e-05
0.0101691
7.14865e-05
0.0101322
7.37896e-05
0.0100941
7.60501e-05
0.010055
7.82651e-05
0.0100147
8.04318e-05
0.00997344
8.2547e-05
0.00993111
8.4608e-05
0.00988779
8.66118e-05
0.00984349
8.85554e-05
0.00979825
9.04361e-05
0.0097521
9.22508e-05
0.00970508
9.3997e-05
0.00965722
9.56717e-05
0.00960856
9.72725e-05
0.00955914
9.87968e-05
0.00950899
0.000100242
0.00945816
0.000101606
0.00940669
0.000102887
0.00935463
0.000104082
0.009302
0.00010519
0.00924887
0.000106209
0.00919527
0.000107138
0.00914126
0.000107975
0.00908687
0.000108719
0.00903216
0.00010937
0.00897716
0.000109927
0.00892194
0.000110389
0.00886653
0.000110757
0.00881099
0.00011103
0.00875535
0.00011121
0.00869968
0.000111296
0.008644
0.00011129
0.00858838
0.000111193
0.00853285
0.000111006
0.00847746
0.000110731
0.00842224
0.00011037
0.00836726
0.000109924
0.00831253
0.000109397
0.00825811
0.00010879
0.00820403
0.000108107
0.00815034
0.000107351
0.00809705
0.000106523
0.00804422
0.000105629
0.00799186
0.00010467
0.00794002
0.00010365
0.00788871
0.000102574
0.00783797
0.000101444
0.00778782
0.000100264
0.00773829
9.90377e-05
0.00768939
9.77694e-05
0.00764114
9.64626e-05
0.00759357
9.5121e-05
0.00754669
9.37485e-05
0.0075005
9.23488e-05
0.00745503
9.09255e-05
0.00741028
8.94824e-05
0.00736626
8.80231e-05
0.00732298
8.6551e-05
0.00728044
8.50695e-05
0.00723864
8.35821e-05
0.00719759
8.2092e-05
0.00715728
8.06022e-05
0.00711772
7.91158e-05
0.0070789
7.76357e-05
0.00704082
7.61646e-05
0.00700347
7.47051e-05
0.00696684
7.32598e-05
0.00693092
7.18311e-05
0.00689572
7.0421e-05
0.0068612
6.90318e-05
0.00682737
6.76653e-05
0.00679421
6.63233e-05
0.00676171
6.50075e-05
0.00672986
6.37194e-05
0.00669863
6.24604e-05
0.00666802
6.12317e-05
0.00663801
6.00343e-05
0.00660858
5.88693e-05
0.00657971
5.77375e-05
0.0065514
5.66395e-05
0.00652362
5.55758e-05
0.00649635
5.45469e-05
0.00646958
5.35536e-05
0.00644329
5.25919e-05
0.00641745
5.16782e-05
0.00639209
5.07554e-05
0.00636704
5.00139e-05
4.88582e-05
0.0062505
-1.51318e-06
0.00625201
-4.54036e-06
0.00625454
-7.57149e-06
0.00625807
-1.06097e-05
0.00626261
-1.36579e-05
0.00626818
-1.6719e-05
0.00627477
-1.97957e-05
0.00628239
-2.28906e-05
0.00629105
-2.60061e-05
0.00630075
-2.91445e-05
0.00631151
-3.23077e-05
0.00632333
-3.54978e-05
0.00633622
-3.87163e-05
0.0063502
-4.19646e-05
0.00636527
-4.52438e-05
0.00638144
-4.85545e-05
0.00639872
-5.18973e-05
0.00641714
-5.5272e-05
0.00643668
-5.86784e-05
0.00645738
-6.21157e-05
0.00647923
-6.55826e-05
0.00650225
-6.90773e-05
0.00652644
-7.25978e-05
0.00655182
-7.61413e-05
0.00657838
-7.97045e-05
0.00660615
-8.32836e-05
0.00663511
-8.68744e-05
0.00666527
-9.04719e-05
0.00669664
-9.40706e-05
0.00672921
-9.76646e-05
0.00676298
-0.000101247
0.00679794
-0.000104812
0.00683409
-0.00010835
0.00687141
-0.000111855
0.00690989
-0.000115317
0.00694951
-0.000118728
0.00699025
-0.000122078
0.00703209
-0.000125359
0.007075
-0.000128561
0.00711896
-0.000131673
0.00716393
-0.000134687
0.00720987
-0.000137592
0.00725675
-0.00014038
0.00730451
-0.00014304
0.00735313
-0.000145565
0.00740254
-0.000147945
0.0074527
-0.000150173
0.00750355
-0.000152241
0.00755504
-0.000154144
0.00760711
-0.000155875
0.0076597
-0.000157429
0.00771275
-0.000158802
0.0077662
-0.000159992
0.00781998
-0.000160997
0.00787403
-0.000161815
0.0079283
-0.000162446
0.00798271
-0.000162892
0.00803721
-0.000163155
0.00809173
-0.000163238
0.00814622
-0.000163145
0.00820062
-0.00016288
0.00825488
-0.00016245
0.00830893
-0.000161861
0.00836273
-0.00016112
0.00841623
-0.000160236
0.00846938
-0.000159215
0.00852215
-0.000158068
0.00857449
-0.000156803
0.00862637
-0.000155429
0.00867775
-0.000153956
0.00872861
-0.000152393
0.00877891
-0.000150751
0.00882864
-0.000149038
0.00887777
-0.000147264
0.00892629
-0.000145438
0.00897417
-0.000143569
0.00902142
-0.000141664
0.00906802
-0.000139733
0.00911397
-0.000137783
0.00915926
-0.00013582
0.00920389
-0.000133852
0.00924786
-0.000131884
0.00929117
-0.000129921
0.00933383
-0.000127969
0.00937584
-0.000126031
0.00941721
-0.000124111
0.00945795
-0.000122213
0.00949806
-0.000120337
0.00953755
-0.000118486
0.00957643
-0.000116661
0.00961472
-0.000114862
0.00965241
-0.000113089
0.00968952
-0.000111342
0.00972606
-0.000109619
0.00976203
-0.000107919
0.00979744
-0.000106239
0.0098323
-0.000104578
0.00986661
-0.000102932
0.00990038
-0.000101297
0.00993361
-9.96716e-05
0.0099663
-9.80507e-05
0.00999846
-9.64306e-05
0.0100301
-9.48074e-05
0.0100611
-9.31766e-05
0.0100917
-9.15339e-05
0.0101216
-8.98751e-05
0.0101511
-8.81957e-05
0.0101799
-8.64914e-05
0.0102082
-8.47578e-05
0.0102359
-8.29908e-05
0.010263
-8.11863e-05
0.0102895
-7.93404e-05
0.0103153
-7.74493e-05
0.0103405
-7.55096e-05
0.0103651
-7.35178e-05
0.0103889
-7.1471e-05
0.0104121
-6.93663e-05
0.0104345
-6.72012e-05
0.0104562
-6.49735e-05
0.0104772
-6.26811e-05
0.0104973
-6.03225e-05
0.0105166
-5.78961e-05
0.0105352
-5.54011e-05
0.0105528
-5.28365e-05
0.0105696
-5.0202e-05
0.0105855
-4.74972e-05
0.0106004
-4.47224e-05
0.0106144
-4.18778e-05
0.0106274
-3.8964e-05
0.0106395
-3.59821e-05
0.0106505
-3.2933e-05
0.0106605
-2.98181e-05
0.0106694
-2.6639e-05
0.0106772
-2.33974e-05
0.0106839
-2.00953e-05
0.0106895
-1.67349e-05
0.010694
-1.33183e-05
0.0106973
-9.84796e-06
0.0106995
-6.32655e-06
0.0107004
-2.75667e-06
0.0107001
8.58832e-07
0.0106987
4.51709e-06
0.0106959
8.21514e-06
0.010692
1.19499e-05
0.0106867
1.57183e-05
0.0106802
1.95171e-05
0.0106725
2.3343e-05
0.0106634
2.71929e-05
0.0106531
3.10633e-05
0.0106414
3.49509e-05
0.0106285
3.88522e-05
0.0106142
4.27638e-05
0.0105986
4.66823e-05
0.0105818
5.0604e-05
0.0105636
5.45255e-05
0.0105441
5.84431e-05
0.0105233
6.23533e-05
0.0105012
6.62522e-05
0.0104778
7.01362e-05
0.0104531
7.40015e-05
0.0104271
7.78443e-05
0.0103999
8.16607e-05
0.0103714
8.54468e-05
0.0103416
8.91985e-05
0.0103106
9.29119e-05
0.0102784
9.65828e-05
0.0102449
0.000100207
0.0102103
0.00010378
0.0101745
0.000107299
0.0101375
0.000110757
0.0100994
0.000114152
0.0100602
0.000117479
0.0100199
0.000120733
0.00997853
0.00012391
0.00993613
0.000127006
0.00989273
0.000130016
0.00984835
0.000132935
0.00980303
0.00013576
0.00975679
0.000138486
0.00970968
0.000141109
0.00966173
0.000143625
0.00961297
0.00014603
0.00956345
0.000148319
0.0095132
0.00015049
0.00946227
0.000152539
0.00941069
0.000154463
0.00935851
0.000156259
0.00930578
0.000157923
0.00925254
0.000159453
0.00919882
0.000160848
0.00914469
0.000162105
0.00909019
0.000163223
0.00903536
0.0001642
0.00898025
0.000165036
0.00892491
0.00016573
0.00886939
0.000166281
0.00881372
0.000166691
0.00875798
0.00016696
0.00870218
0.000167088
0.0086464
0.000167077
0.00859066
0.00016693
0.00853502
0.000166647
0.00847952
0.000166232
0.0084242
0.000165687
0.00836911
0.000165016
0.00831428
0.000164222
0.00825976
0.000163309
0.00820559
0.000162281
0.0081518
0.000161142
0.00809843
0.000159896
0.0080455
0.00015855
0.00799307
0.000157107
0.00794114
0.000155573
0.00788976
0.000153953
0.00783895
0.000152253
0.00778874
0.000150479
0.00773914
0.000148635
0.00769018
0.000146727
0.00764189
0.000144762
0.00759426
0.000142745
0.00754733
0.000140681
0.0075011
0.000138576
0.00745559
0.000136436
0.00741081
0.000134267
0.00736676
0.000132073
0.00732345
0.00012986
0.00728088
0.000127634
0.00723907
0.000125398
0.007198
0.000123159
0.00715768
0.00012092
0.00711811
0.000118686
0.00707928
0.000116462
0.0070412
0.000114252
0.00700384
0.000112059
0.00696721
0.000109888
0.0069313
0.000107742
0.0068961
0.000105624
0.0068616
0.000103537
0.00682778
0.000101485
0.00679463
9.94695e-05
0.00676214
9.74935e-05
0.0067303
9.55594e-05
0.0066991
9.3669e-05
0.0066685
9.18242e-05
0.00663851
9.00267e-05
0.0066091
8.82778e-05
0.00658026
8.65789e-05
0.00655197
8.49309e-05
0.00652421
8.33348e-05
0.00649697
8.17903e-05
0.00647022
8.03014e-05
0.00644395
7.88569e-05
0.00641814
7.74922e-05
0.00639279
7.61009e-05
0.00636781
7.50024e-05
7.32481e-05
0.0062505
-2.01561e-06
0.00625201
-6.04804e-06
0.00625452
-1.00857e-05
0.00625805
-1.4133e-05
0.00626258
-1.81938e-05
0.00626814
-2.22719e-05
0.00627471
-2.63711e-05
0.00628232
-3.04946e-05
0.00629096
-3.46459e-05
0.00630064
-3.88279e-05
0.00631137
-4.30435e-05
0.00632317
-4.72953e-05
0.00633604
-5.15854e-05
0.00634999
-5.59156e-05
0.00636504
-6.02875e-05
0.00638118
-6.47021e-05
0.00639845
-6.91598e-05
0.00641683
-7.3661e-05
0.00643636
-7.8205e-05
0.00645704
-8.27908e-05
0.00647887
-8.74168e-05
0.00650187
-9.20809e-05
0.00652606
-9.678e-05
0.00655143
-0.000101511
0.00657799
-0.000106268
0.00660575
-0.000111048
0.00663472
-0.000115844
0.0066649
-0.00012065
0.00669629
-0.000125459
0.00672889
-0.000130262
0.00676269
-0.000135051
0.0067977
-0.000139816
0.00683389
-0.000144547
0.00687127
-0.000149234
0.00690982
-0.000153864
0.00694952
-0.000158427
0.00699035
-0.00016291
0.00703229
-0.0001673
0.00707531
-0.000171585
0.00711939
-0.00017575
0.00716449
-0.000179784
0.00721057
-0.000183673
0.0072576
-0.000187405
0.00730552
-0.000190967
0.0073543
-0.000194346
0.00740389
-0.000197533
0.00745423
-0.000200515
0.00750527
-0.000203283
0.00755696
-0.000205829
0.00760923
-0.000208145
0.00766202
-0.000210223
0.00771528
-0.00021206
0.00776894
-0.000213649
0.00782293
-0.00021499
0.0078772
-0.000216081
0.00793167
-0.000216922
0.0079863
-0.000217513
0.008041
-0.000217859
0.00809573
-0.000217963
0.00815041
-0.000217831
0.008205
-0.00021747
0.00825944
-0.000216886
0.00831367
-0.00021609
0.00836764
-0.00021509
0.0084213
-0.000213897
0.0084746
-0.000212523
0.00852752
-0.000210979
0.00857999
-0.000209277
0.00863199
-0.00020743
0.00868349
-0.000205451
0.00873445
-0.000203353
0.00878484
-0.000201148
0.00883465
-0.000198849
0.00888386
-0.000196469
0.00893244
-0.00019402
0.00898039
-0.000191514
0.00902769
-0.000188962
0.00907433
-0.000186375
0.00912031
-0.000183763
0.00916562
-0.000181136
0.00921027
-0.000178502
0.00925426
-0.000175869
0.00929758
-0.000173244
0.00934025
-0.000170634
0.00938226
-0.000168045
0.00942363
-0.00016548
0.00946436
-0.000162944
0.00950446
-0.00016044
0.00954395
-0.00015797
0.00958282
-0.000155536
0.0096211
-0.000153137
0.00965878
-0.000150774
0.00969589
-0.000148445
0.00973242
-0.00014615
0.00976838
-0.000143886
0.00980379
-0.00014165
0.00983865
-0.000139439
0.00987297
-0.000137248
0.00990675
-0.000135074
0.00993999
-0.000132912
0.00997269
-0.000130756
0.0100049
-0.000128602
0.0100365
-0.000126444
0.0100676
-0.000124276
0.0100982
-0.000122092
0.0101282
-0.000119886
0.0101576
-0.000117653
0.0101865
-0.000115387
0.0102148
-0.000113082
0.0102426
-0.000110731
0.0102697
-0.000108331
0.0102963
-0.000105875
0.0103222
-0.000103358
0.0103474
-0.000100777
0.010372
-9.81252e-05
0.010396
-9.53999e-05
0.0104192
-9.2597e-05
0.0104417
-8.97131e-05
0.0104635
-8.67451e-05
0.0104845
-8.36906e-05
0.0105047
-8.05472e-05
0.0105241
-7.73131e-05
0.0105427
-7.39868e-05
0.0105605
-7.05674e-05
0.0105773
-6.70542e-05
0.0105933
-6.3447e-05
0.0106083
-5.97458e-05
0.0106224
-5.59513e-05
0.0106355
-5.20641e-05
0.0106476
-4.80856e-05
0.0106586
-4.40172e-05
0.0106687
-3.98607e-05
0.0106777
-3.56183e-05
0.0106856
-3.12923e-05
0.0106924
-2.68853e-05
0.010698
-2.24001e-05
0.0107025
-1.78399e-05
0.0107059
-1.32079e-05
0.0107081
-8.50749e-06
0.0107091
-3.74229e-06
0.0107088
1.08389e-06
0.0107074
5.96723e-06
0.0107047
1.09038e-05
0.0107008
1.58894e-05
0.0106956
2.09199e-05
0.0106891
2.59911e-05
0.0106813
3.10986e-05
0.0106723
3.6238e-05
0.0106619
4.14049e-05
0.0106503
4.65947e-05
0.0106374
5.1803e-05
0.0106231
5.7025e-05
0.0106075
6.22563e-05
0.0105906
6.74919e-05
0.0105724
7.27273e-05
0.0105529
7.79576e-05
0.0105321
8.3178e-05
0.01051
8.83835e-05
0.0104865
9.35691e-05
0.0104618
9.873e-05
0.0104358
0.000103861
0.0104085
0.000108957
0.0103799
0.000114012
0.0103501
0.000119022
0.010319
0.00012398
0.0102867
0.000128882
0.0102532
0.000133722
0.0102185
0.000138494
0.0101826
0.000143193
0.0101455
0.000147812
0.0101074
0.000152347
0.010068
0.00015679
0.0100276
0.000161137
0.00998617
0.000165381
0.00994366
0.000169516
0.00990014
0.000173537
0.00985563
0.000177437
0.00981018
0.000181211
0.00976382
0.000184853
0.00971657
0.000188357
0.00966847
0.000191719
0.00961957
0.000194931
0.0095699
0.000197991
0.0095195
0.000200892
0.00946841
0.000203629
0.00941667
0.0002062
0.00936433
0.000208598
0.00931144
0.000210822
0.00925802
0.000212866
0.00920414
0.000214729
0.00914984
0.000216408
0.00909516
0.0002179
0.00904016
0.000219205
0.00898487
0.00022032
0.00892936
0.000221246
0.00887366
0.000221981
0.00881782
0.000222527
0.0087619
0.000222883
0.00870593
0.000223052
0.00864997
0.000223035
0.00859407
0.000222835
0.00853826
0.000222454
0.0084826
0.000221897
0.00842712
0.000221165
0.00837187
0.000220265
0.00831689
0.0002192
0.00826223
0.000217975
0.00820791
0.000216597
0.00815398
0.000215071
0.00810047
0.000213403
0.00804743
0.000211599
0.00799487
0.000209667
0.00794282
0.000207613
0.00789133
0.000205445
0.00784042
0.000203169
0.0077901
0.000200793
0.00774041
0.000198325
0.00769137
0.000195773
0.00764299
0.000193143
0.00759529
0.000190444
0.00754829
0.000187683
0.00750199
0.000184867
0.00745643
0.000182005
0.00741159
0.000179103
0.00736749
0.000176169
0.00732414
0.00017321
0.00728154
0.000170233
0.0072397
0.000167244
0.00719861
0.00016425
0.00715827
0.000161257
0.00711868
0.000158272
0.00707985
0.000155299
0.00704175
0.000152345
0.0070044
0.000149415
0.00696777
0.000146514
0.00693187
0.000143647
0.00689667
0.000140817
0.00686218
0.00013803
0.00682838
0.000135288
0.00679525
0.000132597
0.00676279
0.000129958
0.00673097
0.000127375
0.00669979
0.000124851
0.00666922
0.000122388
0.00663926
0.000119989
0.00660988
0.000117655
0.00658108
0.000115387
0.00655282
0.000113188
0.00652509
0.000111059
0.00649789
0.000108998
0.00647118
0.000107012
0.00644495
0.000105085
0.00641917
0.000103268
0.00639386
0.000101409
0.00636892
9.99497e-05
9.76052e-05
0.0062505
-2.51642e-06
0.006252
-7.55079e-06
0.00625451
-1.25918e-05
0.00625802
-1.76449e-05
0.00626254
-2.27152e-05
0.00626808
-2.78074e-05
0.00627463
-3.29261e-05
0.00628221
-3.80757e-05
0.00629083
-4.32603e-05
0.00630048
-4.84839e-05
0.00631119
-5.37501e-05
0.00632296
-5.9062e-05
0.0063358
-6.44225e-05
0.00634971
-6.98339e-05
0.00636472
-7.52982e-05
0.00638084
-8.08167e-05
0.00639807
-8.63903e-05
0.00641643
-9.20189e-05
0.00643592
-9.77023e-05
0.00645657
-0.000103439
0.00647838
-0.000109227
0.00650137
-0.000115064
0.00652553
-0.000120946
0.00655089
-0.000126869
0.00657745
-0.000132827
0.00660522
-0.000138814
0.0066342
-0.000144823
0.00666439
-0.000150846
0.0066958
-0.000156873
0.00672844
-0.000162894
0.00676229
-0.000168899
0.00679735
-0.000174876
0.00683361
-0.000180812
0.00687107
-0.000186692
0.00690971
-0.000192504
0.00694951
-0.000198232
0.00699046
-0.00020386
0.00703254
-0.000209373
0.00707571
-0.000214754
0.00711994
-0.000219987
0.00716521
-0.000225055
0.00721148
-0.000229941
0.00725871
-0.00023463
0.00730684
-0.000239105
0.00735585
-0.000243351
0.00740567
-0.000247355
0.00745626
-0.000251102
0.00750755
-0.000254579
0.0075595
-0.000257777
0.00761204
-0.000260684
0.00766511
-0.000263293
0.00771865
-0.000265596
0.00777259
-0.000267589
0.00782686
-0.000269268
0.00788141
-0.000270631
0.00793617
-0.000271679
0.00799107
-0.000272414
0.00804605
-0.000272838
0.00810105
-0.000272958
0.008156
-0.000272781
0.00821084
-0.000272314
0.00826552
-0.000271569
0.00831999
-0.000270555
0.00837418
-0.000269285
0.00842806
-0.000267773
0.00848157
-0.000266033
0.00853467
-0.00026408
0.00858732
-0.000261929
0.00863949
-0.000259596
0.00869113
-0.000257098
0.00874223
-0.00025445
0.00879275
-0.00025167
0.00884268
-0.000248772
0.00889198
-0.000245774
0.00894065
-0.00024269
0.00898867
-0.000239536
0.00903603
-0.000236325
0.00908273
-0.000233071
0.00912876
-0.000229788
0.00917411
-0.000226487
0.00921878
-0.000223178
0.00926279
-0.000219872
0.00930612
-0.000216579
0.00934879
-0.000213306
0.00939081
-0.000210059
0.00943217
-0.000206845
0.0094729
-0.000203669
0.00951299
-0.000200534
0.00955247
-0.000197444
0.00959133
-0.000194398
0.00962959
-0.000191399
0.00966726
-0.000188446
0.00970436
-0.000185538
0.00974088
-0.000182673
0.00977684
-0.000179847
0.00981225
-0.000177057
0.00984711
-0.0001743
0.00988143
-0.000171569
0.00991521
-0.000168859
0.00994847
-0.000166165
0.00998119
-0.00016348
0.0100134
-0.000160797
0.0100451
-0.000158109
0.0100762
-0.000155408
0.0101068
-0.000152689
0.0101368
-0.000149942
0.0101663
-0.000147161
0.0101953
-0.000144338
0.0102237
-0.000141466
0.0102515
-0.000138538
0.0102787
-0.000135546
0.0103053
-0.000132485
0.0103313
-0.000129347
0.0103567
-0.000126127
0.0103813
-0.00012282
0.0104054
-0.000119419
0.0104287
-0.000115921
0.0104513
-0.000112321
0.0104732
-0.000108615
0.0104943
-0.0001048
0.0105146
-0.000100873
0.0105341
-9.68317e-05
0.0105528
-9.26747e-05
0.0105706
-8.84005e-05
0.0105876
-8.40083e-05
0.0106036
-7.94978e-05
0.0106188
-7.48692e-05
0.0106329
-7.01231e-05
0.0106461
-6.52607e-05
0.0106583
-6.02833e-05
0.0106695
-5.51931e-05
0.0106796
-4.99922e-05
0.0106887
-4.46833e-05
0.0106967
-3.92694e-05
0.0107036
-3.37538e-05
0.0107093
-2.81401e-05
0.0107139
-2.24322e-05
0.0107173
-1.66342e-05
0.0107196
-1.07504e-05
0.0107206
-4.78528e-06
0.0107204
1.25634e-06
0.010719
7.36963e-06
0.0107164
1.35496e-05
0.0107125
1.97912e-05
0.0107073
2.6089e-05
0.0107009
3.24378e-05
0.0106931
3.88322e-05
0.0106841
4.52665e-05
0.0106738
5.17353e-05
0.0106621
5.8233e-05
0.0106492
6.47537e-05
0.0106349
7.12918e-05
0.0106193
7.78414e-05
0.0106024
8.43967e-05
0.0105842
9.09517e-05
0.0105647
9.75005e-05
0.0105438
0.000104037
0.0105216
0.000110555
0.0104981
0.000117048
0.0104734
0.000123511
0.0104473
0.000129936
0.0104199
0.000136317
0.0103913
0.000142648
0.0103614
0.000148922
0.0103302
0.000155132
0.0102979
0.000161272
0.0102642
0.000167334
0.0102294
0.000173311
0.0101934
0.000179197
0.0101562
0.000184984
0.0101179
0.000190664
0.0100785
0.000196231
0.0100379
0.000201677
0.00999634
0.000206994
0.00995368
0.000212176
0.00991
0.000217214
0.00986533
0.000222102
0.00981971
0.000226831
0.00977317
0.000231395
0.00972574
0.000235787
0.00967746
0.00024
0.00962836
0.000244027
0.00957849
0.000247861
0.00952789
0.000251497
0.00947659
0.000254928
0.00942464
0.000258149
0.00937208
0.000261155
0.00931896
0.000263941
0.00926533
0.000266503
0.00921122
0.000268838
0.00915669
0.000270941
0.00910178
0.00027281
0.00904654
0.000274443
0.00899102
0.000275839
0.00893527
0.000276996
0.00887934
0.000277915
0.00882327
0.000278596
0.00876711
0.000279039
0.00871092
0.000279247
0.00865473
0.000279221
0.0085986
0.000278966
0.00854257
0.000278483
0.00848669
0.000277779
0.008431
0.000276856
0.00837554
0.000275722
0.00832036
0.00027438
0.0082655
0.000272839
0.00821099
0.000271105
0.00815687
0.000269186
0.00810319
0.000267088
0.00804997
0.00026482
0.00799724
0.000262391
0.00794505
0.00025981
0.00789341
0.000257085
0.00784235
0.000254225
0.0077919
0.000251241
0.00774209
0.000248141
0.00769292
0.000244935
0.00764444
0.000241632
0.00759664
0.000238243
0.00754954
0.000234777
0.00750317
0.000231243
0.00745752
0.00022765
0.00741262
0.000224008
0.00736846
0.000220327
0.00732506
0.000216614
0.00728241
0.000212879
0.00724052
0.000209129
0.0071994
0.000205374
0.00715904
0.00020162
0.00711943
0.000197877
0.00708058
0.00019415
0.00704248
0.000190446
0.00700512
0.000186773
0.0069685
0.000183137
0.00693261
0.000179543
0.00689743
0.000175997
0.00686295
0.000172505
0.00682917
0.00016907
0.00679607