/*--------------------------------*- C++ -*----------------------------------*\
| =========                 |                                                 |
| \\      /  F ield         | OpenFOAM: The Open Source CFD Toolbox           |
|  \\    /   O peration     | Version:  2306                                  |
|   \\  /    A nd           | Website:  www.openfoam.com                      |
|    \\/     M anipulation  |                                                 |
\*---------------------------------------------------------------------------*/
FoamFile
{
    version     2.0;
    format      ascii;
    arch        "LSB;label=32;scalar=64";
    class       volScalarField;
    location    "9.5";
    object      T;
}
// * * * * * * * * * * * * * * * * * * * * * * * * * * * * * * * * * * * * * //

dimensions      [0 0 0 1 0 0 0];

internalField   nonuniform List<scalar> 
32768
(
300
300
300
300
300
300
300
300
300
300
300
300
300
300
300
300
300
300
300
300
300
300
300
300
300
300
300
300
300
300
300
300
300
300
300
300
300
300
300
300
300
300
300
300
300
300
300
300
300
300
300
300
300
300
300
300
300
300
300
300
300
300
300
300
300
300
300
300
300
300
300
300
300
300
300
300
300
300
300
300
300
300
299.999
299.999
299.999
299.999
299.999
299.999
299.999
299.999
299.998
299.998
299.998
299.998
299.997
299.997
299.996
299.996
299.996
299.995
299.994
299.994
299.993
299.992
299.991
299.991
299.99
299.988
299.987
299.986
299.985
299.983
299.981
299.98
299.978
299.975
299.973
299.971
299.968
299.965
299.962
299.959
299.956
299.952
299.948
299.944
299.939
299.935
299.93
299.924
299.919
299.912
299.906
299.899
299.892
299.885
299.877
299.868
299.859
299.85
299.84
299.83
299.82
299.808
299.797
299.784
299.772
299.758
299.744
299.73
299.715
299.699
299.683
299.666
299.649
299.631
299.612
299.593
299.573
299.552
299.531
299.509
299.487
299.463
299.44
299.415
299.39
299.364
299.338
299.311
299.284
299.255
299.227
299.197
299.167
299.137
299.105
299.074
299.041
299.009
298.975
298.941
298.907
298.872
298.837
298.801
298.765
298.728
298.691
298.653
298.615
298.577
298.538
298.499
298.46
298.42
298.38
298.34
298.299
298.259
298.218
298.176
298.135
298.093
298.051
298.009
297.967
297.924
297.881
297.839
297.796
297.753
297.71
297.666
297.623
297.579
297.536
297.492
297.448
297.404
297.36
297.316
297.271
297.227
297.182
297.138
297.093
297.048
297.002
296.956
296.909
296.859
296.807
296.746
296.671
296.568
296.408
296.135
295.641
294.711
292.924
289.459
282.718
269.599
244.097
194.625
98.8789
-85.9539
-441.836
-1125.27
-2434.31
-4935.18
-9700.89
-18759.4
-35936.5
-68420.5
300
300
300
300
300
300
300
300
300
300
300
300
300
300
300
300
300
300
300
300
300
300
300
300
300
300
300
300
300
300
300
300
300
300
300
300
300
300
300
300
300
300
300
300
300
300
300
300
300
300
300
300
300
300
300
300
300
300
300
300
300
300
300
300
300
300
300
300
300
300
300
300
300
300
300
300
300
300
300
300
300
299.999
299.999
299.999
299.999
299.999
299.999
299.999
299.999
299.998
299.998
299.998
299.998
299.997
299.997
299.997
299.996
299.996
299.995
299.995
299.994
299.993
299.992
299.992
299.991
299.99
299.989
299.987
299.986
299.985
299.983
299.981
299.98
299.978
299.976
299.973
299.971
299.968
299.965
299.962
299.959
299.956
299.952
299.948
299.944
299.939
299.935
299.93
299.924
299.918
299.912
299.906
299.899
299.892
299.884
299.877
299.868
299.859
299.85
299.84
299.83
299.819
299.808
299.796
299.784
299.771
299.758
299.744
299.73
299.715
299.699
299.683
299.666
299.648
299.63
299.612
299.592
299.573
299.552
299.531
299.509
299.487
299.464
299.44
299.415
299.391
299.365
299.339
299.312
299.284
299.256
299.228
299.198
299.169
299.138
299.107
299.076
299.044
299.011
298.978
298.944
298.91
298.876
298.841
298.805
298.769
298.733
298.696
298.658
298.621
298.583
298.545
298.506
298.467
298.427
298.388
298.348
298.308
298.267
298.226
298.185
298.144
298.103
298.061
298.019
297.977
297.935
297.893
297.851
297.808
297.765
297.722
297.679
297.636
297.593
297.55
297.506
297.463
297.419
297.375
297.332
297.288
297.244
297.199
297.155
297.11
297.066
297.021
296.975
296.929
296.882
296.833
296.781
296.72
296.646
296.543
296.383
296.11
295.617
294.687
292.9
289.436
282.697
269.58
244.083
194.618
98.8832
-85.9346
-441.8
-1125.22
-2434.31
-4935.35
-9701.61
-18761.6
-35942.3
-68434.6
300
300
300
300
300
300
300
300
300
300
300
300
300
300
300
300
300
300
300
300
300
300
300
300
300
300
300
300
300
300
300
300
300
300
300
300
300
300
300
300
300
300
300
300
300
300
300
300
300
300
300
300
300
300
300
300
300
300
300
300
300
300
300
300
300
300
300
300
300
300
300
300
300
300
300
300
300
300
300
300
299.999
299.999
299.999
299.999
299.999
299.999
299.999
299.998
299.998
299.998
299.998
299.997
299.997
299.997
299.996
299.996
299.995
299.995
299.994
299.993
299.993
299.992
299.991
299.99
299.989
299.988
299.986
299.985
299.984
299.982
299.98
299.978
299.976
299.974
299.971
299.969
299.966
299.963
299.96
299.956
299.953
299.949
299.945
299.94
299.935
299.93
299.925
299.919
299.913
299.907
299.9
299.893
299.885
299.877
299.869
299.86
299.85
299.841
299.83
299.82
299.808
299.797
299.784
299.772
299.758
299.744
299.73
299.715
299.699
299.683
299.666
299.649
299.631
299.612
299.593
299.573
299.552
299.531
299.51
299.487
299.464
299.441
299.417
299.392
299.366
299.34
299.314
299.286
299.259
299.23
299.201
299.172
299.142
299.111
299.08
299.048
299.016
298.983
298.95
298.916
298.882
298.847
298.812
298.777
298.741
298.705
298.668
298.631
298.593
298.556
298.518
298.479
298.44
298.401
298.362
298.322
298.283
298.243
298.202
298.162
298.121
298.08
298.039
297.998
297.956
297.914
297.873
297.831
297.789
297.746
297.704
297.662
297.619
297.576
297.534
297.491
297.448
297.405
297.361
297.318
297.275
297.231
297.187
297.144
297.1
297.056
297.011
296.967
296.922
296.876
296.83
296.781
296.728
296.669
296.594
296.492
296.332
296.06
295.567
294.638
292.853
289.391
282.655
269.545
244.058
194.609
98.8988
-85.8842
-441.709
-1125.11
-2434.25
-4935.62
-9702.93
-18765.8
-35953.5
-68462.5
300
300
300
300
300
300
300
300
300
300
300
300
300
300
300
300
300
300
300
300
300
300
300
300
300
300
300
300
300
300
300
300
300
300
300
300
300
300
300
300
300
300
300
300
300
300
300
300
300
300
300
300
300
300
300
300
300
300
300
300
300
300
300
300
300
300
300
300
300
300
300
300
300
300
300
300
300
300
299.999
299.999
299.999
299.999
299.999
299.999
299.999
299.998
299.998
299.998
299.998
299.997
299.997
299.997
299.996
299.996
299.995
299.995
299.994
299.993
299.993
299.992
299.991
299.99
299.989
299.987
299.986
299.985
299.983
299.981
299.979
299.977
299.975
299.973
299.97
299.968
299.965
299.962
299.958
299.955
299.951
299.947
299.942
299.938
299.933
299.927
299.922
299.916
299.909
299.903
299.895
299.888
299.88
299.872
299.863
299.854
299.844
299.834
299.823
299.812
299.8
299.788
299.775
299.761
299.748
299.733
299.718
299.702
299.686
299.669
299.652
299.634
299.615
299.596
299.576
299.556
299.535
299.513
299.491
299.468
299.444
299.42
299.395
299.37
299.344
299.318
299.291
299.263
299.235
299.206
299.177
299.147
299.117
299.086
299.054
299.023
298.99
298.957
298.924
298.891
298.856
298.822
298.787
298.752
298.716
298.68
298.644
298.607
298.57
298.532
298.495
298.457
298.418
298.38
298.341
298.302
298.263
298.223
298.184
298.144
298.104
298.064
298.023
297.983
297.942
297.901
297.86
297.819
297.778
297.736
297.695
297.653
297.612
297.57
297.528
297.486
297.444
297.402
297.359
297.317
297.274
297.232
297.189
297.146
297.103
297.06
297.017
296.973
296.929
296.886
296.841
296.796
296.75
296.702
296.65
296.591
296.517
296.415
296.256
295.985
295.493
294.565
292.782
289.323
282.593
269.492
244.02
194.597
98.9252
-85.8034
-441.564
-1124.92
-2434.14
-4936
-9704.88
-18772
-35970.3
-68504.5
300
300
300
300
300
300
300
300
300
300
300
300
300
300
300
300
300
300
300
300
300
300
300
300
300
300
300
300
300
300
300
300
300
300
300
300
300
300
300
300
300
300
300
300
300
300
300
300
300
300
300
300
300
300
300
300
300
300
300
300
300
300
300
300
300
300
300
300
300
300
300
300
300
300
300
300
299.999
299.999
299.999
299.999
299.999
299.999
299.999
299.998
299.998
299.998
299.998
299.997
299.997
299.997
299.996
299.996
299.995
299.994
299.994
299.993
299.992
299.991
299.99
299.989
299.988
299.987
299.985
299.984
299.982
299.98
299.978
299.976
299.974
299.971
299.968
299.965
299.962
299.959
299.955
299.951
299.947
299.943
299.938
299.933
299.927
299.922
299.916
299.909
299.902
299.895
299.887
299.879
299.87
299.861
299.852
299.842
299.831
299.82
299.808
299.796
299.784
299.77
299.757
299.742
299.727
299.712
299.695
299.679
299.661
299.643
299.625
299.605
299.586
299.565
299.544
299.522
299.5
299.477
299.454
299.429
299.405
299.379
299.353
299.327
299.3
299.272
299.244
299.215
299.186
299.156
299.126
299.095
299.064
299.032
299
298.968
298.935
298.901
298.868
298.833
298.799
298.764
298.729
298.693
298.657
298.621
298.585
298.548
298.511
298.474
298.436
298.398
298.36
298.322
298.284
298.245
298.207
298.168
298.129
298.09
298.05
298.011
297.971
297.931
297.892
297.852
297.812
297.771
297.731
297.691
297.65
297.61
297.569
297.528
297.487
297.447
297.406
297.364
297.323
297.282
297.241
297.199
297.157
297.116
297.074
297.032
296.99
296.948
296.905
296.863
296.82
296.777
296.733
296.689
296.644
296.596
296.545
296.487
296.414
296.312
296.154
295.884
295.393
294.468
292.687
289.233
282.51
269.422
243.971
194.581
98.9612
-85.6945
-441.369
-1124.67
-2434
-4936.5
-9707.48
-18780.3
-35992.8
-68560.4
300
300
300
300
300
300
300
300
300
300
300
300
300
300
300
300
300
300
300
300
300
300
300
300
300
300
300
300
300
300
300
300
300
300
300
300
300
300
300
300
300
300
300
300
300
300
300
300
300
300
300
300
300
300
300
300
300
300
300
300
300
300
300
300
300
300
300
300
300
300
300
300
300
300
299.999
299.999
299.999
299.999
299.999
299.999
299.999
299.998
299.998
299.998
299.998
299.997
299.997
299.996
299.996
299.995
299.995
299.994
299.993
299.993
299.992
299.991
299.99
299.988
299.987
299.986
299.984
299.982
299.98
299.978
299.976
299.974
299.971
299.969
299.966
299.962
299.959
299.955
299.951
299.947
299.942
299.937
299.932
299.926
299.92
299.914
299.907
299.9
299.892
299.884
299.875
299.866
299.857
299.847
299.836
299.825
299.813
299.801
299.788
299.775
299.761
299.746
299.731
299.715
299.698
299.681
299.663
299.645
299.626
299.606
299.586
299.565
299.543
299.521
299.498
299.474
299.45
299.425
299.399
299.373
299.346
299.319
299.291
299.263
299.234
299.204
299.174
299.144
299.113
299.082
299.05
299.017
298.984
298.951
298.918
298.884
298.849
298.815
298.78
298.745
298.709
298.673
298.637
298.601
298.564
298.528
298.491
298.453
298.416
298.379
298.341
298.303
298.265
298.227
298.189
298.151
298.112
298.074
298.035
297.997
297.958
297.919
297.88
297.841
297.802
297.763
297.724
297.685
297.646
297.607
297.567
297.528
297.489
297.449
297.41
297.37
297.33
297.291
297.251
297.211
297.171
297.131
297.091
297.05
297.01
296.97
296.929
296.888
296.847
296.806
296.765
296.724
296.682
296.64
296.597
296.554
296.51
296.464
296.414
296.356
296.284
296.184
296.027
295.758
295.269
294.345
292.568
289.119
282.406
269.333
243.908
194.561
99.0052
-85.5597
-441.127
-1124.36
-2433.83
-4937.14
-9710.75
-18790.7
-36021
-68630.6
300
300
300
300
300
300
300
300
300
300
300
300
300
300
300
300
300
300
300
300
300
300
300
300
300
300
300
300
300
300
300
300
300
300
300
300
300
300
300
300
300
300
300
300
300
300
300
300
300
300
300
300
300
300
300
300
300
300
300
300
300
300
300
300
300
300
300
300
300
300
300
300
299.999
299.999
299.999
299.999
299.999
299.999
299.999
299.998
299.998
299.998
299.997
299.997
299.997
299.996
299.996
299.995
299.994
299.994
299.993
299.992
299.991
299.99
299.989
299.987
299.986
299.984
299.983
299.981
299.979
299.976
299.974
299.971
299.969
299.965
299.962
299.958
299.955
299.95
299.946
299.941
299.936
299.93
299.924
299.918
299.911
299.904
299.896
299.888
299.88
299.87
299.861
299.851
299.84
299.828
299.817
299.804
299.791
299.777
299.763
299.747
299.732
299.715
299.698
299.68
299.661
299.642
299.622
299.602
299.58
299.558
299.535
299.512
299.487
299.463
299.437
299.411
299.384
299.356
299.328
299.299
299.27
299.24
299.209
299.178
299.147
299.115
299.082
299.049
299.015
298.981
298.947
298.912
298.877
298.842
298.806
298.77
298.734
298.697
298.66
298.623
298.586
298.549
298.511
298.473
298.436
298.398
298.36
298.322
298.283
298.245
298.207
298.169
298.131
298.092
298.054
298.016
297.977
297.939
297.901
297.863
297.825
297.786
297.748
297.71
297.672
297.634
297.596
297.558
297.52
297.482
297.444
297.406
297.368
297.33
297.292
297.254
297.216
297.178
297.14
297.101
297.063
297.025
296.986
296.948
296.909
296.87
296.832
296.793
296.753
296.714
296.675
296.635
296.595
296.555
296.515
296.474
296.433
296.391
296.348
296.303
296.255
296.198
296.128
296.028
295.873
295.605
295.118
294.197
292.424
288.982
282.28
269.226
243.832
194.534
99.0556
-85.4015
-440.842
-1123.99
-2433.64
-4937.93
-9714.72
-18803.3
-36055
-68715
300
300
300
300
300
300
300
300
300
300
300
300
300
300
300
300
300
300
300
300
300
300
300
300
300
300
300
300
300
300
300
300
300
300
300
300
300
300
300
300
300
300
300
300
300
300
300
300
300
300
300
300
300
300
300
300
300
300
300
300
300
300
300
300
300
300
300
300
300
300
299.999
299.999
299.999
299.999
299.999
299.999
299.999
299.998
299.998
299.998
299.997
299.997
299.997
299.996
299.995
299.995
299.994
299.993
299.992
299.991
299.99
299.989
299.988
299.986
299.985
299.983
299.981
299.979
299.977
299.974
299.971
299.969
299.965
299.962
299.958
299.954
299.95
299.945
299.94
299.934
299.928
299.922
299.916
299.908
299.901
299.893
299.884
299.875
299.865
299.855
299.844
299.832
299.82
299.807
299.793
299.779
299.764
299.748
299.732
299.715
299.697
299.678
299.658
299.638
299.617
299.595
299.572
299.549
299.524
299.499
299.473
299.447
299.419
299.391
299.362
299.333
299.303
299.272
299.24
299.208
299.175
299.141
299.107
299.073
299.037
299.002
298.966
298.929
298.892
298.855
298.817
298.779
298.741
298.703
298.664
298.625
298.586
298.546
298.507
298.467
298.428
298.388
298.348
298.309
298.269
298.229
298.19
298.15
298.111
298.071
298.032
297.993
297.954
297.915
297.876
297.838
297.799
297.761
297.723
297.685
297.647
297.609
297.572
297.535
297.497
297.46
297.423
297.386
297.35
297.313
297.276
297.24
297.203
297.167
297.131
297.095
297.058
297.022
296.986
296.95
296.913
296.877
296.841
296.804
296.768
296.731
296.694
296.658
296.621
296.584
296.546
296.509
296.471
296.434
296.396
296.357
296.319
296.28
296.24
296.2
296.158
296.115
296.068
296.013
295.943
295.846
295.692
295.426
294.941
294.023
292.255
288.821
282.132
269.099
243.741
194.501
99.1105
-85.2231
-440.52
-1123.58
-2433.44
-4938.9
-9719.42
-18818.1
-36094.9
-68813.9
300
300
300
300
300
300
300
300
300
300
300
300
300
300
300
300
300
300
300
300
300
300
300
300
300
300
300
300
300
300
300
300
300
300
300
300
300
300
300
300
300
300
300
300
300
300
300
300
300
300
300
300
300
300
300
300
300
300
300
300
300
300
300
300
300
300
300
300
299.999
299.999
299.999
299.999
299.999
299.999
299.999
299.998
299.998
299.998
299.997
299.997
299.996
299.996
299.995
299.995
299.994
299.993
299.992
299.991
299.99
299.988
299.987
299.985
299.984
299.982
299.979
299.977
299.975
299.972
299.969
299.965
299.962
299.958
299.954
299.949
299.944
299.939
299.933
299.927
299.92
299.913
299.906
299.897
299.889
299.88
299.87
299.859
299.848
299.836
299.824
299.811
299.797
299.782
299.766
299.75
299.733
299.715
299.696
299.676
299.656
299.634
299.612
299.588
299.564
299.539
299.513
299.486
299.458
299.43
299.4
299.37
299.338
299.306
299.273
299.24
299.205
299.17
299.134
299.097
299.06
299.022
298.984
298.945
298.905
298.865
298.825
298.784
298.742
298.701
298.659
298.617
298.575
298.532
298.489
298.447
298.404
298.361
298.318
298.275
298.232
298.19
298.147
298.104
298.062
298.02
297.978
297.937
297.895
297.854
297.813
297.773
297.732
297.692
297.653
297.614
297.575
297.536
297.498
297.46
297.422
297.385
297.347
297.311
297.274
297.238
297.202
297.166
297.131
297.096
297.061
297.026
296.991
296.957
296.922
296.888
296.854
296.82
296.786
296.752
296.718
296.684
296.65
296.616
296.582
296.548
296.514
296.48
296.446
296.411
296.377
296.342
296.307
296.272
296.236
296.201
296.165
296.128
296.092
296.055
296.017
295.979
295.939
295.898
295.852
295.799
295.731
295.635
295.483
295.22
294.737
293.823
292.06
288.635
281.96
268.952
243.635
194.459
99.1677
-85.0277
-440.165
-1123.14
-2433.25
-4940.07
-9724.89
-18835.1
-36140.7
-68927.5
300
300
300
300
300
300
300
300
300
300
300
300
300
300
300
300
300
300
300
300
300
300
300
300
300
300
300
300
300
300
300
300
300
300
300
300
300
300
300
300
300
300
300
300
300
300
300
300
300
300
300
300
300
300
300
300
300
300
300
300
300
300
300
300
300
300
300
299.999
299.999
299.999
299.999
299.999
299.999
299.998
299.998
299.998
299.997
299.997
299.996
299.996
299.995
299.994
299.993
299.992
299.991
299.99
299.989
299.988
299.986
299.984
299.982
299.98
299.978
299.975
299.972
299.969
299.966
299.962
299.958
299.954
299.949
299.944
299.938
299.932
299.926
299.919
299.911
299.903
299.895
299.885
299.876
299.865
299.854
299.842
299.829
299.816
299.801
299.786
299.77
299.753
299.736
299.717
299.697
299.677
299.655
299.632
299.609
299.584
299.558
299.531
299.503
299.475
299.445
299.414
299.382
299.349
299.314
299.279
299.243
299.207
299.169
299.13
299.09
299.05
299.009
298.967
298.924
298.881
298.837
298.793
298.748
298.702
298.656
298.61
298.564
298.517
298.47
298.422
298.375
298.327
298.28
298.232
298.185
298.137
298.09
298.043
297.996
297.949
297.903
297.857
297.811
297.766
297.721
297.676
297.632
297.589
297.546
297.503
297.461
297.42
297.379
297.338
297.298
297.259
297.22
297.182
297.144
297.107
297.07
297.034
296.998
296.963
296.928
296.893
296.859
296.826
296.792
296.759
296.727
296.694
296.662
296.63
296.598
296.567
296.535
296.504
296.473
296.442
296.411
296.38
296.349
296.318
296.287
296.256
296.224
296.193
296.162
296.13
296.098
296.066
296.034
296.001
295.968
295.935
295.902
295.868
295.834
295.799
295.764
295.728
295.69
295.651
295.607
295.556
295.491
295.397
295.246
294.986
294.506
293.596
291.839
288.424
281.765
268.784
243.511
194.407
99.2248
-84.819
-439.783
-1122.66
-2433.09
-4941.46
-9731.18
-18854.6
-36192.7
-69056
300
300
300
300
300
300
300
300
300
300
300
300
300
300
300
300
300
300
300
300
300
300
300
300
300
300
300
300
300
300
300
300
300
300
300
300
300
300
300
300
300
300
300
300
300
300
300
300
300
300
300
300
300
300
300
300
300
300
300
300
300
300
300
300
300
299.999
299.999
299.999
299.999
299.999
299.999
299.998
299.998
299.998
299.997
299.997
299.996
299.996
299.995
299.994
299.993
299.992
299.991
299.99
299.988
299.987
299.985
299.983
299.981
299.978
299.976
299.973
299.97
299.966
299.963
299.958
299.954
299.949
299.944
299.938
299.932
299.925
299.918
299.91
299.901
299.892
299.883
299.872
299.861
299.849
299.836
299.823
299.808
299.793
299.777
299.759
299.741
299.722
299.701
299.68
299.657
299.634
299.609
299.583
299.555
299.527
299.497
299.466
299.434
299.401
299.366
299.33
299.293
299.255
299.216
299.175
299.134
299.091
299.048
299.003
298.957
298.911
298.863
298.815
298.766
298.716
298.666
298.615
298.563
298.511
298.459
298.406
298.353
298.299
298.246
298.192
298.139
298.085
298.031
297.978
297.925
297.872
297.819
297.766
297.714
297.663
297.612
297.561
297.511
297.462
297.413
297.365
297.318
297.271
297.225
297.18
297.135
297.092
297.049
297.007
296.966
296.925
296.885
296.846
296.808
296.771
296.734
296.698
296.663
296.629
296.595
296.561
296.529
296.497
296.465
296.434
296.404
296.374
296.344
296.315
296.286
296.257
296.229
296.2
296.172
296.145
296.117
296.089
296.062
296.034
296.007
295.979
295.952
295.924
295.896
295.869
295.84
295.812
295.784
295.755
295.726
295.696
295.666
295.636
295.606
295.575
295.544
295.512
295.479
295.446
295.411
295.374
295.332
295.284
295.22
295.129
294.981
294.723
294.247
293.341
291.592
288.187
281.546
268.594
243.369
194.343
99.2791
-84.6014
-439.382
-1122.18
-2432.96
-4943.1
-9738.33
-18876.5
-36250.9
-69199.6
300
300
300
300
300
300
300
300
300
300
300
300
300
300
300
300
300
300
300
300
300
300
300
300
300
300
300
300
300
300
300
300
300
300
300
300
300
300
300
300
300
300
300
300
300
300
300
300
300
300
300
300
300
300
300
300
300
300
300
300
300
300
300
299.999
299.999
299.999
299.999
299.999
299.999
299.998
299.998
299.998
299.997
299.997
299.996
299.995
299.995
299.994
299.993
299.992
299.991
299.989
299.988
299.986
299.984
299.982
299.98
299.977
299.974
299.971
299.967
299.964
299.959
299.955
299.95
299.944
299.938
299.932
299.925
299.917
299.909
299.9
299.891
299.881
299.87
299.858
299.845
299.832
299.817
299.802
299.785
299.768
299.749
299.73
299.709
299.687
299.663
299.639
299.613
299.585
299.557
299.527
299.495
299.463
299.428
299.393
299.355
299.317
299.277
299.236
299.193
299.149
299.103
299.056
299.008
298.959
298.908
298.856
298.804
298.75
298.695
298.639
298.582
298.525
298.467
298.408
298.349
298.289
298.228
298.168
298.107
298.046
297.984
297.923
297.862
297.801
297.74
297.679
297.619
297.559
297.5
297.441
297.383
297.325
297.268
297.212
297.157
297.102
297.049
296.996
296.945
296.894
296.844
296.796
296.748
296.702
296.657
296.612
296.569
296.527
296.486
296.446
296.407
296.37
296.333
296.297
296.262
296.229
296.196
296.164
296.133
296.102
296.073
296.044
296.016
295.988
295.961
295.935
295.909
295.884
295.859
295.834
295.81
295.786
295.762
295.739
295.715
295.692
295.669
295.646
295.623
295.599
295.576
295.552
295.529
295.505
295.481
295.456
295.432
295.407
295.381
295.356
295.33
295.303
295.276
295.248
295.22
295.191
295.162
295.131
295.099
295.065
295.027
294.981
294.92
294.831
294.686
294.431
293.959
293.058
291.316
287.923
281.301
268.381
243.208
194.266
99.3277
-84.3793
-438.969
-1121.68
-2432.9
-4945.03
-9746.39
-18900.9
-36315.6
-69358.8
300
300
300
300
300
300
300
300
300
300
300
300
300
300
300
300
300
300
300
300
300
300
300
300
300
300
300
300
300
300
300
300
300
300
300
300
300
300
300
300
300
300
300
300
300
300
300
300
300
300
300
300
300
300
300
300
300
300
300
300
300
300
299.999
299.999
299.999
299.999
299.999
299.998
299.998
299.998
299.997
299.997
299.996
299.995
299.995
299.994
299.993
299.992
299.99
299.989
299.987
299.985
299.983
299.981
299.978
299.975
299.972
299.969
299.965
299.961
299.956
299.951
299.945
299.939
299.933
299.926
299.918
299.909
299.9
299.89
299.88
299.868
299.856
299.842
299.828
299.813
299.796
299.779
299.76
299.74
299.719
299.697
299.673
299.648
299.621
299.593
299.563
299.532
299.499
299.465
299.428
299.391
299.351
299.31
299.267
299.223
299.176
299.129
299.079
299.028
298.975
298.921
298.865
298.808
298.749
298.689
298.628
298.565
298.502
298.437
298.371
298.305
298.237
298.169
298.101
298.031
297.962
297.892
297.821
297.751
297.681
297.61
297.54
297.47
297.4
297.331
297.262
297.194
297.127
297.06
296.995
296.93
296.866
296.803
296.741
296.681
296.621
296.563
296.506
296.451
296.396
296.344
296.292
296.242
296.194
296.147
296.101
296.057
296.015
295.973
295.933
295.895
295.858
295.822
295.788
295.755
295.723
295.692
295.662
295.634
295.607
295.58
295.555
295.53
295.506
295.484
295.461
295.44
295.419
295.398
295.378
295.359
295.34
295.321
295.302
295.284
295.266
295.248
295.23
295.212
295.193
295.175
295.157
295.138
295.119
295.1
295.081
295.061
295.041
295.021
295
294.978
294.956
294.934
294.911
294.887
294.863
294.837
294.811
294.784
294.756
294.725
294.689
294.646
294.589
294.503
294.361
294.11
293.641
292.746
291.012
287.631
281.029
268.143
243.026
194.172
99.3674
-84.158
-438.551
-1121.2
-2432.92
-4947.28
-9755.44
-18927.9
-36386.9
-69533.8
300
300
300
300
300
300
300
300
300
300
300
300
300
300
300
300
300
300
300
300
300
300
300
300
300
300
300
300
300
300
300
300
300
300
300
300
300
300
300
300
300
300
300
300
300
300
300
300
300
300
300
300
300
300
300
300
300
300
300
300
299.999
299.999
299.999
299.999
299.999
299.998
299.998
299.998
299.997
299.997
299.996
299.995
299.995
299.994
299.993
299.991
299.99
299.988
299.987
299.985
299.982
299.98
299.977
299.974
299.971
299.967
299.963
299.958
299.953
299.947
299.941
299.934
299.927
299.919
299.91
299.901
299.891
299.88
299.868
299.855
299.841
299.826
299.81
299.793
299.774
299.754
299.733
299.711
299.687
299.661
299.634
299.605
299.575
299.543
299.509
299.473
299.435
299.396
299.354
299.311
299.265
299.218
299.168
299.117
299.064
299.008
298.951
298.892
298.831
298.768
298.703
298.636
298.568
298.499
298.428
298.355
298.281
298.206
298.13
298.052
297.974
297.895
297.815
297.735
297.654
297.573
297.492
297.41
297.329
297.248
297.167
297.086
297.006
296.927
296.848
296.77
296.693
296.617
296.543
296.469
296.397
296.326
296.256
296.188
296.122
296.057
295.994
295.932
295.872
295.815
295.758
295.704
295.652
295.601
295.553
295.506
295.461
295.418
295.377
295.337
295.3
295.264
295.23
295.197
295.166
295.137
295.109
295.083
295.057
295.034
295.011
294.99
294.97
294.951
294.933
294.916
294.899
294.884
294.869
294.854
294.841
294.827
294.814
294.802
294.79
294.777
294.765
294.753
294.741
294.729
294.717
294.705
294.692
294.68
294.667
294.653
294.639
294.625
294.61
294.595
294.579
294.562
294.545
294.527
294.509
294.489
294.469
294.448
294.427
294.403
294.379
294.351
294.319
294.28
294.226
294.143
294.005
293.757
293.293
292.404
290.678
287.311
280.731
267.88
242.822
194.06
99.3945
-83.943
-438.138
-1120.74
-2433.05
-4949.89
-9765.53
-18957.7
-36465
-69725
300
300
300
300
300
300
300
300
300
300
300
300
300
300
300
300
300
300
300
300
300
300
300
300
300
300
300
300
300
300
300
300
300
300
300
300
300
300
300
300
300
300
300
300
300
300
300
300
300
300
300
300
300
300
300
300
300
300
299.999
299.999
299.999
299.999
299.999
299.999
299.998
299.998
299.997
299.997
299.996
299.995
299.995
299.994
299.993
299.991
299.99
299.988
299.986
299.984
299.982
299.979
299.976
299.973
299.969
299.965
299.96
299.955
299.95
299.943
299.937
299.929
299.921
299.912
299.903
299.892
299.881
299.869
299.855
299.841
299.825
299.808
299.79
299.771
299.75
299.728
299.704
299.678
299.651
299.622
299.592
299.559
299.524
299.488
299.449
299.408
299.365
299.32
299.272
299.222
299.17
299.115
299.058
298.999
298.938
298.874
298.807
298.739
298.668
298.595
298.52
298.443
298.364
298.283
298.2
298.116
298.03
297.943
297.854
297.764
297.673
297.581
297.488
297.395
297.301
297.207
297.113
297.019
296.924
296.83
296.737
296.644
296.551
296.46
296.369
296.279
296.191
296.104
296.018
295.934
295.852
295.771
295.693
295.616
295.541
295.468
295.397
295.329
295.262
295.198
295.136
295.077
295.02
294.965
294.913
294.862
294.815
294.769
294.726
294.686
294.647
294.611
294.577
294.545
294.515
294.487
294.461
294.437
294.414
294.394
294.374
294.357
294.341
294.326
294.313
294.301
294.29
294.28
294.271
294.262
294.255
294.248
294.242
294.236
294.231
294.225
294.221
294.216
294.211
294.206
294.202
294.197
294.192
294.186
294.181
294.175
294.168
294.161
294.154
294.145
294.137
294.127
294.117
294.106
294.095
294.082
294.069
294.055
294.04
294.023
294.006
293.987
293.967
293.944
293.916
293.88
293.83
293.751
293.617
293.373
292.915
292.032
290.315
286.961
280.404
267.59
242.592
193.927
99.4052
-83.7406
-437.741
-1120.32
-2433.31
-4952.91
-9776.75
-18990.4
-36550.2
-69932.9
300
300
300
300
300
300
300
300
300
300
300
300
300
300
300
300
300
300
300
300
300
300
300
300
300
300
300
300
300
300
300
300
300
300
300
300
300
300
300
300
300
300
300
300
300
300
300
300
300
300
300
300
300
300
300
300
300
299.999
299.999
299.999
299.999
299.999
299.998
299.998
299.997
299.997
299.996
299.996
299.995
299.994
299.993
299.991
299.99
299.988
299.986
299.984
299.981
299.978
299.975
299.972
299.968
299.963
299.958
299.953
299.946
299.94
299.932
299.924
299.915
299.906
299.895
299.883
299.871
299.857
299.842
299.826
299.809
299.79
299.77
299.748
299.725
299.7
299.673
299.644
299.613
299.581
299.546
299.509
299.469
299.428
299.384
299.337
299.288
299.236
299.182
299.125
299.065
299.002
298.937
298.869
298.798
298.724
298.647
298.568
298.486
298.402
298.315
298.226
298.134
298.04
297.944
297.846
297.746
297.644
297.541
297.436
297.33
297.224
297.116
297.007
296.898
296.789
296.679
296.569
296.46
296.351
296.242
296.134
296.027
295.921
295.817
295.713
295.611
295.511
295.413
295.317
295.222
295.13
295.04
294.953
294.868
294.785
294.706
294.628
294.554
294.483
294.414
294.348
294.285
294.225
294.168
294.114
294.063
294.015
293.969
293.927
293.887
293.85
293.816
293.784
293.755
293.729
293.705
293.683
293.664
293.647
293.631
293.618
293.607
293.597
293.589
293.583
293.578
293.575
293.572
293.571
293.571
293.571
293.573
293.575
293.578
293.581
293.584
293.588
293.592
293.596
293.6
293.604
293.608
293.611
293.614
293.617
293.619
293.621
293.622
293.623
293.622
293.621
293.62
293.617
293.614
293.609
293.604
293.597
293.59
293.582
293.572
293.561
293.549
293.535
293.52
293.501
293.478
293.447
293.401
293.326
293.196
292.957
292.504
291.628
289.92
286.582
280.048
267.272
242.337
193.771
99.3954
-83.5572
-437.369
-1119.96
-2433.74
-4956.39
-9789.17
-19026.1
-36642.7
-70157.9
300
300
300
300
300
300
300
300
300
300
300
300
300
300
300
300
300
300
300
300
300
300
300
300
300
300
300
300
300
300
300
300
300
300
300
300
300
300
300
300
300
300
300
300
300
300
300
300
300
300
300
300
300
300
300
300
299.999
299.999
299.999
299.999
299.998
299.998
299.998
299.997
299.996
299.996
299.995
299.994
299.993
299.991
299.99
299.988
299.986
299.984
299.981
299.978
299.974
299.971
299.966
299.961
299.956
299.95
299.944
299.936
299.928
299.919
299.91
299.899
299.887
299.874
299.86
299.845
299.829
299.811
299.792
299.771
299.748
299.724
299.698
299.67
299.639
299.607
299.573
299.536
299.496
299.455
299.41
299.363
299.313
299.26
299.204
299.145
299.083
299.018
298.949
298.878
298.803
298.724
298.643
298.558
298.47
298.378
298.284
298.186
298.086
297.982
297.876
297.767
297.655
297.541
297.425
297.307
297.187
297.065
296.942
296.818
296.692
296.566
296.439
296.311
296.183
296.056
295.929
295.802
295.676
295.55
295.426
295.303
295.182