/*--------------------------------*- C++ -*----------------------------------*\
| =========                 |                                                 |
| \\      /  F ield         | OpenFOAM: The Open Source CFD Toolbox           |
|  \\    /   O peration     | Version:  2306                                  |
|   \\  /    A nd           | Website:  www.openfoam.com                      |
|    \\/     M anipulation  |                                                 |
\*---------------------------------------------------------------------------*/
FoamFile
{
    version     2.0;
    format      ascii;
    arch        "LSB;label=32;scalar=64";
    class       volVectorField;
    location    "9.5";
    object      U;
}
// * * * * * * * * * * * * * * * * * * * * * * * * * * * * * * * * * * * * * //

dimensions      [0 1 -1 0 0 0 0];

internalField   nonuniform List<vector> 
32768
(
(1.00001 -4.02808e-05 0)
(1.00017 -0.000121052 0)
(1.00049 -0.000201979 0)
(1.00097 -0.000283066 0)
(1.00162 -0.000364415 0)
(1.00243 -0.000446124 0)
(1.0034 -0.000528256 0)
(1.00454 -0.000610868 0)
(1.00585 -0.00069402 0)
(1.00732 -0.000777773 0)
(1.00896 -0.000862182 0)
(1.01077 -0.000947296 0)
(1.01275 -0.00103316 0)
(1.0149 -0.0011198 0)
(1.01723 -0.00120725 0)
(1.01973 -0.00129553 0)
(1.02241 -0.00138465 0)
(1.02527 -0.00147461 0)
(1.02831 -0.00156539 0)
(1.03153 -0.00165697 0)
(1.03494 -0.00174933 0)
(1.03853 -0.00184241 0)
(1.04231 -0.00193616 0)
(1.04628 -0.00203049 0)
(1.05043 -0.00212533 0)
(1.05478 -0.00222058 0)
(1.05931 -0.00231611 0)
(1.06404 -0.0024118 0)
(1.06896 -0.00250749 0)
(1.07407 -0.00260305 0)
(1.07938 -0.00269828 0)
(1.08487 -0.002793 0)
(1.09055 -0.00288701 0)
(1.09642 -0.0029801 0)
(1.10247 -0.00307204 0)
(1.10871 -0.00316261 0)
(1.11512 -0.00325156 0)
(1.12172 -0.00333864 0)
(1.12848 -0.0034236 0)
(1.13541 -0.00350619 0)
(1.14251 -0.00358615 0)
(1.14976 -0.00366323 0)
(1.15717 -0.00373717 0)
(1.16471 -0.00380775 0)
(1.1724 -0.00387472 0)
(1.18022 -0.00393786 0)
(1.18816 -0.00399697 0)
(1.19621 -0.00405186 0)
(1.20437 -0.00410235 0)
(1.21262 -0.0041483 0)
(1.22097 -0.00418958 0)
(1.22939 -0.00422608 0)
(1.23788 -0.00425773 0)
(1.24642 -0.00428448 0)
(1.25502 -0.0043063 0)
(1.26365 -0.00432319 0)
(1.27232 -0.00433518 0)
(1.281 -0.00434232 0)
(1.28969 -0.0043447 0)
(1.29838 -0.00434242 0)
(1.30706 -0.00433561 0)
(1.31573 -0.00432442 0)
(1.32437 -0.00430903 0)
(1.33297 -0.00428961 0)
(1.34153 -0.00426637 0)
(1.35004 -0.00423953 0)
(1.35849 -0.00420932 0)
(1.36688 -0.00417598 0)
(1.3752 -0.00413975 0)
(1.38344 -0.00410088 0)
(1.3916 -0.00405963 0)
(1.39968 -0.00401624 0)
(1.40767 -0.00397097 0)
(1.41557 -0.00392405 0)
(1.42337 -0.00387574 0)
(1.43107 -0.00382625 0)
(1.43867 -0.00377582 0)
(1.44618 -0.00372465 0)
(1.45357 -0.00367295 0)
(1.46087 -0.0036209 0)
(1.46806 -0.00356867 0)
(1.47514 -0.00351643 0)
(1.48212 -0.00346431 0)
(1.489 -0.00341244 0)
(1.49577 -0.00336093 0)
(1.50244 -0.00330988 0)
(1.50901 -0.00325935 0)
(1.51548 -0.00320942 0)
(1.52185 -0.00316012 0)
(1.52812 -0.00311148 0)
(1.53429 -0.00306352 0)
(1.54037 -0.00301624 0)
(1.54636 -0.00296961 0)
(1.55225 -0.00292362 0)
(1.55805 -0.00287821 0)
(1.56376 -0.00283333 0)
(1.56938 -0.00278891 0)
(1.57492 -0.00274489 0)
(1.58036 -0.00270118 0)
(1.58572 -0.00265769 0)
(1.59099 -0.00261432 0)
(1.59618 -0.00257096 0)
(1.60127 -0.00252751 0)
(1.60629 -0.00248385 0)
(1.61121 -0.00243988 0)
(1.61604 -0.00239548 0)
(1.62079 -0.00235053 0)
(1.62545 -0.00230492 0)
(1.63001 -0.00225853 0)
(1.63448 -0.00221126 0)
(1.63886 -0.00216299 0)
(1.64313 -0.00211362 0)
(1.64731 -0.00206306 0)
(1.65139 -0.00201122 0)
(1.65536 -0.00195799 0)
(1.65922 -0.00190331 0)
(1.66297 -0.0018471 0)
(1.66661 -0.00178929 0)
(1.67013 -0.00172982 0)
(1.67353 -0.00166864 0)
(1.6768 -0.0016057 0)
(1.67995 -0.00154098 0)
(1.68297 -0.00147443 0)
(1.68585 -0.00140604 0)
(1.68859 -0.0013358 0)
(1.69119 -0.0012637 0)
(1.69365 -0.00118974 0)
(1.69595 -0.00111394 0)
(1.6981 -0.0010363 0)
(1.7001 -0.000956849 0)
(1.70193 -0.000875621 0)
(1.7036 -0.000792648 0)
(1.7051 -0.000707971 0)
(1.70643 -0.000621636 0)
(1.70759 -0.000533695 0)
(1.70857 -0.000444204 0)
(1.70937 -0.000353223 0)
(1.70998 -0.000260816 0)
(1.71041 -0.000167052 0)
(1.71065 -7.19992e-05 0)
(1.7107 2.42661e-05 0)
(1.71055 0.000121666 0)
(1.71021 0.000220123 0)
(1.70967 0.000319557 0)
(1.70894 0.000419884 0)
(1.70799 0.000521019 0)
(1.70685 0.000622878 0)
(1.7055 0.000725371 0)
(1.70395 0.00082841 0)
(1.70219 0.000931906 0)
(1.70022 0.00103577 0)
(1.69804 0.0011399 0)
(1.69566 0.00124422 0)
(1.69307 0.00134862 0)
(1.69026 0.00145301 0)
(1.68725 0.0015573 0)
(1.68403 0.00166139 0)
(1.68061 0.00176517 0)
(1.67697 0.00186856 0)
(1.67313 0.00197145 0)
(1.66908 0.00207374 0)
(1.66483 0.00217532 0)
(1.66038 0.00227608 0)
(1.65573 0.00237594 0)
(1.65087 0.00247476 0)
(1.64582 0.00257245 0)
(1.64058 0.0026689 0)
(1.63515 0.00276399 0)
(1.62952 0.0028576 0)
(1.62371 0.00294963 0)
(1.61772 0.00303996 0)
(1.61155 0.00312847 0)
(1.6052 0.00321504 0)
(1.59869 0.00329956 0)
(1.592 0.00338191 0)
(1.58515 0.00346198 0)
(1.57815 0.00353963 0)
(1.57099 0.00361477 0)
(1.56369 0.00368728 0)
(1.55624 0.00375704 0)
(1.54866 0.00382395 0)
(1.54094 0.00388791 0)
(1.5331 0.00394881 0)
(1.52514 0.00400655 0)
(1.51707 0.00406105 0)
(1.50889 0.00411222 0)
(1.50062 0.00415998 0)
(1.49225 0.00420425 0)
(1.48379 0.00424497 0)
(1.47526 0.00428208 0)
(1.46666 0.00431553 0)
(1.458 0.00434529 0)
(1.44927 0.00437131 0)
(1.44051 0.00439357 0)
(1.4317 0.00441207 0)
(1.42285 0.00442679 0)
(1.41398 0.00443775 0)
(1.4051 0.00444496 0)
(1.3962 0.00444845 0)
(1.3873 0.00444825 0)
(1.3784 0.0044444 0)
(1.36952 0.00443698 0)
(1.36065 0.00442604 0)
(1.35181 0.00441166 0)
(1.343 0.00439391 0)
(1.33423 0.00437291 0)
(1.3255 0.00434873 0)
(1.31683 0.00432151 0)
(1.30821 0.00429133 0)
(1.29966 0.00425834 0)
(1.29118 0.00422266 0)
(1.28277 0.00418441 0)
(1.27444 0.00414375 0)
(1.26619 0.0041008 0)
(1.25803 0.00405571 0)
(1.24996 0.00400863 0)
(1.24199 0.00395971 0)
(1.23412 0.0039091 0)
(1.22635 0.00385695 0)
(1.21869 0.0038034 0)
(1.21114 0.00374862 0)
(1.2037 0.00369275 0)
(1.19637 0.00363594 0)
(1.18915 0.00357832 0)
(1.18205 0.00352006 0)
(1.17507 0.00346129 0)
(1.16821 0.00340213 0)
(1.16146 0.00334274 0)
(1.15483 0.00328323 0)
(1.14833 0.00322374 0)
(1.14194 0.00316437 0)
(1.13567 0.00310526 0)
(1.12952 0.0030465 0)
(1.12348 0.0029882 0)
(1.11756 0.00293047 0)
(1.11176 0.00287339 0)
(1.10607 0.00281705 0)
(1.10049 0.00276154 0)
(1.09503 0.00270694 0)
(1.08967 0.00265332 0)
(1.08441 0.00260074 0)
(1.07926 0.00254926 0)
(1.07422 0.00249894 0)
(1.06927 0.00244983 0)
(1.06442 0.00240197 0)
(1.05966 0.0023554 0)
(1.055 0.00231015 0)
(1.05042 0.00226626 0)
(1.04594 0.0022237 0)
(1.04152 0.00218262 0)
(1.03722 0.00214274 0)
(1.03291 0.00210461 0)
(1.0289 0.00206718 0)
(1.02441 0.00203171 0)
(1.02129 0.00199802 0)
(1.01489 0.00195694 0)
(1.00001 -0.000121018 0)
(1.00017 -0.000363378 0)
(1.00048 -0.00060612 0)
(1.00097 -0.000849376 0)
(1.00162 -0.00109342 0)
(1.00243 -0.00133851 0)
(1.0034 -0.00158486 0)
(1.00454 -0.00183265 0)
(1.00584 -0.00208207 0)
(1.00731 -0.00233329 0)
(1.00895 -0.00258649 0)
(1.01076 -0.00284181 0)
(1.01274 -0.00309938 0)
(1.01489 -0.0033593 0)
(1.01722 -0.00362166 0)
(1.01972 -0.00388651 0)
(1.0224 -0.00415388 0)
(1.02526 -0.00442377 0)
(1.02829 -0.00469615 0)
(1.03151 -0.00497096 0)
(1.03492 -0.00524809 0)
(1.03851 -0.0055274 0)
(1.04229 -0.00580872 0)
(1.04626 -0.00609183 0)
(1.05041 -0.00637646 0)
(1.05476 -0.00666231 0)
(1.05929 -0.00694903 0)
(1.06402 -0.00723624 0)
(1.06894 -0.00752349 0)
(1.07406 -0.00781032 0)
(1.07936 -0.00809618 0)
(1.08485 -0.00838053 0)
(1.09054 -0.00866277 0)
(1.09641 -0.00894224 0)
(1.10247 -0.00921829 0)
(1.10871 -0.00949022 0)
(1.11513 -0.00975729 0)
(1.12173 -0.0100188 0)
(1.1285 -0.0102739 0)
(1.13543 -0.0105219 0)
(1.14254 -0.010762 0)
(1.1498 -0.0109934 0)
(1.15721 -0.0112155 0)
(1.16476 -0.0114274 0)
(1.17246 -0.0116285 0)
(1.18029 -0.0118181 0)
(1.18823 -0.0119955 0)
(1.1963 -0.0121603 0)
(1.20447 -0.0123119 0)
(1.21273 -0.0124499 0)
(1.22109 -0.0125738 0)
(1.22952 -0.0126833 0)
(1.23802 -0.0127783 0)
(1.24657 -0.0128585 0)
(1.25518 -0.0129239 0)
(1.26383 -0.0129745 0)
(1.2725 -0.0130104 0)
(1.28119 -0.0130318 0)
(1.2899 -0.0130388 0)
(1.2986 -0.0130318 0)
(1.30729 -0.0130112 0)
(1.31597 -0.0129774 0)
(1.32461 -0.012931 0)
(1.33323 -0.0128725 0)
(1.34179 -0.0128026 0)
(1.35031 -0.0127219 0)
(1.35877 -0.012631 0)
(1.36717 -0.0125307 0)
(1.37549 -0.0124218 0)
(1.38374 -0.0123049 0)
(1.39191 -0.0121809 0)
(1.4 -0.0120505 0)
(1.40799 -0.0119144 0)
(1.41589 -0.0117735 0)
(1.42369 -0.0116283 0)
(1.4314 -0.0114796 0)
(1.43901 -0.0113281 0)
(1.44651 -0.0111744 0)
(1.45391 -0.0110191 0)
(1.46121 -0.0108628 0)
(1.4684 -0.010706 0)
(1.47548 -0.0105491 0)
(1.48246 -0.0103927 0)
(1.48934 -0.0102369 0)
(1.49611 -0.0100823 0)
(1.50278 -0.00992909 0)
(1.50935 -0.00977746 0)
(1.51582 -0.00962762 0)
(1.52219 -0.0094797 0)
(1.52846 -0.00933378 0)
(1.53463 -0.00918991 0)
(1.54071 -0.00904807 0)
(1.5467 -0.00890822 0)
(1.55259 -0.00877027 0)
(1.55839 -0.00863409 0)
(1.5641 -0.00849951 0)
(1.56972 -0.00836634 0)
(1.57526 -0.00823436 0)
(1.5807 -0.00810331 0)
(1.58606 -0.00797292 0)
(1.59133 -0.00784289 0)
(1.59652 -0.00771291 0)
(1.60162 -0.00758265 0)
(1.60663 -0.00745179 0)
(1.61156 -0.00731998 0)
(1.61639 -0.00718687 0)
(1.62114 -0.00705211 0)
(1.6258 -0.00691537 0)
(1.63036 -0.00677629 0)
(1.63484 -0.00663456 0)
(1.63922 -0.00648984 0)
(1.6435 -0.00634182 0)
(1.64768 -0.00619021 0)
(1.65175 -0.00603473 0)
(1.65573 -0.00587512 0)
(1.65959 -0.00571112 0)
(1.66335 -0.00554253 0)
(1.66699 -0.00536913 0)
(1.67051 -0.00519075 0)
(1.67392 -0.00500723 0)
(1.6772 -0.00481844 0)
(1.68035 -0.00462426 0)
(1.68337 -0.00442462 0)
(1.68626 -0.00421945 0)
(1.689 -0.00400871 0)
(1.69161 -0.00379238 0)
(1.69407 -0.00357047 0)
(1.69638 -0.00334301 0)
(1.69853 -0.00311005 0)
(1.70053 -0.00287166 0)
(1.70237 -0.00262792 0)
(1.70404 -0.00237893 0)
(1.70555 -0.00212484 0)
(1.70688 -0.00186576 0)
(1.70804 -0.00160186 0)
(1.70902 -0.00133331 0)
(1.70982 -0.00106029 0)
(1.71044 -0.000782982 0)
(1.71087 -0.0005016 0)
(1.71111 -0.000216354 0)
(1.71116 7.2533e-05 0)
(1.71102 0.000364829 0)
(1.71068 0.000660298 0)
(1.71014 0.000958697 0)
(1.70941 0.00125978 0)
(1.70847 0.00156329 0)
(1.70732 0.00186896 0)
(1.70598 0.00217654 0)
(1.70442 0.00248577 0)
(1.70266 0.00279636 0)
(1.70069 0.00310804 0)
(1.69852 0.00342055 0)
(1.69613 0.0037336 0)
(1.69354 0.00404691 0)
(1.69074 0.0043602 0)
(1.68772 0.00467317 0)
(1.6845 0.00498554 0)
(1.68107 0.00529701 0)
(1.67744 0.00560728 0)
(1.67359 0.00591605 0)
(1.66955 0.00622302 0)
(1.66529 0.00652787 0)
(1.66084 0.00683029 0)
(1.65618 0.00712995 0)
(1.65133 0.00742654 0)
(1.64627 0.00771973 0)
(1.64103 0.00800918 0)
(1.63559 0.00829456 0)
(1.62996 0.00857552 0)
(1.62414 0.00885173 0)
(1.61815 0.00912282 0)
(1.61197 0.00938846 0)
(1.60562 0.0096483 0)
(1.5991 0.00990197 0)
(1.59241 0.0101491 0)
(1.58555 0.0103894 0)
(1.57854 0.0106225 0)
(1.57138 0.010848 0)
(1.56407 0.0110656 0)
(1.55661 0.011275 0)
(1.54902 0.0114758 0)
(1.5413 0.0116678 0)
(1.53345 0.0118506 0)
(1.52548 0.0120239 0)
(1.5174 0.0121875 0)
(1.50922 0.012341 0)
(1.50093 0.0124843 0)
(1.49255 0.0126172 0)
(1.48409 0.0127394 0)
(1.47555 0.0128508 0)
(1.46694 0.0129512 0)
(1.45827 0.0130404 0)
(1.44954 0.0131185 0)
(1.44076 0.0131853 0)
(1.43194 0.0132408 0)
(1.42309 0.0132849 0)
(1.41421 0.0133177 0)
(1.40531 0.0133393 0)
(1.39641 0.0133497 0)
(1.3875 0.0133491 0)
(1.37859 0.0133375 0)
(1.3697 0.0133151 0)
(1.36082 0.0132822 0)
(1.35197 0.0132389 0)
(1.34315 0.0131856 0)
(1.33437 0.0131225 0)
(1.32564 0.0130498 0)
(1.31696 0.012968 0)
(1.30833 0.0128774 0)
(1.29977 0.0127783 0)
(1.29128 0.0126711 0)
(1.28287 0.0125562 0)
(1.27453 0.012434 0)
(1.26628 0.012305 0)
(1.25811 0.0121696 0)
(1.25004 0.0120282 0)
(1.24206 0.0118813 0)
(1.23419 0.0117293 0)
(1.22642 0.0115727 0)
(1.21875 0.0114119 0)
(1.21119 0.0112474 0)
(1.20375 0.0110797 0)
(1.19641 0.0109091 0)
(1.18919 0.0107361 0)
(1.18209 0.0105612 0)
(1.17511 0.0103847 0)
(1.16824 0.0102071 0)
(1.1615 0.0100288 0)
(1.15487 0.00985017 0)
(1.14836 0.00967156 0)
(1.14197 0.00949336 0)
(1.1357 0.0093159 0)
(1.12955 0.00913951 0)
(1.12351 0.00896452 0)
(1.11759 0.00879122 0)
(1.11179 0.0086199 0)
(1.1061 0.00845081 0)
(1.10052 0.00828422 0)
(1.09506 0.00812034 0)
(1.0897 0.0079594 0)
(1.08445 0.0078016 0)
(1.0793 0.00764711 0)
(1.07425 0.00749611 0)
(1.06931 0.00734873 0)
(1.06446 0.00720511 0)
(1.0597 0.00706537 0)
(1.05504 0.00692959 0)
(1.05047 0.00679788 0)
(1.04598 0.00667025 0)
(1.04157 0.00654687 0)
(1.03727 0.00642752 0)
(1.03296 0.0063125 0)
(1.02895 0.00620188 0)
(1.02447 0.00609269 0)
(1.02135 0.00599917 0)
(1.01496 0.00586651 0)
(1.00001 -0.000201784 0)
(1.00017 -0.000605588 0)
(1.00048 -0.00100994 0)
(1.00097 -0.00141522 0)
(1.00161 -0.00182182 0)
(1.00242 -0.00223014 0)
(1.0034 -0.00264054 0)
(1.00453 -0.00305335 0)
(1.00583 -0.00346889 0)
(1.0073 -0.00388746 0)
(1.00894 -0.00430935 0)
(1.01075 -0.00473478 0)
(1.01272 -0.00516399 0)
(1.01487 -0.00559715 0)
(1.01719 -0.0060344 0)
(1.01969 -0.00647583 0)
(1.02237 -0.0069215 0)
(1.02522 -0.00737141 0)
(1.02826 -0.00782551 0)
(1.03148 -0.00828369 0)
(1.03488 -0.00874578 0)
(1.03847 -0.00921155 0)
(1.04225 -0.00968071 0)
(1.04621 -0.0101529 0)
(1.05037 -0.0106277 0)
(1.05472 -0.0111045 0)
(1.05925 -0.0115829 0)
(1.06398 -0.0120621 0)
(1.06891 -0.0125414 0)
(1.07402 -0.0130201 0)
(1.07933 -0.0134972 0)
(1.08483 -0.0139718 0)
(1.09052 -0.014443 0)
(1.09639 -0.0149096 0)
(1.10246 -0.0153705 0)
(1.10871 -0.0158245 0)
(1.11514 -0.0162705 0)
(1.12174 -0.0167072 0)
(1.12852 -0.0171332 0)
(1.13548 -0.0175474 0)
(1.14259 -0.0179485 0)
(1.14986 -0.0183351 0)
(1.15729 -0.018706 0)
(1.16486 -0.01906 0)
(1.17258 -0.0193959 0)
(1.18042 -0.0197126 0)
(1.18839 -0.020009 0)
(1.19647 -0.0202842 0)
(1.20466 -0.0205374 0)
(1.21295 -0.0207677 0)
(1.22132 -0.0209745 0)
(1.22978 -0.0211574 0)
(1.2383 -0.0213158 0)
(1.24688 -0.0214496 0)
(1.25551 -0.0215586 0)
(1.26418 -0.0216429 0)
(1.27287 -0.0217025 0)
(1.28159 -0.0217377 0)
(1.29031 -0.021749 0)
(1.29904 -0.0217369 0)
(1.30775 -0.0217021 0)
(1.31644 -0.0216452 0)
(1.32511 -0.0215672 0)
(1.33374 -0.021469 0)
(1.34233 -0.0213517 0)
(1.35086 -0.0212163 0)
(1.35934 -0.021064 0)
(1.36775 -0.020896 0)
(1.37609 -0.0207136 0)
(1.38435 -0.020518 0)
(1.39253 -0.0203104 0)
(1.40062 -0.0200922 0)
(1.40863 -0.0198646 0)
(1.41654 -0.0196288 0)
(1.42435 -0.019386 0)
(1.43206 -0.0191374 0)
(1.43967 -0.0188842 0)
(1.44718 -0.0186274 0)
(1.45459 -0.0183679 0)
(1.46188 -0.0181068 0)
(1.46908 -0.0178448 0)
(1.47617 -0.0175829 0)
(1.48315 -0.0173216 0)
(1.49003 -0.0170617 0)
(1.4968 -0.0168037 0)
(1.50347 -0.016548 0)
(1.51004 -0.0162951 0)
(1.51651 -0.0160452 0)
(1.52287 -0.0157985 0)
(1.52914 -0.0155552 0)
(1.53532 -0.0153154 0)
(1.54139 -0.0150791 0)
(1.54738 -0.0148461 0)
(1.55327 -0.0146163 0)
(1.55907 -0.0143895 0)
(1.56478 -0.0141654 0)
(1.5704 -0.0139437 0)
(1.57593 -0.0137239 0)
(1.58138 -0.0135058 0)
(1.58674 -0.0132888 0)
(1.59201 -0.0130724 0)
(1.5972 -0.0128561 0)
(1.6023 -0.0126394 0)
(1.60732 -0.0124216 0)
(1.61225 -0.0122023 0)
(1.61709 -0.0119808 0)
(1.62184 -0.0117566 0)
(1.6265 -0.011529 0)
(1.63107 -0.0112975 0)
(1.63555 -0.0110616 0)
(1.63993 -0.0108208 0)
(1.64422 -0.0105744 0)
(1.64841 -0.010322 0)
(1.65249 -0.0100631 0)
(1.65647 -0.00979729 0)
(1.66034 -0.00952418 0)
(1.66411 -0.00924337 0)
(1.66776 -0.00895453 0)
(1.67129 -0.00865736 0)
(1.6747 -0.0083516 0)
(1.67799 -0.00803702 0)
(1.68115 -0.00771344 0)
(1.68418 -0.00738073 0)
(1.68707 -0.00703877 0)
(1.68983 -0.0066875 0)
(1.69244 -0.00632689 0)
(1.69491 -0.00595696 0)
(1.69722 -0.00557776 0)
(1.69939 -0.00518935 0)
(1.70139 -0.00479187 0)
(1.70324 -0.00438546 0)
(1.70492 -0.0039703 0)
(1.70643 -0.00354659 0)
(1.70777 -0.00311456 0)
(1.70894 -0.00267448 0)
(1.70992 -0.00222663 0)
(1.71073 -0.00177131 0)
(1.71135 -0.00130885 0)
(1.71179 -0.000839576 0)
(1.71204 -0.000363856 0)
(1.71209 0.000117942 0)
(1.71195 0.000605434 0)
(1.71162 0.00109822 0)
(1.71108 0.0015959 0)
(1.71035 0.00209805 0)
(1.70941 0.00260425 0)
(1.70827 0.00311408 0)
(1.70692 0.00362708 0)
(1.70537 0.00414281 0)
(1.70361 0.00466084 0)
(1.70164 0.00518069 0)
(1.69947 0.00570192 0)
(1.69708 0.00622405 0)
(1.69449 0.00674662 0)
(1.69168 0.00726915 0)
(1.68867 0.00779116 0)
(1.68544 0.00831217 0)
(1.68201 0.00883168 0)
(1.67837 0.0093492 0)
(1.67452 0.00986423 0)
(1.67047 0.0103762 0)
(1.66621 0.0108847 0)
(1.66175 0.0113892 0)
(1.65709 0.0118891 0)
(1.65223 0.0123838 0)
(1.64717 0.0128729 0)
(1.64191 0.0133557 0)
(1.63647 0.0138318 0)
(1.63083 0.0143005 0)
(1.62501 0.0147613 0)
(1.619 0.0152135 0)
(1.61281 0.0156567 0)
(1.60645 0.0160902 0)
(1.59992 0.0165134 0)
(1.59322 0.0169258 0)
(1.58635 0.0173267 0)
(1.57933 0.0177156 0)
(1.57215 0.0180919 0)
(1.56482 0.018455 0)
(1.55735 0.0188043 0)
(1.54975 0.0191394 0)
(1.54201 0.0194597 0)
(1.53415 0.0197647 0)
(1.52616 0.0200539 0)
(1.51807 0.0203268 0)
(1.50986 0.020583 0)
(1.50156 0.0208222 0)
(1.49317 0.0210438 0)
(1.48469 0.0212477 0)
(1.47613 0.0214335 0)
(1.4675 0.0216009 0)
(1.45881 0.0217498 0)
(1.45006 0.02188 0)
(1.44126 0.0219914 0)
(1.43242 0.0220838 0)
(1.42355 0.0221574 0)
(1.41466 0.0222121 0)
(1.40574 0.0222479 0)
(1.39682 0.0222651 0)
(1.38789 0.0222638 0)
(1.37896 0.0222443 0)
(1.37005 0.0222068 0)
(1.36116 0.0221517 0)
(1.35229 0.0220793 0)
(1.34346 0.0219901 0)
(1.33466 0.0218845 0)
(1.32591 0.021763 0)
(1.31721 0.0216262 0)
(1.30858 0.0214747 0)
(1.3 0.0213091 0)
(1.2915 0.0211299 0)
(1.28307 0.020938 0)
(1.27472 0.0207339 0)
(1.26645 0.0205184 0)
(1.25827 0.0202921 0)
(1.25019 0.020056 0)
(1.24221 0.0198106 0)
(1.23432 0.0195567 0)
(1.22654 0.0192951 0)
(1.21886 0.0190266 0)
(1.2113 0.0187519 0)
(1.20385 0.0184717 0)
(1.19651 0.0181869 0)
(1.18928 0.0178981 0)
(1.18217 0.017606 0)
(1.17519 0.0173114 0)
(1.16832 0.017015 0)
(1.16157 0.0167173 0)
(1.15493 0.0164191 0)
(1.14842 0.016121 0)
(1.14203 0.0158235 0)
(1.13576 0.0155274 0)
(1.12961 0.015233 0)
(1.12357 0.014941 0)
(1.11765 0.0146518 0)
(1.11185 0.0143659 0)
(1.10616 0.0140838 0)
(1.10059 0.0138058 0)
(1.09512 0.0135324 0)
(1.08976 0.0132639 0)
(1.08451 0.0130007 0)
(1.07937 0.012743 0)
(1.07433 0.0124911 0)
(1.06938 0.0122453 0)
(1.06454 0.0120058 0)
(1.05978 0.0117728 0)
(1.05513 0.0115463 0)
(1.05055 0.0113267 0)
(1.04608 0.011114 0)
(1.04166 0.0109081 0)
(1.03737 0.0107096 0)
(1.03307 0.0105171 0)
(1.02906 0.0103348 0)
(1.02458 0.0101497 0)
(1.02146 0.0100022 0)
(1.01508 0.00977023 0)
(1.00001 -0.000282282 0)
(1.00017 -0.000847127 0)
(1.00048 -0.00141275 0)
(1.00096 -0.0019797 0)
(1.00161 -0.00254853 0)
(1.00242 -0.00311978 0)
(1.00339 -0.00369395 0)
(1.00452 -0.00427153 0)
(1.00582 -0.00485296 0)
(1.00729 -0.00543867 0)
(1.00892 -0.00602906 0)
(1.01072 -0.00662448 0)
(1.01269 -0.00722522 0)
(1.01484 -0.00783154 0)
(1.01716 -0.00844365 0)
(1.01965 -0.00906169 0)
(1.02233 -0.00968573 0)
(1.02518 -0.0103158 0)
(1.02821 -0.0109518 0)
(1.03143 -0.0115936 0)
(1.03483 -0.0122409 0)
(1.03841 -0.0128935 0)
(1.04219 -0.013551 0)
(1.04615 -0.0142127 0)
(1.05031 -0.0148782 0)
(1.05465 -0.0155467 0)
(1.05919 -0.0162175 0)
(1.06392 -0.0168895 0)
(1.06885 -0.0175618 0)
(1.07397 -0.0182332 0)
(1.07928 -0.0189026 0)
(1.08478 -0.0195686 0)
(1.09048 -0.0202298 0)
(1.09637 -0.0208847 0)
(1.10244 -0.0215317 0)
(1.1087 -0.0221692 0)
(1.11514 -0.0227954 0)
(1.12177 -0.0234086 0)
(1.12857 -0.0240069 0)
(1.13553 -0.0245887 0)
(1.14267 -0.025152 0)
(1.14997 -0.0256951 0)
(1.15741 -0.0262162 0)
(1.16501 -0.0267135 0)
(1.17275 -0.0271853 0)
(1.18062 -0.0276302 0)
(1.18862 -0.0280466 0)
(1.19673 -0.0284332 0)
(1.20495 -0.0287887 0)
(1.21327 -0.0291121 0)
(1.22168 -0.0294025 0)
(1.23016 -0.029659 0)
(1.23872 -0.0298813 0)
(1.24733 -0.0300688 0)
(1.256 -0.0302214 0)
(1.2647 -0.0303391 0)
(1.27343 -0.0304222 0)
(1.28218 -0.030471 0)
(1.29094 -0.0304861 0)
(1.29969 -0.0304682 0)
(1.30843 -0.0304184 0)
(1.31716 -0.0303376 0)
(1.32585 -0.030227 0)
(1.33451 -0.0300881 0)
(1.34313 -0.0299223 0)
(1.35168 -0.0297311 0)
(1.36018 -0.0295162 0)
(1.36862 -0.0292793 0)
(1.37698 -0.0290221 0)
(1.38526 -0.0287464 0)
(1.39345 -0.028454 0)
(1.40156 -0.0281467 0)
(1.40958 -0.0278262 0)
(1.4175 -0.0274944 0)
(1.42533 -0.0271528 0)
(1.43305 -0.0268032 0)
(1.44067 -0.0264472 0)
(1.44819 -0.0260861 0)
(1.4556 -0.0257215 0)
(1.4629 -0.0253547 0)
(1.4701 -0.0249868 0)
(1.47719 -0.024619 0)
(1.48417 -0.0242523 0)
(1.49105 -0.0238876 0)
(1.49783 -0.0235256 0)
(1.5045 -0.0231671 0)
(1.51106 -0.0228125 0)
(1.51753 -0.0224623 0)
(1.5239 -0.0221167 0)
(1.53017 -0.021776 0)
(1.53634 -0.0214402 0)
(1.54241 -0.0211094 0)
(1.5484 -0.0207833 0)
(1.55429 -0.0204619 0)
(1.56009 -0.0201446 0)
(1.5658 -0.0198313 0)
(1.57142 -0.0195214 0)
(1.57695 -0.0192143 0)
(1.5824 -0.0189095 0)
(1.58776 -0.0186063 0)
(1.59304 -0.018304 0)
(1.59823 -0.0180019 0)
(1.60333 -0.0176992 0)
(1.60835 -0.0173951 0)
(1.61328 -0.0170888 0)
(1.61813 -0.0167795 0)
(1.62289 -0.0164663 0)
(1.62755 -0.0161485 0)
(1.63213 -0.0158251 0)
(1.63662 -0.0154956 0)
(1.64101 -0.015159 0)
(1.6453 -0.0148147 0)
(1.6495 -0.0144619 0)
(1.65359 -0.0141 0)
(1.65758 -0.0137284 0)
(1.66147 -0.0133465 0)
(1.66524 -0.0129538 0)
(1.6689 -0.0125497 0)
(1.67245 -0.012134 0)
(1.67587 -0.0117062 0)
(1.67917 -0.0112659 0)
(1.68234 -0.010813 0)
(1.68538 -0.0103473 0)
(1.68829 -0.00986855 0)
(1.69106 -0.00937672 0)
(1.69368 -0.00887177 0)
(1.69616 -0.0083537 0)
(1.69849 -0.0078226 0)
(1.70066 -0.00727858 0)
(1.70268 -0.0067218 0)
(1.70454 -0.00615247 0)
(1.70623 -0.00557085 0)
(1.70775 -0.00497722 0)
(1.7091 -0.00437191 0)
(1.71028 -0.0037553 0)
(1.71127 -0.00312777 0)
(1.71209 -0.00248976 0)
(1.71272 -0.00184171 0)
(1.71317 -0.00118411 0)
(1.71342 -0.000517464 0)
(1.71348 0.000157713 0)
(1.71335 0.00084088 0)
(1.71302 0.00153148 0)
(1.71249 0.00222894 0)
(1.71176 0.00293267 0)
(1.71082 0.00364209 0)
(1.70969 0.00435659 0)
(1.70834 0.00507554 0)
(1.70679 0.00579834 0)
(1.70503 0.00652434 0)
(1.70306 0.00725291 0)
(1.70089 0.00798342 0)
(1.6985 0.0087152 0)
(1.6959 0.00944759 0)
(1.6931 0.0101799 0)
(1.69008 0.0109116 0)
(1.68685 0.0116418 0)
(1.68342 0.01237 0)
(1.67977 0.0130953 0)
(1.67592 0.0138172 0)
(1.67186 0.0145349 0)
(1.66759 0.0152477 0)
(1.66312 0.0159548 0)
(1.65845 0.0166555 0)
(1.65358 0.017349 0)
(1.64851 0.0180346 0)
(1.64324 0.0187115 0)
(1.63779 0.0193789 0)
(1.63214 0.020036 0)
(1.6263 0.0206821 0)
(1.62028 0.0213162 0)
(1.61408 0.0219375 0)
(1.6077 0.0225454 0)
(1.60115 0.0231388 0)
(1.59443 0.0237171 0)
(1.58755 0.0242793 0)
(1.5805 0.0248246 0)
(1.57331 0.0253523 0)
(1.56596 0.0258615 0)
(1.55847 0.0263515 0)
(1.55084 0.0268214 0)
(1.54308 0.0272706 0)
(1.53519 0.0276984 0)
(1.52718 0.0281039 0)
(1.51906 0.0284867 0)
(1.51083 0.028846 0)
(1.50251 0.0291814 0)
(1.49409 0.0294922 0)
(1.48558 0.0297781 0)
(1.47699 0.0300386 0)
(1.46834 0.0302734 0)
(1.45962 0.0304821 0)
(1.45084 0.0306646 0)
(1.44201 0.0308206 0)
(1.43315 0.0309501 0)
(1.42425 0.031053 0)
(1.41532 0.0311295 0)
(1.40638 0.0311795 0)
(1.39743 0.0312033 0)
(1.38847 0.0312012 0)
(1.37952 0.0311735 0)
(1.37058 0.0311205 0)
(1.36166 0.0310428 0)
(1.35277 0.0309408 0)
(1.34391 0.0308152 0)
(1.33509 0.0306667 0)
(1.32632 0.0304958 0)
(1.3176 0.0303035 0)
(1.30894 0.0300905 0)
(1.30034 0.0298576 0)
(1.29181 0.0296059 0)
(1.28336 0.0293361 0)
(1.27499 0.0290493 0)
(1.26671 0.0287465 0)
(1.25852 0.0284287 0)
(1.25042 0.028097 0)
(1.24242 0.0277523 0)
(1.23452 0.0273957 0)
(1.22672 0.0270284 0)
(1.21903 0.0266514 0)
(1.21146 0.0262657 0)
(1.20399 0.0258723 0)
(1.19664 0.0254725 0)
(1.18941 0.025067 0)
(1.1823 0.0246571 0)
(1.1753 0.0242436 0)
(1.16842 0.0238275 0)
(1.16167 0.0234098 0)
(1.15503 0.0229914 0)
(1.14852 0.0225731 0)
(1.14213 0.0221558 0)
(1.13585 0.0217403 0)
(1.1297 0.0213274 0)
(1.12366 0.0209177 0)
(1.11774 0.0205121 0)
(1.11194 0.0201112 0)
(1.10625 0.0197156 0)
(1.10068 0.0193258 0)
(1.09522 0.0189425 0)
(1.08986 0.018566 0)
(1.08462 0.018197 0)
(1.07947 0.0178358 0)
(1.07443 0.0174827 0)
(1.0695 0.0171382 0)
(1.06465 0.0168026 0)
(1.05991 0.016476 0)
(1.05525 0.0161588 0)
(1.05069 0.015851 0)
(1.04621 0.0155531 0)
(1.04181 0.0152647 0)
(1.03752 0.0149868 0)
(1.03322 0.014717 0)
(1.02922 0.0144625 0)
(1.02475 0.0142025 0)
(1.02164 0.013998 0)
(1.01526 0.0136701 0)
(1.00001 -0.000362534 0)
(1.00017 -0.00108797 0)
(1.00048 -0.00181441 0)
(1.00096 -0.00254259 0)
(1.0016 -0.00327322 0)
(1.00241 -0.00400699 0)
(1.00338 -0.00474455 0)
(1.00451 -0.00548653 0)
(1.0058 -0.00623353 0)
(1.00726 -0.00698609 0)
(1.00889 -0.00774473 0)
(1.01069 -0.00850991 0)
(1.01266 -0.00928203 0)
(1.0148 -0.0100614 0)
(1.01711 -0.0108484 0)
(1.0196 -0.011643 0)
(1.02227 -0.0124455 0)
(1.02512 -0.0132559 0)
(1.02814 -0.014074 0)
(1.03135 -0.0148997 0)
(1.03475 -0.0157328 0)
(1.03833 -0.0165727 0)
(1.04211 -0.0174191 0)
(1.04607 -0.0182711 0)
(1.05022 -0.0191282 0)
(1.05457 -0.0199893 0)
(1.05911 -0.0208534 0)
(1.06384 -0.0217193 0)
(1.06877 -0.0225858 0)
(1.07389 -0.0234514 0)
(1.07921 -0.0243145 0)
(1.08472 -0.0251734 0)
(1.09043 -0.0260262 0)
(1.09633 -0.0268711 0)
(1.10242 -0.0277059 0)
(1.10869 -0.0285286 0)
(1.11515 -0.0293369 0)
(1.1218 -0.0301285 0)
(1.12862 -0.0309011 0)
(1.13561 -0.0316523 0)
(1.14277 -0.0323798 0)
(1.1501 -0.0330812 0)
(1.15758 -0.0337542 0)
(1.16521 -0.0343966 0)
(1.17298 -0.0350061 0)
(1.18089 -0.0355807 0)
(1.18892 -0.0361185 0)
(1.19708 -0.0366177 0)
(1.20534 -0.0370767 0)
(1.2137 -0.0374941 0)
(1.22215 -0.0378687 0)
(1.23068 -0.0381996 0)
(1.23928 -0.038486 0)
(1.24794 -0.0387275 0)
(1.25665 -0.0389237 0)
(1.2654 -0.0390748 0)
(1.27417 -0.0391809 0)
(1.28296 -0.0392427 0)
(1.29176 -0.0392608 0)
(1.30056 -0.0392363 0)
(1.30935 -0.0391703 0)
(1.31811 -0.0390643 0)
(1.32685 -0.0389199 0)
(1.33554 -0.0387388 0)
(1.34419 -0.0385229 0)
(1.35278 -0.0382742 0)
(1.36131 -0.037995 0)
(1.36978 -0.0376873 0)
(1.37816 -0.0373536 0)
(1.38647 -0.036996 0)
(1.39469 -0.0366169 0)
(1.40282 -0.0362187 0)
(1.41086 -0.0358036 0)
(1.4188 -0.035374 0)
(1.42663 -0.034932 0)
(1.43437 -0.0344797 0)
(1.442 -0.0340192 0)
(1.44953 -0.0335525 0)
(1.45695 -0.0330814 0)
(1.46426 -0.0326075 0)
(1.47146 -0.0321325 0)
(1.47855 -0.0316578 0)
(1.48554 -0.0311848 0)
(1.49242 -0.0307144 0)
(1.49919 -0.0302478 0)
(1.50586 -0.0297858 0)
(1.51243 -0.0293291 0)
(1.5189 -0.0288782 0)
(1.52526 -0.0284334 0)
(1.53153 -0.0279951 0)
(1.5377 -0.0275634 0)
(1.54377 -0.0271381 0)
(1.54975 -0.0267192 0)
(1.55564 -0.0263063 0)
(1.56144 -0.025899 0)
(1.56715 -0.0254968 0)
(1.57277 -0.0250992 0)
(1.5783 -0.0247053 0)
(1.58375 -0.0243144 0)
(1.58912 -0.0239257 0)
(1.59439 -0.0235383 0)
(1.59959 -0.0231511 0)
(1.6047 -0.0227631 0)
(1.60972 -0.0223734 0)
(1.61466 -0.0219809 0)
(1.61951 -0.0215845 0)
(1.62428 -0.0211831 0)
(1.62895 -0.0207757 0)
(1.63354 -0.0203613 0)
(1.63804 -0.0199387 0)
(1.64244 -0.0195071 0)
(1.64674 -0.0190655 0)
(1.65095 -0.018613 0)
(1.65506 -0.0181486 0)
(1.65907 -0.0176717 0)
(1.66296 -0.0171815 0)
(1.66675 -0.0166772 0)
(1.67043 -0.0161583 0)
(1.67399 -0.0156243 0)
(1.67743 -0.0150746 0)
(1.68074 -0.0145089 0)
(1.68393 -0.0139268 0)
(1.68699 -0.0133281 0)
(1.68991 -0.0127126 0)
(1.69269 -0.0120801 0)
(1.69533 -0.0114307 0)
(1.69783 -0.0107644 0)
(1.70017 -0.0100812 0)
(1.70236 -0.00938126 0)
(1.7044 -0.00866487 0)
(1.70627 -0.00793227 0)
(1.70797 -0.00718378 0)
(1.70951 -0.0064198 0)
(1.71087 -0.00564074 0)
(1.71206 -0.00484708 0)
(1.71307 -0.00403933 0)
(1.7139 -0.00321805 0)
(1.71454 -0.00238383 0)
(1.715 -0.00153728 0)
(1.71526 -0.000679056 0)
(1.71533 0.000190165 0)
(1.7152 0.00106969 0)
(1.71488 0.0019588 0)
(1.71436 0.00285675 0)
(1.71363 0.00376279 0)
(1.7127 0.00467616 0)
(1.71157 0.00559607 0)
(1.71023 0.00652173 0)
(1.70868 0.00745235 0)
(1.70692 0.0083871 0)
(1.70496 0.00932517 0)
(1.70278 0.0102657 0)
(1.70039 0.011208 0)
(1.69779 0.012151 0)
(1.69498 0.013094 0)
(1.69196 0.014036 0)
(1.68873 0.0149763 0)
(1.68529 0.0159139 0)
(1.68163 0.016848 0)
(1.67777 0.0177776 0)
(1.67371 0.0187018 0)
(1.66943 0.0196197 0)
(1.66495 0.0205303 0)
(1.66027 0.0214327 0)
(1.65538 0.0223259 0)
(1.6503 0.023209 0)
(1.64502 0.0240808 0)
(1.63954 0.0249405 0)
(1.63388 0.025787 0)
(1.62802 0.0266192 0)
(1.62198 0.0274361 0)
(1.61576 0.0282366 0)
(1.60936 0.0290197 0)
(1.60279 0.0297843 0)
(1.59604 0.0305293 0)
(1.58914 0.0312537 0)
(1.58207 0.0319564 0)
(1.57484 0.0326364 0)
(1.56747 0.0332926 0)
(1.55995 0.0339241 0)
(1.55229 0.0345297 0)
(1.5445 0.0351086 0)
(1.53658 0.0356598 0)
(1.52854 0.0361825 0)
(1.52039 0.0366758 0)
(1.51213 0.0371389 0)
(1.50376 0.0375711 0)
(1.49531 0.0379716 0)
(1.48677 0.03834 0)
(1.47814 0.0386756 0)
(1.46945 0.038978 0)
(1.46069 0.0392468 0)
(1.45188 0.0394818 0)
(1.44302 0.0396826 0)
(1.43411 0.0398491 0)
(1.42518 0.0399815 0)
(1.41621 0.0400795 0)
(1.40723 0.0401436 0)
(1.39824 0.0401738 0)
(1.38925 0.0401705 0)
(1.38026 0.0401341 0)
(1.37129 0.0400652 0)
(1.36234 0.0399643 0)
(1.35341 0.0398322 0)
(1.34451 0.0396696 0)
(1.33566 0.0394773 0)
(1.32686 0.0392563 0)
(1.3181 0.0390076 0)
(1.30941 0.0387321 0)
(1.30079 0.0384312 0)
(1.29223 0.0381058 0)
(1.28376 0.0377572 0)
(1.27536 0.0373867 0)
(1.26705 0.0369955 0)
(1.25884 0.036585 0)
(1.25072 0.0361566 0)
(1.24269 0.0357115 0)
(1.23477 0.0352512 0)
(1.22696 0.0347769 0)
(1.21926 0.0342902 0)
(1.21167 0.0337924 0)
(1.20419 0.0332848 0)
(1.19683 0.0327687 0)
(1.18958 0.0322456 0)
(1.18246 0.0317167 0)
(1.17545 0.0311833 0)
(1.16857 0.0306466 0)
(1.1618 0.0301079 0)
(1.15516 0.0295682 0)
(1.14864 0.0290288 0)
(1.14225 0.0284908 0)
(1.13597 0.0279551 0)
(1.12981 0.0274228 0)
(1.12378 0.0268948 0)
(1.11786 0.026372 0)
(1.11206 0.0258554 0)
(1.10637 0.0253455 0)
(1.1008 0.0248434 0)
(1.09534 0.0243495 0)
(1.08999 0.0238646 0)
(1.08475 0.0233893 0)
(1.07961 0.022924 0)
(1.07458 0.0224694 0)
(1.06964 0.0220258 0)
(1.06481 0.0215937 0)
(1.06007 0.0211733 0)
(1.05542 0.020765 0)
(1.05086 0.0203689 0)
(1.0464 0.0199855 0)
(1.042 0.0196145 0)
(1.03772 0.0192571 0)
(1.03343 0.0189101 0)