/*--------------------------------*- C++ -*----------------------------------*\
| =========                 |                                                 |
| \\      /  F ield         | OpenFOAM: The Open Source CFD Toolbox           |
|  \\    /   O peration     | Version:  2306                                  |
|   \\  /    A nd           | Website:  www.openfoam.com                      |
|    \\/     M anipulation  |                                                 |
\*---------------------------------------------------------------------------*/
FoamFile
{
    version     2.0;
    format      ascii;
    arch        "LSB;label=32;scalar=64";
    class       volScalarField;
    location    "0.03";
    object      G;
}
// * * * * * * * * * * * * * * * * * * * * * * * * * * * * * * * * * * * * * //

dimensions      [1 0 -3 0 0 0 0];

internalField   nonuniform List<scalar> 
100
(
10026.1
11332.5
12156
12680
12967.9
12968
12680.1
12156
11332.5
10026.3
11332.5
12811.1
13703.3
14273.1
14587.6
14587.7
14273.1
13703.2
12811.1
11332.5
12156
13703.3
14670.8
15303
15648.7
15648.8
15303
14670.7
13703.2
12156
12680
14273.1
15303
15985.6
16357.4
16357.4
15985.7
15303
14273.1
12680.1
12967.9
14587.6
15648.7
16357.4
16742.9
16743
16357.4
15648.8
14587.7
12968
12968
14587.7
15648.8
16357.4
16743
16742.9
16357.4
15648.7
14587.6
12967.9
12680.1
14273.1
15303
15985.7
16357.4
16357.4
15985.6
15303
14273.1
12680
12156
13703.2
14670.7
15303
15648.8
15648.7
15303
14670.8
13703.3
12156
11332.5
12811.1
13703.2
14273.1
14587.7
14587.6
14273.1
13703.3
12811.1
11332.5
10026.3
11332.5
12156
12680.1
12968
12967.9
12680
12156
11332.5
10026.1
)
;

boundaryField
{
    fixedWall_Bottom
    {
        type            calculated;
        value           nonuniform List<scalar> 10(8746.83 9808.21 10538.7 11027.1 11296.4 11296.5 11027.1 10538.7 9808.25 8746.98);
    }
    fixedWall_Right
    {
        type            calculated;
        value           nonuniform List<scalar> 10(8746.98 9808.25 10538.7 11027.1 11296.5 11296.4 11027.1 10538.7 9808.21 8746.83);
    }
    fixedWall_Left
    {
        type            calculated;
        value           nonuniform List<scalar> 10(8746.83 9808.21 10538.7 11027.1 11296.4 11296.5 11027.1 10538.7 9808.25 8746.98);
    }
    fixedWall_Top
    {
        type            calculated;
        value           nonuniform List<scalar> 10(8746.98 9808.25 10538.7 11027.1 11296.5 11296.4 11027.1 10538.7 9808.21 8746.83);
    }
    frontAndBack
    {
        type            empty;
    }
}


// ************************************************************************* //
