/*--------------------------------*- C++ -*----------------------------------*\
| =========                 |                                                 |
| \\      /  F ield         | OpenFOAM: The Open Source CFD Toolbox           |
|  \\    /   O peration     | Version:  2306                                  |
|   \\  /    A nd           | Website:  www.openfoam.com                      |
|    \\/     M anipulation  |                                                 |
\*---------------------------------------------------------------------------*/
FoamFile
{
    version     2.0;
    format      ascii;
    arch        "LSB;label=32;scalar=64";
    class       volScalarField;
    location    "0.03";
    object      ILambda_9_0;
}
// * * * * * * * * * * * * * * * * * * * * * * * * * * * * * * * * * * * * * //

dimensions      [1 0 -3 0 0 0 0];

internalField   nonuniform List<scalar> 
100
(
125.831
355.291
559.054
792.59
1069.77
1361.24
1643.75
1907.05
2134.97
2409.86
125.827
355.308
559.099
792.609
1069.66
1360.95
1643.31
1906.62
2134.75
2410.17
125.828
355.367
559.142
792.411
1069.08
1360.09
1642.58
1906.52
2135.72
2412.52
125.867
355.469
558.868
791.374
1067.59
1359.2
1643.55
1910.19
2142.3
2421.07
126.011
355.385
557.659
789.677
1067.91
1364.34
1654.88
1927.01
2162.59
2439.16
126.11
354.43
556.446
793.236
1081.74
1389.81
1688.21
1960.97
2190.26
2445.91
125.873
353.009
561.457
813.768
1117.11
1428.02
1712.28
1955.38
2146.69
2342.95
126.667
358.664
579.248
837.069
1118.67
1375.67
1583.65
1741.5
1852.62
1953.98
129.383
367.16
568.409
758.545
927.189
1050.75
1129.98
1177.73
1204.2
1223.08
102.999
251.301
336.255
378.583
397.986
402.365
398.549
392.511
386.941
381.275
)
;

boundaryField
{
    fixedWall_Bottom
    {
        type            greyDiffusiveRadiation;
        refValue        uniform 0;
        refGradient     uniform 0;
        valueFraction   uniform 0;
        source          uniform 0;
        value           nonuniform List<scalar> 10(125.831 355.291 559.054 792.59 1069.77 1361.24 1643.75 1907.05 2134.97 2409.86);
    }
    fixedWall_Right
    {
        type            greyDiffusiveRadiation;
        refValue        uniform 0;
        refGradient     uniform 0;
        valueFraction   uniform 0;
        source          uniform 0;
        value           nonuniform List<scalar> 10(2409.86 2410.17 2412.52 2421.07 2439.16 2445.91 2342.95 1953.98 1223.08 381.275);
    }
    fixedWall_Left
    {
        type            greyDiffusiveRadiation;
        refValue        uniform 0;
        refGradient     uniform 0;
        valueFraction   uniform 1;
        source          uniform 0;
        value           uniform 0;
    }
    fixedWall_Top
    {
        type            greyDiffusiveRadiation;
        refValue        uniform 0;
        refGradient     uniform 0;
        valueFraction   uniform 1;
        source          uniform 0;
        value           uniform 0;
    }
    frontAndBack
    {
        type            empty;
    }
}


// ************************************************************************* //
