/*--------------------------------*- C++ -*----------------------------------*\
| =========                 |                                                 |
| \\      /  F ield         | OpenFOAM: The Open Source CFD Toolbox           |
|  \\    /   O peration     | Version:  2306                                  |
|   \\  /    A nd           | Website:  www.openfoam.com                      |
|    \\/     M anipulation  |                                                 |
\*---------------------------------------------------------------------------*/
FoamFile
{
    version     2.0;
    format      ascii;
    arch        "LSB;label=32;scalar=64";
    class       volScalarField;
    location    "0.03";
    object      qin;
}
// * * * * * * * * * * * * * * * * * * * * * * * * * * * * * * * * * * * * * //

dimensions      [1 0 -3 0 0 0 0];

internalField   uniform 0;

boundaryField
{
    fixedWall_Bottom
    {
        type            calculated;
        value           nonuniform List<scalar> 10(4387.93 5242.96 5827.79 6205.7 6387.59 6387.65 6205.78 5827.74 5242.96 4388.07);
    }
    fixedWall_Right
    {
        type            calculated;
        value           nonuniform List<scalar> 10(4388.07 5242.96 5827.74 6205.78 6387.65 6387.59 6205.7 5827.79 5242.96 4387.93);
    }
    fixedWall_Left
    {
        type            calculated;
        value           nonuniform List<scalar> 10(4387.93 5242.96 5827.79 6205.7 6387.59 6387.65 6205.78 5827.74 5242.96 4388.07);
    }
    fixedWall_Top
    {
        type            calculated;
        value           nonuniform List<scalar> 10(4388.07 5242.96 5827.74 6205.78 6387.65 6387.59 6205.7 5827.79 5242.96 4387.93);
    }
    frontAndBack
    {
        type            empty;
    }
}


// ************************************************************************* //
