/*--------------------------------*- C++ -*----------------------------------*\
| =========                 |                                                 |
| \\      /  F ield         | OpenFOAM: The Open Source CFD Toolbox           |
|  \\    /   O peration     | Version:  2112                                  |
|   \\  /    A nd           | Website:  www.openfoam.com                      |
|    \\/     M anipulation  |                                                 |
\*---------------------------------------------------------------------------*/
FoamFile
{
    version     2.0;
    format      ascii;
    arch        "LSB;label=32;scalar=64";
    class       volScalarField;
    location    "0.105";
    object      G;
}
// * * * * * * * * * * * * * * * * * * * * * * * * * * * * * * * * * * * * * //

dimensions      [1 0 -3 0 0 0 0];

internalField   nonuniform List<scalar> 
900
(
141528
163472
171967
176794
180344
183226
185621
187628
189313
190713
191852
192746
193407
193845
194062
194062
193845
193407
192746
191852
190713
189313
187628
185620
183226
180344
176794
171967
163472
141528
125665
148277
161552
169855
175627
179994
183448
186247
188535
190399
191891
193049
193899
194458
194735
194735
194458
193899
193049
191890
190398
188535
186247
183448
179994
175627
169855
161552
148277
125665
121768
140474
154096
163945
171214
176781
181169
184699
187563
189880
191726
193153
194197
194881
195220
195220
194881
194197
193153
191726
189880
187563
184699
181169
176781
171214
163945
154096
140474
121768
120498
136300
148880
158923
166842
173125
178159
182235
185548
188226
190358
192004
193207
193995
194385
194385
193995
193207
192004
190358
188226
185548
182235
178159
173125
166842
158923
148880
136300
120498
119905
133817
145246
154901
162910
169495
174895
179328
182959
185907
188260
190080
191411
192283
192714
192714
192283
191411
190080
188260
185907
182959
179328
174895
169495
162910
154901
145246
133817
119905
119176
131828
142317
151452
159295
165935
171507
176155
180004
183154
185680
187641
189078
190021
190488
190488
190021
189078
187641
185680
183154
180004
176155
171507
165935
159295
151452
142317
131828
119176
118373
130132
139881
148511
156081
162627
168222
172960
176926
180197
182836
184893
186405
187398
187891
187891
187398
186405
184893
182836
180197
176926
172960
168222
162627
156081
148511
139881
130132
118373
117562
128617
137756
145914
153169
159532
165049
169777
173776
177100
179797
181909
183466
184492
185001
185001
184492
183466
181909
179797
177100
173776
169777
165049
159532
153169
145914
137756
128617
117562
116667
127131
135759
143489
150425
156568
161950
166609
170582
173909
176624
178759
180338
181380
181898
181898
181380
180338
178759
176624
173909
170582
166609
161950
156568
150425
143489
135759
127131
116667
115640
125608
133803
141151
147785
153697
158916
163467
167376
170667
173367
175497
177078
178123
178644
178644
178123
177078
175497
173366
170667
167376
163467
158916
153697
147785
141150
133803
125608
115640
114502
124045
131864
138865
145214
150894
155934
160353
164168
167395
170053
172158
173724
174761
175278
175278
174761
173724
172158
170053
167395
164168
160353
155934
150894
145214
138865
131864
124045
114502
113272
122434
129918
136599
142678
148130
152983
157255
160958
164102
166701
168764
170302
171322
171831
171831
171322
170302
168764
166701
164102
160958
157255
152983
148130
142678
136599
129918
122434
113272
111945
120758
127940
134324
140148
145379
150044
154163
157744
160792
163318
165328
166829
167826
168324
168324
167826
166829
165328
163318
160792
157744
154163
150044
145379
140148
134324
127940
120758
111946
110519
119009
125917
132023
137607
142625
147105
151069
154521
157466
159911
161859
163316
164286
164770
164770
164286
163316
161859
159911
157466
154521
151069
147105
142625
137607
132023
125917
119009
110519
108999
117187
123844
129687
135042
139856
144155
147962
151283
154120
156478
158360
159769
160707
161176
161176
160707
159769
158360
156478
154120
151283
147962
144155
139856
135042
129687
123844
117187
108999
107391
115292
121715
127308
132443
137062
141183
144835
148024
150751
153020
154832
156189
157093
157545
157545
157093
156189
154832
153019
150751
148024
144835
141183
137061
132443
127308
121715
115293
107391
105697
113322
119525
124877
129801
134231
138179
141679
144736
147352
149530
151270
152575
153444
153878
153878
153444
152575
151270
149530
147352
144736
141679
138179
134231
129801
124877
119525
113322
105697
103918
111276
117271
122389
127108
131355
135135
138485
141412
143917
146003
147671
148921
149754
150171
150171
149754
148921
147670
146003
143917
141412
138485
135135
131355
127108
122389
117271
111276
103918
102057
109151
114948
119840
124357
128428
132043
135244
138042
140437
142431
144026
145222
146019
146418
146418
146019
145222
144026
142431
140437
138042
135244
132043
128428
124357
119840
114948
109151
102057
100114
106948
112554
117222
121541
125439
128892
131946
134618
136904
138807
140328
141470
142231
142611
142611
142231
141470
140328
138807
136904
134618
131946
128892
125439
121541
117222
112554
106948
100114
98088.9
104663
110082
114531
118652
122380
125674
128583
131128
133306
135118
136567
137654
138378
138741
138741
138378
137654
136567
135118
133306
131128
128583
125674
122380
118652
114531
110082
104663
98089.1
95980.1
102292
107528
111758
115680
119239
122377
125141
127560
129631
131352
132729
133761
134450
134794
134794
134450
133761
132729
131352
129631
127560
125141
122377
119239
115680
111758
107528
102292
95980.4
93787
99830.8
104884
108895
112615
116005
118987
121606
123899
125863
127494
128799
129777
130429
130755
130755
130429
129777
128799
127494
125863
123899
121606
118987
116005
112615
108895
104884
99831
93787.2
91504.7
97272.8
102140
105931
109443
112662
115488
117961
120128
121984
123526
124757
125682
126298
126606
126606
126298
125682
124757
123526
121984
120128
117961
115488
112662
109443
105931
102140
97273
91504.9
89120
94602.2
99279
102844
106142
109188
111857
114183
116222
117971
119423
120582
121452
122032
122322
122322
122032
121452
120582
119423
117971
116222
114183
111857
109188
106142
102845
99279.1
94602.4
89120.2
86618.1
91796.3
96271.8
99605.3
102680
105546
108058
110235
112144
113786
115148
116234
117050
117594
117866
117866
117594
117050
116234
115148
113786
112144
110235
108058
105546
102680
99605.4
96271.9
91796.5
86618.3
84012.4
88855.7
93110.2
96198.1
99035.4
101714
104064
106090
107866
109398
110670
111683
112443
112951
113205
113205
112951
112443
111683
110670
109398
107866
106090
104064
101714
99035.4
96198.2
93110.3
88855.9
84012.7
81233.2
85692.8
89696.1
92519
95099
97574.5
99756.7
101624
103259
104677
105855
106791
107493
107963
108199
108199
107963
107493
106791
105855
104677
103259
101624
99756.7
97574.5
95099
92519.1
89696.2
85693
81233.5
78263.5
82297.1
86018.9
88574.5
90905.5
93186.4
95209
96928.2
98432.2
99742.8
100834
101699
102348
102784
103002
103002
102784
102348
101699
100834
99742.8
98432.2
96928.2
95209
93186.5
90905.6
88574.6
86019.1
82297.4
78263.8
74105
77457.5
80798.7
83004.3
84983.1
86990.4
88805.4
90327.9
91647
92807.4
93781.1
94550.4
95124.3
95510.6
95706
95706
95510.6
95124.3
94550.4
93781.1
92807.4
91647
90327.9
88805.5
86990.5
84983.2
83004.5
80798.9
77457.8
74105.3
)
;

boundaryField
{
    fixedWall_Bottom
    {
        type            calculated;
        value           nonuniform List<scalar> 
30
(
166570
170919
174136
176826
179176
181246
183050
184612
185955
187090
188026
188767
189320
189687
189870
189870
189687
189320
188767
188026
187090
185955
184612
183050
181246
179176
176826
174136
170919
166570
)
;
    }
    fixedWall_Right
    {
        type            calculated;
        value           nonuniform List<scalar> 
30
(
110402
111023
111854
112380
112744
112649
112309
111854
111245
110458
109526
108479
107319
106047
104673
103204
101645
99998.6
98267.6
96454.3
94559
92581.1
90521
88375.2
86131.8
83778.8
81332.9
78736.3
75989.5
72238.9
)
;
    }
    fixedWall_Left
    {
        type            calculated;
        value           nonuniform List<scalar> 
30
(
110402
111023
111854
112380
112744
112649
112309
111854
111245
110458
109526
108479
107319
106047
104673
103204
101645
99998.5
98267.4
96454.1
94558.8
92580.9
90520.8
88374.9
86131.6
83778.5
81332.7
78736
75989.2
72238.5
)
;
    }
    fixedWall_Top
    {
        type            calculated;
        value           nonuniform List<scalar> 
30
(
72400.6
75408
78559.1
80632.3
82504.9
84420.8
86157
87612.6
88874.6
89986.7
90920.8
91658.5
92209.1
92579.8
92767.4
92767.4
92579.8
92209.1
91658.5
90920.7
89986.7
88874.6
87612.6
86157.1
84420.8
82505
80632.4
78559.3
75408.3
72400.9
)
;
    }
    frontAndBack
    {
        type            empty;
    }
}


// ************************************************************************* //
