/*--------------------------------*- C++ -*----------------------------------*\
| =========                 |                                                 |
| \\      /  F ield         | OpenFOAM: The Open Source CFD Toolbox           |
|  \\    /   O peration     | Version:  2112                                  |
|   \\  /    A nd           | Website:  www.openfoam.com                      |
|    \\/     M anipulation  |                                                 |
\*---------------------------------------------------------------------------*/
FoamFile
{
    version     2.0;
    format      ascii;
    arch        "LSB;label=32;scalar=64";
    class       volScalarField;
    location    "0.105";
    object      qin;
}
// * * * * * * * * * * * * * * * * * * * * * * * * * * * * * * * * * * * * * //

dimensions      [1 0 -3 0 0 0 0];

internalField   uniform 0;

boundaryField
{
    fixedWall_Bottom
    {
        type            calculated;
        value           nonuniform List<scalar> 
30
(
25420.8
28666.8
30927.3
32834.8
34490.5
35948.8
37215.9
38311
39251.3
40045.7
40699.3
41216.8
41602.2
41857.9
41985.4
41985.4
41857.9
41602.1
41216.8
40699.2
40045.6
39251.3
38311
37215.9
35948.8
34490.4
32834.7
30927.3
28666.7
25420.7
)
;
    }
    fixedWall_Right
    {
        type            calculated;
        value           nonuniform List<scalar> 
30
(
57476.3
58352.3
58923.1
59341.2
59600.3
59501.6
59209.2
58830.5
58337.8
57713
56985.2
56178.5
55295.5
54337.9
53313.6
52229.5
51088.7
49893
48644.7
47345.2
45993.9
44589.8
43132.3
41617.9
40036.4
38377.3
36652.9
34815.3
32872.7
30112.2
)
;
    }
    fixedWall_Left
    {
        type            calculated;
        value           nonuniform List<scalar> 
30
(
57476.4
58352.4
58923.1
59341.1
59600.2
59501.5
59209.1
58830.4
58337.8
57713
56985.2
56178.4
55295.5
54337.9
53313.5
52229.4
51088.6
49893
48644.7
47345.1
45993.8
44589.7
43132.2
41617.8
40036.2
38377.1
36652.8
34815.2
32872.5
30112
)
;
    }
    fixedWall_Top
    {
        type            calculated;
        value           nonuniform List<scalar> 
30
(
43371.6
46119.4
48669.1
50442.8
52035.5
53658.8
55132.8
56377.4
57459.2
58412
59213
59847.3
60321.2
60640.2
60801.6
60801.6
60640.2
60321.2
59847.3
59213
58412
57459.2
56377.4
55132.8
53658.9
52035.6
50442.9
48669.2
46119.6
43371.8
)
;
    }
    frontAndBack
    {
        type            empty;
    }
}


// ************************************************************************* //
