/*--------------------------------*- C++ -*----------------------------------*\
| =========                 |                                                 |
| \\      /  F ield         | OpenFOAM: The Open Source CFD Toolbox           |
|  \\    /   O peration     | Version:  2306                                  |
|   \\  /    A nd           | Website:  www.openfoam.com                      |
|    \\/     M anipulation  |                                                 |
\*---------------------------------------------------------------------------*/
FoamFile
{
    version     2.0;
    format      ascii;
    arch        "LSB;label=32;scalar=64";
    class       volScalarField;
    location    "7.5";
    object      Keff;
}
// * * * * * * * * * * * * * * * * * * * * * * * * * * * * * * * * * * * * * //

dimensions      [1 1 -3 -1 0 0 0];

internalField   nonuniform List<scalar> 
32768
(
67.2037
67.2017
67.1976
67.1914
67.1831
67.1726
67.1601
67.1455
67.1287
67.1098
67.0887
67.0655
67.04
67.0124
66.9824
66.9503
66.9158
66.8791
66.84
66.7986
66.7548
66.7087
66.6601
66.6091
66.5556
66.4998
66.4414
66.3806
66.3173
66.2516
66.1834
66.1127
66.0396
65.9641
65.8862
65.8059
65.7233
65.6384
65.5513
65.462
65.3706
65.2772
65.1817
65.0844
64.9853
64.8845
64.7821
64.6782
64.5729
64.4663
64.3586
64.2498
64.1401
64.0296
63.9184
63.8067
63.6946
63.5822
63.4696
63.3569
63.2443
63.1319
63.0198
62.9081
62.7969
62.6863
62.5764
62.4673
62.359
62.2517
62.1454
62.0401
61.936
61.833
61.7313
61.6308
61.5316
61.4338
61.3374
61.2424
61.1487
61.0566
60.9659
60.8766
60.7889
60.7026
60.6179
60.5347
60.453
60.3729
60.2944
60.2174
60.1421
60.0684
59.9963
59.9259
59.8571
59.7901
59.7249
59.6614
59.5998
59.54
59.4821
59.4262
59.3722
59.3203
59.2705
59.2228
59.1773
59.1341
59.0932
59.0546
59.0184
58.9847
58.9535
58.9249
58.899
58.8757
58.8551
58.8374
58.8225
58.8104
58.8013
58.7952
58.792
58.7919
58.7949
58.801
58.8101
58.8225
58.838
58.8566
58.8785
58.9035
58.9317
58.9632
58.9978
59.0356
59.0765
59.1206
59.1678
59.2181
59.2715
59.3279
59.3874
59.4497
59.515
59.5832
59.6541
59.7278
59.8042
59.8832
59.9648
60.0488
60.1353
60.2241
60.3151
60.4083
60.5036
60.6008
60.6999
60.8008
60.9034
61.0076
61.1132
61.2202
61.3285
61.4379
61.5483
61.6597
61.7718
61.8847
61.9981
62.1119
62.2261
62.3405
62.455
62.5694
62.6838
62.7979
62.9117
63.0251
63.1379
63.25
63.3614
63.472
63.5816
63.6902
63.7977
63.9041
64.0092
64.1129
64.2153
64.3162
64.4156
64.5135
64.6098
64.7044
64.7973
64.8885
64.978
65.0656
65.1515
65.2356
65.3178
65.3982
65.4768
65.5535
65.6283
65.7013
65.7725
65.8418
65.9093
65.975
66.0389
66.1011
66.1615
66.2202
66.2771
66.3324
66.3861
66.4381
66.4885
66.5374
66.5847
66.6306
66.6749
66.7179
66.7594
66.7996
66.8385
66.8761
66.9124
66.9475
66.9815
67.0143
67.0459
67.0765
67.1061
67.1347
67.1623
67.189
67.2148
67.2397
67.2638
67.2871
67.3096
67.3314
67.3524
67.3728
67.3924
67.4117
67.4295
67.4487
67.4624
67.4886
67.2037
67.2017
67.1976
67.1914
67.1831
67.1726
67.1601
67.1455
67.1287
67.1098
67.0888
67.0655
67.0401
67.0124
66.9825
66.9504
66.9159
66.8792
66.8401
66.7987
66.7549
66.7087
66.6601
66.6091
66.5557
66.4998
66.4414
66.3806
66.3173
66.2515
66.1832
66.1125
66.0394
65.9638
65.8858
65.8055
65.7228
65.6378
65.5506
65.4612
65.3697
65.2761
65.1806
65.0832
64.9839
64.883
64.7805
64.6764
64.571
64.4642
64.3563
64.2474
64.1376
64.0269
63.9156
63.8037
63.6915
63.5789
63.4662
63.3534
63.2407
63.1282
63.016
62.9042
62.7929
62.6822
62.5722
62.4629
62.3546
62.2472
62.1408
62.0355
61.9313
61.8283
61.7265
61.626
61.5268
61.429
61.3325
61.2375
61.1438
61.0516
60.9609
60.8716
60.7839
60.6976
60.6129
60.5297
60.448
60.3679
60.2893
60.2124
60.137
60.0633
59.9912
59.9207
59.852
59.7849
59.7197
59.6562
59.5945
59.5347
59.4767
59.4208
59.3668
59.3148
59.2649
59.2172
59.1717
59.1284
59.0874
59.0488
59.0125
58.9788
58.9476
58.9189
58.8929
58.8696
58.849
58.8312
58.8162
58.8042
58.795
58.7888
58.7857
58.7855
58.7885
58.7945
58.8037
58.816
58.8315
58.8501
58.872
58.897
58.9252
58.9567
58.9913
59.0291
59.07
59.1142
59.1614
59.2117
59.2652
59.3216
59.3811
59.4435
59.5088
59.577
59.648
59.7218
59.7982
59.8773
59.9589
60.043
60.1296
60.2184
60.3096
60.4028
60.4982
60.5955
60.6948
60.7958
60.8985
61.0027
61.1085
61.2156
61.324
61.4335
61.5441
61.6555
61.7678
61.8808
61.9943
62.1083
62.2226
62.3371
62.4517
62.5663
62.6808
62.7951
62.909
63.0225
63.1354
63.2477
63.3592
63.4699
63.5796
63.6884
63.796
63.9024
64.0076
64.1115
64.214
64.315
64.4145
64.5124
64.6088
64.7035
64.7965
64.8877
64.9773
65.065
65.1509
65.235
65.3173
65.3978
65.4763
65.5531
65.628
65.701
65.7722
65.8415
65.909
65.9748
66.0387
66.1008
66.1613
66.2199
66.2769
66.3322
66.3858
66.4378
66.4883
66.5371
66.5845
66.6303
66.6746
66.7176
66.7591
66.7993
66.8382
66.8757
66.912
66.9471
66.981
67.0138
67.0455
67.0761
67.1056
67.1342
67.1618
67.1884
67.2142
67.2391
67.2631
67.2864
67.3089
67.3307
67.3517
67.3721
67.3917
67.4109
67.4287
67.4479
67.4616
67.4877
67.2037
67.2017
67.1976
67.1914
67.1831
67.1727
67.1602
67.1455
67.1288
67.1099
67.0889
67.0656
67.0402
67.0126
66.9827
66.9505
66.9161
66.8794
66.8403
66.7989
66.7551
66.7089
66.6603
66.6093
66.5558
66.4998
66.4414
66.3805
66.3172
66.2513
66.183
66.1122
66.0389
65.9632
65.8851
65.8046
65.7217
65.6366
65.5492
65.4596
65.3679
65.2741
65.1783
65.0807
64.9812
64.88
64.7771
64.6728
64.5671
64.4601
64.3519
64.2426
64.1325
64.0216
63.9099
63.7978
63.6852
63.5724
63.4594
63.3464
63.2334
63.1207
63.0082
62.8962
62.7847
62.6738
62.5636
62.4542
62.3457
62.2382
62.1317
62.0262
61.9219
61.8188
61.717
61.6164
61.5172
61.4193
61.3227
61.2276
61.134
61.0418
60.951
60.8617
60.7739
60.6877
60.6029
60.5197
60.438
60.3578
60.2792
60.2022
60.1269
60.0531
59.9809
59.9104
59.8416
59.7746
59.7092
59.6457
59.5839
59.524
59.466
59.4099
59.3559
59.3038
59.2539
59.206
59.1604
59.117
59.0759
59.0372
59.0009
58.967
58.9357
58.9069
58.8808
58.8574
58.8367
58.8188
58.8038
58.7916
58.7824
58.7762
58.7729
58.7727
58.7756
58.7816
58.7907
58.803
58.8185
58.8371
58.8589
58.884
58.9122
58.9437
58.9783
59.0161
59.0571
59.1013
59.1486
59.199
59.2524
59.309
59.3685
59.431
59.4964
59.5647
59.6358
59.7097
59.7862
59.8654
59.9472
60.0315
60.1182
60.2072
60.2985
60.3919
60.4875
60.585
60.6844
60.7856
60.8885
60.993
61.099
61.2064
61.315
61.4247
61.5355
61.6473
61.7598
61.873
61.9868
62.101
62.2156
62.3304
62.4453
62.5601
62.6749
62.7894
62.9036
63.0173
63.1305
63.243
63.3548
63.4657
63.5757
63.6847
63.7925
63.8992
64.0046
64.1086
64.2113
64.3125
64.4122
64.5103
64.6068
64.7016
64.7948
64.8862
64.9758
65.0637
65.1497
65.2339
65.3163
65.3968
65.4755
65.5523
65.6272
65.7003
65.7716
65.8409
65.9085
65.9743
66.0382
66.1004
66.1608
66.2195
66.2764
66.3317
66.3854
66.4374
66.4878
66.5366
66.5839
66.6297
66.6741
66.717
66.7585
66.7986
66.8374
66.875
66.9112
66.9463
66.9802
67.0129
67.0445
67.0751
67.1046
67.1331
67.1607
67.1873
67.213
67.2378
67.2619
67.2851
67.3076
67.3293
67.3503
67.3706
67.3902
67.4094
67.4271
67.4463
67.4599
67.486
67.2037
67.2017
67.1976
67.1914
67.1831
67.1727
67.1602
67.1456
67.1289
67.11
67.089
67.0658
67.0404
67.0128
66.9829
66.9508
66.9164
66.8796
66.8406
66.7992
66.7554
66.7092
66.6605
66.6095
66.556
66.5
66.4415
66.3805
66.317
66.2511
66.1826
66.1116
66.0382
65.9623
65.884
65.8033
65.7202
65.6348
65.5471
65.4572
65.3652
65.2711
65.1749
65.0769
64.977
64.8754
64.7722
64.6674
64.5613
64.4538
64.3452
64.2355
64.1249
64.0135
63.9015
63.7889
63.6759
63.5627
63.4493
63.3358
63.2225
63.1094
62.9966
62.8842
62.7724
62.6612
62.5508
62.4412
62.3324
62.2247
62.118
62.0123
61.9079
61.8047
61.7027
61.602
61.5027
61.4047
61.3081
61.2129
61.1192
61.0269
60.9362
60.8468
60.759
60.6727
60.5879
60.5047
60.4229
60.3427
60.2641
60.1871
60.1116
60.0378
59.9656
59.8951
59.8262
59.759
59.6936
59.6299
59.5681
59.508
59.4499
59.3937
59.3395
59.2873
59.2372
59.1893
59.1435
59.0999
59.0587
59.0198
58.9833
58.9493
58.9178
58.8889
58.8627
58.8391
58.8183
58.8003
58.7851
58.7729
58.7635
58.7572
58.7538
58.7536
58.7564
58.7623
58.7714
58.7836
58.799
58.8176
58.8394
58.8645
58.8927
58.9242
58.9588
58.9967
59.0377
59.0819
59.1293
59.1798
59.2333
59.29
59.3496
59.4122
59.4778
59.5462
59.6175
59.6915
59.7683
59.8477
59.9297
60.0141
60.1011
60.1903
60.2819
60.3756
60.4714
60.5692
60.6689
60.7704
60.8737
60.9785
61.0848
61.1925
61.3014
61.4116
61.5227
61.6348
61.7477
61.8613
61.9755
62.0901
62.2051
62.3203
62.4356
62.5508
62.666
62.7809
62.8955
63.0096
63.1232
63.2361
63.3482
63.4595
63.5698
63.6791
63.7873
63.8943
64
64.1043
64.2073
64.3088
64.4087
64.5071
64.6039
64.6989
64.7923
64.8839
64.9737
65.0618
65.148
65.2323
65.3148
65.3955
65.4743
65.5512
65.6262
65.6993
65.7707
65.8401
65.9077
65.9735
66.0375
66.0997
66.1601
66.2188
66.2758
66.331
66.3847
66.4366
66.487
66.5358
66.5831
66.6289
66.6732
66.7161
66.7575
66.7976
66.8364
66.8739
66.9101
66.9451
66.9789
67.0116
67.0431
67.0736
67.1031
67.1315
67.159
67.1856
67.2112
67.236
67.26
67.2831
67.3055
67.3272
67.3481
67.3684
67.3879
67.4071
67.4248
67.4439
67.4575
67.4835
67.2037
67.2017
67.1976
67.1914
67.1832
67.1728
67.1603
67.1457
67.129
67.1102
67.0892
67.066
67.0407
67.0131
66.9832
66.9511
66.9167
66.88
66.841
66.7996
66.7557
66.7095
66.6609
66.6098
66.5562
66.5001
66.4416
66.3805
66.3169
66.2508
66.1821
66.111
66.0373
65.9612
65.8826
65.8016
65.7182
65.6324
65.5444
65.4541
65.3616
65.267
65.1704
65.0719
64.9715
64.8694
64.7656
64.6603
64.5535
64.4455
64.3363
64.226
64.1148
64.0028
63.8902
63.777
63.6635
63.5497
63.4357
63.3218
63.2079
63.0943
62.9811
62.8683
62.7561
62.6445
62.5337
62.4237
62.3147
62.2066
62.0997
61.9938
61.8892
61.7858
61.6836
61.5828
61.4833
61.3853
61.2886
61.1933
61.0996
61.0072
60.9164
60.827
60.7392
60.6528
60.568
60.4847
60.4029
60.3227
60.244
60.1669
60.0914
60.0175
59.9452
59.8746
59.8056
59.7383
59.6728
59.609
59.547
59.4868
59.4285
59.3722
59.3178
59.2654
59.2151
59.1669
59.121
59.0772
59.0358
58.9967
58.96
58.9258
58.8941
58.865
58.8385
58.8148
58.7938
58.7756
58.7603
58.7479
58.7384
58.7319
58.7284
58.728
58.7307
58.7366
58.7456
58.7577
58.7731
58.7917
58.8134
58.8385
58.8667
58.8982
58.9329
58.9708
59.0119
59.0562
59.1036
59.1542
59.2079
59.2647
59.3245
59.3872
59.453
59.5216
59.5931
59.6674
59.7443
59.824
59.9062
59.991
60.0782
60.1678
60.2597
60.3538
60.4499
60.5481
60.6482
60.7502
60.8538
60.9591
61.0658
61.174
61.2834
61.394
61.5057
61.6183
61.7317
61.8458
61.9605
62.0756
62.1911
62.3068
62.4226
62.5385
62.6541
62.7696
62.8847
62.9993
63.1134
63.2268
63.3394
63.4512
63.562
63.6717
63.7804
63.8878
63.9939
64.0987
64.202
64.3039
64.4042
64.5029
64.6
64.6953
64.789
64.8809
64.9709
65.0592
65.1456
65.2302
65.3129
65.3937
65.4726
65.5497
65.6248
65.6981
65.7695
65.839
65.9067
65.9725
66.0365
66.0988
66.1592
66.2179
66.2749
66.3301
66.3838
66.4357
66.4861
66.5348
66.5821
66.6278
66.672
66.7148
66.7562
66.7963
66.835
66.8724
66.9085
66.9435
66.9772
67.0098
67.0413
67.0717
67.101
67.1294
67.1568
67.1833
67.2089
67.2336
67.2575
67.2805
67.3029
67.3244
67.3453
67.3655
67.3849
67.404
67.4216
67.4407
67.4542
67.4801
67.2037
67.2017
67.1977
67.1915
67.1832
67.1729
67.1604
67.1459
67.1292
67.1104
67.0895
67.0663
67.041
67.0134
66.9836
66.9516
66.9172
66.8805
66.8415
66.8001
66.7563
66.71
66.6613
66.6102
66.5565
66.5004
66.4417
66.3805
66.3167
66.2504
66.1816
66.1102
66.0363
65.9599
65.8809
65.7995
65.7157
65.6295
65.541
65.4502
65.3572
65.2621
65.1649
65.0657
64.9647
64.8619
64.7574
64.6513
64.5439
64.4351
64.3251
64.2141
64.1022
63.9894
63.8761
63.7622
63.6479
63.5334
63.4188
63.3041
63.1897
63.0755
62.9616
62.8483
62.7356
62.6235
62.5123
62.4019
62.2925
62.1841
62.0768
61.9707
61.8658
61.7621
61.6598
61.5588
61.4592
61.361
61.2642
61.1689
61.075
60.9826
60.8917
60.8023
60.7144
60.628
60.5431
60.4598
60.378
60.2977
60.219
60.1418
60.0662
59.9922
59.9198
59.849
59.7799
59.7125
59.6468
59.5829
59.5207
59.4603
59.4018
59.3453
59.2907
59.2381
59.1875
59.1391
59.0929
59.0489
59.0072
58.9678
58.9309
58.8964
58.8645
58.8351
58.8084
58.7844
58.7632
58.7448
58.7293
58.7166
58.707
58.7003
58.6967
58.6961
58.6987
58.7044
58.7133
58.7254
58.7407
58.7592
58.781
58.806
58.8342
58.8657
58.9005
58.9384
58.9796
59.024
59.0716
59.1223
59.1761
59.233
59.293
59.356
59.422
59.4909
59.5626
59.6371
59.7144
59.7944
59.877
59.9621
60.0497
60.1397
60.232
60.3265
60.4231
60.5218
60.6224
60.7248
60.829
60.9348
61.0421
61.1508
61.2609
61.3721
61.4843
61.5976
61.7116
61.8264
61.9417
62.0575
62.1737
62.29
62.4065
62.523
62.6393
62.7554
62.8712
62.9865
63.1012
63.2152
63.3284
63.4408
63.5522
63.6625
63.7717
63.8797
63.9864
64.0916
64.1955
64.2978
64.3985
64.4977
64.5951
64.6909
64.7849
64.8771
64.9675
65.0561
65.1427
65.2276
65.3105
65.3915
65.4706
65.5478
65.6231
65.6965
65.768
65.8376
65.9054
65.9713
66.0354
66.0976
66.1581
66.2168
66.2738
66.3291
66.3826
66.4346
66.4849
66.5336
66.5808
66.6264
66.6706
66.7134
66.7547
66.7946
66.8332
66.8706
66.9066
66.9414
66.9751
67.0076
67.0389
67.0693
67.0985
67.1268
67.1541
67.1804
67.2059
67.2305
67.2543
67.2773
67.2995
67.321
67.3417
67.3618
67.3812
67.4001
67.4177
67.4366
67.4501
67.4759
67.2037
67.2017
67.1977
67.1915
67.1833
67.173
67.1606
67.1461
67.1294
67.1107
67.0898
67.0667
67.0414
67.0139
66.9842
66.9521
66.9178
66.8811
66.8421
66.8007
66.7569
66.7107
66.6619
66.6107
66.557
66.5008
66.442
66.3806
66.3166
66.2501
66.181
66.1094
66.0351
65.9583
65.879
65.7972
65.7129
65.6262
65.5371
65.4457
65.352
65.2562
65.1583
65.0584
64.9565
64.8529
64.7476
64.6407
64.5323
64.4227
64.3118
64.1999
64.087
63.9734
63.8591
63.7443
63.6292
63.5138
63.3984
63.283
63.1678
63.0528
62.9383
62.8243
62.711
62.5983
62.4866
62.3757
62.2658
62.157
62.0494
61.9429
61.8377
61.7338
61.6312
61.53
61.4302
61.3319
61.235
61.1395
61.0456
60.9531
60.8621
60.7727
60.6847
60.5983
60.5134
60.43
60.3481
60.2677
60.189
60.1117
60.036
59.9619
59.8894
59.8185
59.7493
59.6817
59.6158
59.5516
59.4892
59.4287
59.3699
59.3131
59.2582
59.2053
59.1545
59.1058
59.0593
59.015
58.9729
58.9333
58.896
58.8612
58.829
58.7993
58.7723
58.7481
58.7266
58.7079
58.6921
58.6792
58.6693
58.6624
58.6586
58.6579
58.6603
58.6659
58.6747
58.6867
58.7019
58.7203
58.7421
58.7671
58.7953
58.8268
58.8616
58.8997
58.9409
58.9854
59.0331
59.084
59.138
59.1952
59.2554
59.3186
59.3848
59.454
59.526
59.6009
59.6786
59.7589
59.8419
59.9275
60.0156
60.106
60.1988
60.2938
60.391
60.4902
60.5914
60.6945
60.7993
60.9057
61.0137
61.1231
61.2338
61.3458
61.4588
61.5727
61.6876
61.8031
61.9192
62.0358
62.1527
62.2699
62.3872
62.5045
62.6216
62.7385
62.855
62.9711
63.0866
63.2014
63.3154
63.4284
63.5406
63.6516
63.7614
63.8701
63.9773
64.0832
64.1876
64.2905
64.3918
64.4915
64.5894
64.6856
64.78
64.8727
64.9634
65.0523
65.1394
65.2245
65.3077
65.3889
65.4683
65.5457
65.6211
65.6947
65.7663
65.8361
65.9039
65.9699
66.034
66.0963
66.1568
66.2156
66.2725
66.3278
66.3813
66.4332
66.4835
66.5322
66.5793
66.6248
66.6689
66.7116
66.7528
66.7927
66.8312
66.8684
66.9043
66.939
66.9725
67.0049
67.0362
67.0664
67.0955
67.1236
67.1508
67.1771
67.2024
67.2269
67.2505
67.2734
67.2955
67.3168
67.3375
67.3575
67.3767
67.3955
67.413
67.4318
67.4452
67.4708
67.2037
67.2017
67.1977
67.1916
67.1834
67.1731
67.1607
67.1463
67.1297
67.111
67.0902
67.0671
67.0419
67.0145
66.9848
66.9528
66.9185
66.8819
66.8429
66.8016
66.7577
66.7115
66.6627
66.6114
66.5576
66.5013
66.4423
66.3808
66.3166
66.2499
66.1805
66.1085
66.0339
65.9567
65.8769
65.7945
65.7097
65.6223
65.5326
65.4405
65.3461
65.2495
65.1507
65.0499
64.9471
64.8425
64.7362
64.6283
64.5189
64.4082
64.2963
64.1833
64.0694
63.9547
63.8393
63.7235
63.6074
63.491
63.3746
63.2583
63.1421
63.0264
62.911
62.7963
62.6822
62.5689
62.4565
62.3451
62.2347
62.1254
62.0173
61.9104
61.8049
61.7007
61.5978
61.4964
61.3964
61.2979
61.2009
61.1053
61.0113
60.9187
60.8277
60.7382
60.6502
60.5637
60.4787
60.3953
60.3134
60.233
60.1541
60.0768
60.001
59.9267
59.8541
59.7831
59.7136
59.6458
59.5797
59.5154
59.4527
59.3919
59.3328
59.2757
59.2205
59.1673
59.1161
59.0671
59.0202
58.9755
58.9331
58.8931
58.8555
58.8203
58.7877
58.7577
58.7304
58.7057
58.6839
58.6649
58.6488
58.6357
58.6255
58.6184
58.6143
58.6134
58.6156
58.6211
58.6297
58.6416
58.6567
58.6751
58.6967
58.7217
58.75
58.7815
58.8164
58.8545
58.8959
58.9405
58.9883
59.0394
59.0936
59.151
59.2115
59.275
59.3415
59.411
59.4834
59.5587
59.6368
59.7176
59.8011
59.8871
59.9757
60.0667
60.1601
60.2557
60.3535
60.4534
60.5553
60.659
60.7646
60.8718
60.9806
61.0908
61.2023
61.3151
61.429
61.5438
61.6595
61.7759
61.893
62.0105
62.1284
62.2465
62.3647
62.4829
62.601
62.7188
62.8363
62.9532
63.0696
63.1853
63.3001
63.4141
63.527
63.6389
63.7495
63.8589
63.9669
64.0735
64.1786
64.2822
64.3841
64.4843
64.5828
64.6796
64.7745
64.8676
64.9588
65.0481
65.1355
65.221
65.3045
65.386
65.4656
65.5432
65.6189
65.6927
65.7645
65.8343
65.9023
65.9683
66.0325
66.0949
66.1554
66.2141
66.2711
66.3263
66.3798
66.4317
66.4819
66.5305
66.5775
66.623
66.667
66.7095
66.7507
66.7904
66.8288
66.8659
66.9017
66.9362
66.9696
67.0018
67.033
67.063
67.092
67.12
67.147
67.1731
67.1983
67.2226
67.2461
67.2689
67.2908
67.312
67.3325
67.3524
67.3714
67.3902
67.4075
67.4262
67.4395
67.4649
67.2037
67.2017
67.1977
67.1916
67.1834
67.1732
67.1609
67.1465
67.13
67.1114
67.0906
67.0677
67.0425
67.0152
66.9856
66.9537
66.9194
66.8829
66.8439
66.8026
66.7588
66.7125
66.6637
66.6124
66.5585
66.502
66.4429
66.3811
66.3168
66.2497
66.18
66.1076
66.0326
65.9549
65.8746
65.7917
65.7062
65.6181
65.5276
65.4347
65.3394
65.2419
65.1422
65.0403
64.9365
64.8308
64.7234
64.6143
64.5037
64.3918
64.2786
64.1644
64.0492
63.9333
63.8167
63.6997
63.5824
63.4649
63.3474
63.23
63.1128
62.9961
62.8798
62.7642
62.6493
62.5352
62.4221
62.31
62.199
62.0892
61.9806
61.8733
61.7674
61.6628
61.5597
61.4581
61.3579
61.2592
61.162
61.0663
60.9722
60.8795
60.7884
60.6989
60.6108
60.5243
60.4393
60.3558
60.2738
60.1934
60.1144
60.037
59.9611
59.8867
59.8139
59.7427
59.6731
59.6051
59.5388
59.4741
59.4112
59.35
59.2907
59.2332
59.1776
59.124
59.0725
59.023
58.9757
58.9306
58.8878
58.8473
58.8093
58.7737
58.7407
58.7103
58.6825
58.6575
58.6353
58.6159
58.5995
58.586
58.5755
58.5681
58.5638
58.5627
58.5647
58.5699
58.5784
58.5901
58.6051
58.6234
58.645
58.67
58.6982
58.7298
58.7647
58.8029
58.8444
58.8892
58.9372
58.9885
59.043
59.1006
59.1614
59.2252
59.2921
59.362
59.4348
59.5105
59.5891
59.6704
59.7544
59.841
59.9302
60.0218
60.1159
60.2122
60.3107
60.4114
60.514
60.6186
60.725
60.833
60.9427
61.0538
61.1663
61.2801
61.3949
61.5108
61.6275
61.745
61.8631
61.9816
62.1006
62.2198
62.3391
62.4583
62.5775
62.6964
62.8149
62.9329
63.0503
63.167
63.2829
63.3978
63.5117
63.6245
63.736
63.8463
63.9551
64.0625
64.1684
64.2727
64.3753
64.4763
64.5754
64.6728
64.7683
64.8619
64.9536
65.0434
65.1312
65.217
65.3009
65.3828
65.4627
65.5406
65.6165
65.6904
65.7624
65.8324
65.9005
65.9666
66.0309
66.0933
66.1539
66.2126
66.2695
66.3247
66.3782
66.43
66.4801
66.5287
66.5756
66.621
66.6649
66.7073
66.7482
66.7878
66.8261
66.863
66.8987
66.9331
66.9663
66.9984
67.0293
67.0592
67.088
67.1158
67.1427
67.1686
67.1936
67.2178
67.2411
67.2637
67.2855
67.3065
67.3269
67.3466
67.3655
67.3841
67.4012
67.4198
67.4329
67.4582
67.2037
67.2017
67.1978
67.1917
67.1836
67.1734
67.1611
67.1468
67.1304
67.1119
67.0912
67.0683
67.0433
67.016
66.9865
66.9547
66.9205
66.884
66.8451
66.8038
66.76
66.7137
66.6649
66.6135
66.5595
66.5029
66.4437
66.3817
66.3171
66.2497
66.1797
66.1069
66.0314
65.9532
65.8722
65.7887
65.7024
65.6136
65.5223
65.4284
65.3322
65.2336
65.1327
65.0297
64.9247
64.8178
64.709
64.5986
64.4867
64.3733
64.2588
64.1431
64.0266
63.9093
63.7913
63.6729
63.5543
63.4355
63.3167
63.1981
63.0798
62.9619
62.8446
62.728
62.6121
62.4972
62.3833
62.2705
62.1588
62.0484
61.9393
61.8315
61.7252
61.6203
61.5168
61.4149
61.3145
61.2156
61.1183
61.0225
60.9283
60.8356
60.7444
60.6548
60.5667
60.4802
60.3951
60.3116
60.2296
60.149
60.07
59.9925
59.9165
59.842
59.769
59.6976
59.6278
59.5595
59.4929
59.428
59.3647
59.3032
59.2435
59.1856
59.1297
59.0756
59.0236
58.9737
58.9259
58.8803
58.837
58.7961
58.7575
58.7215
58.688
58.6571
58.6289
58.6034
58.5808
58.561
58.5442
58.5303
58.5195
58.5118
58.5071
58.5057
58.5075
58.5125
58.5208
58.5323
58.5472
58.5654
58.587
58.6119
58.6402
58.6718
58.7068
58.7451
58.7867
58.8316
58.8799
58.9314
58.9861
59.044
59.1051
59.1693
59.2366
59.3069
59.3802
59.4564
59.5355
59.6173
59.7019
59.7892
59.879
59.9714
60.0662
60.1633
60.2626
60.3641
60.4676
60.5731
60.6804
60.7895
60.9002
61.0123
61.1259
61.2407
61.3567
61.4737
61.5916
61.7102
61.8295
61.9492
62.0694
62.1898
62.3103
62.4308
62.5511
62.6712
62.7909
62.9101
63.0287
63.1465
63.2635
63.3796
63.4945
63.6084
63.7209
63.8322
63.942
64.0503
64.1571
64.2622
64.3657
64.4673
64.5672
64.6653
64.7614
64.8556
64.9479
65.0382
65.1265
65.2128
65.2971
65.3793
65.4595
65.5377
65.6139
65.688
65.7602
65.8304
65.8986
65.9648
66.0292
66.0916
66.1522
66.2109
66.2679
66.323
66.3765
66.4282
66.4782
66.5266
66.5735
66.6187
66.6625
66.7047
66.7456
66.785
66.8231
66.8598
66.8953
66.9295
66.9626
66.9945
67.0252
67.0549
67.0835
67.1112
67.1378
67.1636
67.1884
67.2124
67.2355
67.2579
67.2795
67.3004
67.3205
67.34
67.3588
67.3772
67.3942
67.4125
67.4256
67.4506
67.2037
67.2018
67.1978
67.1918
67.1837
67.1736
67.1614
67.1472
67.1308
67.1124
67.0918
67.0691
67.0441
67.017
66.9875
66.9558
66.9218
66.8854
66.8465
66.8053
66.7615
66.7152
66.6664
66.615
66.5609
66.5042
66.4447
66.3826
66.3177
66.25
66.1795
66.1063
66.0303
65.9515
65.8699
65.7856
65.6986
65.6089
65.5166
65.4217
65.3243
65.2246
65.1225
65.0182
64.9118
64.8035
64.6932
64.5813
64.4679
64.353
64.2368
64.1196
64.0015
63.8826
63.7631
63.6432
63.523
63.4027
63.2825
63.1626
63.043
62.9238
62.8054
62.6876
62.5708
62.4549
62.3401
62.2265
62.1141
62.003
61.8933
61.7851
61.6783
61.573
61.4692
61.367
61.2664
61.1673
61.0698
60.9739
60.8796
60.7869
60.6957
60.606
60.5179
60.4314
60.3463
60.2627
60.1807
60.1001
60.021
59.9434
59.8672
59.7926
59.7194
59.6478
59.5778
59.5092
59.4423
59.3771
59.3134
59.2516
59.1914
59.1331
59.0767
59.0222
58.9697
58.9192
58.8709
58.8248
58.7809
58.7394
58.7003
58.6637
58.6297
58.5983
58.5695
58.5436
58.5204
58.5002
58.4829
58.4686
58.4574
58.4493
58.4444
58.4426
58.4441
58.4489
58.457
58.4683
58.4831
58.5012
58.5227
58.5476
58.5758
58.6075
58.6425
58.6809
58.7227
58.7678
58.8163
58.868
58.923
58.9812
59.0427
59.1073
59.175
59.2458
59.3196
59.3963
59.476
59.5585
59.6438
59.7317
59.8223
59.9154
60.011
60.109
60.2092
60.3116
60.4161
60.5226
60.631
60.7411
60.8529
60.9663
61.081
61.197
61.3143
61.4325
61.5517
61.6716
61.7922
61.9133
62.0348
62.1565
62.2784
62.4003
62.522
62.6434
62.7644
62.885
63.0048
63.124
63.2422
63.3595
63.4757
63.5907
63.7044
63.8167
63.9276
64.037
64.1447
64.2508
64.3551
64.4576
64.5583
64.6571
64.754
64.8489
64.9418
65.0326
65.1215
65.2082
65.293
65.3756
65.4562
65.5347
65.6111
65.6855
65.7579
65.8282
65.8966
65.963
66.0274
66.0899
66.1505
66.2092
66.2661
66.3213
66.3746
66.4262
66.4762
66.5245
66.5712
66.6163
66.6599
66.702
66.7427
66.7819
66.8198
66.8564
66.8916
66.9257
66.9585
66.9902
67.0207
67.0502
67.0786
67.106
67.1325
67.158
67.1826
67.2064
67.2293
67.2515
67.2729
67.2935
67.3135
67.3328
67.3513
67.3695
67.3864
67.4045
67.4174
67.4422
67.2037
67.2018
67.1978
67.1919
67.1838
67.1738
67.1617
67.1476
67.1313
67.113
67.0926
67.0699
67.0451
67.0181
66.9888
66.9572
66.9233
66.887
66.8482
66.807
66.7633
66.7171
66.6682
66.6167
66.5626
66.5057
66.4461
66.3837
66.3185
66.2505
66.1797
66.106
66.0294
65.9499
65.8677
65.7825
65.6946
65.604
65.5106
65.4146
65.316
65.215
65.1115
65.0058
64.8979
64.788
64.6761
64.5625
64.4473
64.3307
64.2128
64.0938
63.9739
63.8532
63.732
63.6104
63.4886
63.3667
63.2449
63.1234
63.0023
62.8819
62.7621
62.6432
62.5252
62.4083
62.2925
62.178
62.0648
61.9531
61.8427
61.7339
61.6266
61.5209
61.4168
61.3144
61.2135
61.1143
61.0166
60.9207
60.8263
60.7335
60.6423
60.5526
60.4645
60.378
60.2929
60.2093
60.1272
60.0466
59.9674
59.8897
59.8135
59.7387
59.6653
59.5935
59.5232
59.4544
59.3871
59.3215
59.2575
59.1952
59.1346
59.0758
59.0188
58.9638
58.9107
58.8597
58.8108
58.7641
58.7196
58.6775
58.6378
58.6006
58.5659
58.5339
58.5046
58.4781
58.4544
58.4336
58.4158
58.4011
58.3894
58.3809
58.3756
58.3735
58.3747
58.3792
58.387
58.3982
58.4128
58.4308
58.4522
58.477
58.5053
58.5369
58.5721
58.6106
58.6525
58.6978
58.7465
58.7985
58.8538
58.9124
58.9742
59.0393
59.1074
59.1787
59.2531
59.3304
59.4107
59.4939
59.5799
59.6686
59.76
59.854
59.9504
60.0493
60.1506
60.254
60.3596
60.4672
60.5767
60.688
60.8011
60.9157
61.0317
61.1491
61.2676
61.3873
61.5079
61.6292
61.7513
61.8739
61.9969
62.1201
62.2435
62.3668
62.49
62.6129
62.7354
62.8574
62.9788
63.0993
63.2189
63.3376
63.4551
63.5714
63.6864
63.7999
63.912
64.0225
64.1313
64.2384
64.3437
64.4472
64.5488
64.6484
64.746
64.8417
64.9352
65.0267
65.1162
65.2035
65.2887
65.3717
65.4527
65.5316
65.6083
65.683
65.7556
65.8261
65.8946
65.9611
66.0256
66.0881
66.1487
66.2075
66.2644
66.3194
66.3727
66.4242
66.4741
66.5222
66.5688
66.6137
66.6572
66.6991
66.7395
66.7786
66.8163
66.8526
66.8877
66.9215
66.9541
66.9855
67.0158
67.045
67.0732
67.1004
67.1266
67.1519
67.1763
67.1998
67.2225
67.2444
67.2656
67.286
67.3057
67.3248
67.3432
67.3612
67.3778
67.3958
67.4085
67.4329
67.2037
67.2018
67.1979
67.192
67.184
67.174
67.162
67.148
67.1319
67.1137
67.0934
67.0709
67.0463
67.0194
66.9903
66.9588
66.925
66.8888
66.8502
66.8091
66.7655
66.7193
66.6704
66.6189
66.5647
66.5077
66.4479
66.3853
66.3198
66.2515
66.1802
66.1059
66.0288
65.9487
65.8656
65.7796
65.6908
65.5991
65.5045
65.4073
65.3074
65.2049
65.0999
64.9926
64.883
64.7713
64.6577
64.5422
64.4251
64.3066
64.1867
64.0658
63.9439
63.8213
63.6981
63.5746
63.4509
63.3272
63.2037
63.0806
62.9579
62.8359
62.7147
62.5945
62.4753
62.3572
62.2404
62.125
62.011
61.8984
61.7875
61.6781
61.5703
61.4642
61.3597
61.257
61.1559
61.0565
60.9588
60.8627
60.7683
60.6755
60.5843
60.4947
60.4066
60.3201
60.235
60.1514
60.0693
59.9887
59.9095
59.8317
59.7553
59.6804
59.6069
59.5348
59.4642
59.3951
59.3275
59.2614
59.197
59.1342
59.0731
59.0138
58.9562
58.9006
58.8469
58.7952
58.7457
58.6983
58.6532
58.6104
58.57
58.5321
58.4967
58.4641
58.4341
58.407
58.3827
58.3613
58.343
58.3277
58.3156
58.3066
58.3009
58.2984
58.2992
58.3034
58.311
58.322
58.3364
58.3542
58.3755
58.4003
58.4286
58.4603
58.4955
58.5341
58.5762
58.6217
58.6706
58.7229
58.7786
58.8375
58.8998
58.9653
59.0339
59.1058
59.1807
59.2587
59.3397
59.4236
59.5104
59.5999
59.6922
59.7871
59.8845
59.9844
60.0867
60.1913
60.298
60.4068
60.5176
60.6302
60.7446
60.8605
60.978
61.0968
61.2169
61.3381
61.4602
61.5832
61.7068
61.831
61.9556
62.0805
62.2055
62.3305
62.4553
62.5799
62.704
62.8276
62.9505
63.0726
63.1938
63.3139
63.4329
63.5506
63.667
63.7819
63.8952
64.007
64.117
64.2252
64.3316
64.4361
64.5386
64.6392
64.7377
64.8341
64.9284
65.0206
65.1106
65.1985
65.2842
65.3678
65.4492
65.5284
65.6055
65.6804
65.7532
65.8239
65.8926
65.9592
66.0238
66.0864
66.147
66.2057
66.2626
66.3176
66.3707
66.4222
66.4719
66.5199
66.5663
66.611
66.6543
66.696
66.7362
66.775
66.8125
66.8486
66.8834
66.9169
66.9493
66.9805
67.0105
67.0395
67.0674
67.0943
67.1203
67.1453
67.1694
67.1927
67.2151
67.2368
67.2577
67.2779
67.2973
67.3162
67.3343
67.3521
67.3685
67.3862
67.3988
67.4229
67.2037
67.2018
67.1979
67.1921
67.1842
67.1743
67.1624
67.1485
67.1326
67.1146
67.0944
67.0721
67.0476
67.0209
66.992
66.9607
66.9271
66.891
66.8526
66.8116
66.768
66.7219
66.6731
66.6216
66.5673
66.5102
66.4503
66.3874
66.3216
66.2529
66.1812
66.1064
66.0286
65.9477
65.8639
65.777
65.6871
65.5942
65.4984
65.3998
65.2985
65.1944
65.0878
64.9787
64.8673
64.7537
64.638
64.5205
64.4013
64.2806
64.1586
64.0355
63.9114
63.7867
63.6614
63.5358
63.4101
63.2844
63.159
63.034
62.9097
62.786
62.6633
62.5416
62.4211
62.3018
62.1839
62.0674
61.9525
61.8392
61.7275
61.6175
61.5092
61.4027
61.2979
61.1949
61.0936
60.9941
60.8963
60.8002
60.7058
60.613
60.5218
60.4323
60.3443
60.2578
60.1728
60.0893
60.0072
59.9265
59.8473
59.7694
59.6929
59.6178
59.5441
59.4718
59.4009
59.3315
59.2635
59.1971
59.1321
59.0688
59.0072
58.9472
58.8891
58.8328
58.7784
58.7261
58.6758
58.6276
58.5817
58.5382
58.4971
58.4584
58.4223
58.3889
58.3583
58.3304
58.3055
58.2835
58.2646
58.2487
58.236
58.2265
58.2203
58.2174
58.2179
58.2218
58.229
58.2398
58.254
58.2717
58.2929
58.3176
58.3458
58.3776
58.4128
58.4516
58.4938
58.5396
58.5887
58.6413
58.6973
58.7567
58.8194
58.8854
58.9546
59.027
59.1026
59.1813
59.263
59.3476
59.4352
59.5257
59.6189
59.7147
59.8132
59.9142
60.0176
60.1234
60.2314
60.3415
60.4536
60.5677
60.6835
60.8009
60.9199
61.0404
61.162
61.2849
61.4087
61.5334
61.6587
61.7847
61.9111
62.0377
62.1645
62.2913
62.418
62.5443
62.6702
62.7955
62.9202
63.044
63.1668
63.2886
63.4091
63.5284
63.6463
63.7626
63.8774
63.9905
64.1018
64.2112
64.3188
64.4244
64.528
64.6295
64.729
64.8262
64.9214
65.0143
65.105
65.1935
65.2798
65.3638
65.4456
65.5253
65.6027
65.6779
65.751
65.8219
65.8907
65.9574
66.0221
66.0847
66.1453
66.204
66.2608
66.3157
66.3688
66.4201
66.4696
66.5175
66.5637
66.6082
66.6513
66.6927
66.7327
66.7713
66.8085
66.8443
66.8788
66.9121
66.9442
66.9751
67.0048
67.0335
67.0611
67.0878
67.1134
67.1381
67.162
67.185
67.2071
67.2285
67.2491
67.2691
67.2883
67.3069
67.3247
67.3422
67.3584
67.3758
67.3882
67.412
67.2037
67.2018
67.198
67.1922
67.1844
67.1746
67.1629
67.1491
67.1334
67.1155
67.0955
67.0734
67.0492
67.0227
66.9939
66.9628
66.9294
66.8936
66.8553
66.8144
66.771
66.725
66.6762
66.6248
66.5704
66.5133
66.4532
66.3901
66.324
66.2549
66.1827
66.1074
66.0289
65.9473
65.8625
65.7747
65.6837
65.5896
65.4925
65.3924
65.2894
65.1837
65.0752
64.9642
64.8508
64.735
64.6172
64.4975
64.376
64.2529
64.1286
64.003
63.8766
63.7495
63.6219
63.494
63.366
63.2382
63.1107
62.9838
62.8575
62.7321
62.6077
62.4844
62.3625
62.2419
62.1228
62.0053
61.8894
61.7753
61.6629
61.5523
61.4435
61.3365
61.2314
61.1282
61.0267
60.9271
60.8292
60.7331
60.6387
60.546
60.455
60.3655
60.2776
60.1913
60.1064
60.0229
59.9409
59.8603
59.781
59.7031
59.6265
59.5513
59.4774
59.4048
59.3336
59.2638
59.1955
59.1285
59.0631
58.9992
58.937
58.8764
58.8176