/*--------------------------------*- C++ -*----------------------------------*\
| =========                 |                                                 |
| \\      /  F ield         | OpenFOAM: The Open Source CFD Toolbox           |
|  \\    /   O peration     | Version:  2306                                  |
|   \\  /    A nd           | Website:  www.openfoam.com                      |
|    \\/     M anipulation  |                                                 |
\*---------------------------------------------------------------------------*/
FoamFile
{
    version     2.0;
    format      ascii;
    arch        "LSB;label=32;scalar=64";
    class       volScalarField;
    location    "7.5";
    object      p;
}
// * * * * * * * * * * * * * * * * * * * * * * * * * * * * * * * * * * * * * //

dimensions      [0 2 -2 0 0 0 0];

internalField   nonuniform List<scalar> 
32768
(
0.265515
0.265381
0.265089
0.26463
0.264004
0.263213
0.262258
0.261136
0.259845
0.258384
0.256751
0.254943
0.252957
0.250793
0.248445
0.245913
0.243192
0.24028
0.237172
0.233867
0.23036
0.226648
0.222727
0.218594
0.214245
0.209677
0.204887
0.199872
0.194628
0.189153
0.183444
0.177499
0.171316
0.164893
0.15823
0.151326
0.14418
0.136793
0.129165
0.121299
0.113196
0.104858
0.0962898
0.0874949
0.0784779
0.0692445
0.0598005
0.050153
0.0403092
0.0302773
0.0200661
0.00968468
-0.000857054
-0.0115488
-0.02238
-0.0333394
-0.0444156
-0.0555971
-0.066872
-0.0782284
-0.0896543
-0.101138
-0.112667
-0.12423
-0.135815
-0.147412
-0.159008
-0.170594
-0.18216
-0.193695
-0.20519
-0.216636
-0.228025
-0.23935
-0.250601
-0.261774
-0.272861
-0.283855
-0.294753
-0.305548
-0.316236
-0.326811
-0.337271
-0.347612
-0.357828
-0.367918
-0.377878
-0.387704
-0.397393
-0.406941
-0.416347
-0.425605
-0.434713
-0.443668
-0.452464
-0.461098
-0.469566
-0.477863
-0.485984
-0.493925
-0.50168
-0.509243
-0.516608
-0.52377
-0.530722
-0.537457
-0.543969
-0.550251
-0.556295
-0.562095
-0.567644
-0.572934
-0.577958
-0.582709
-0.58718
-0.591365
-0.595255
-0.598846
-0.602131
-0.605104
-0.607759
-0.610092
-0.612097
-0.61377
-0.615108
-0.616107
-0.616765
-0.617079
-0.617047
-0.616669
-0.615944
-0.614871
-0.613452
-0.611688
-0.609581
-0.607134
-0.604348
-0.601229
-0.597781
-0.594007
-0.589915
-0.585509
-0.580797
-0.575785
-0.570481
-0.564894
-0.559031
-0.552903
-0.546517
-0.539885
-0.533016
-0.525922
-0.518612
-0.5111
-0.503395
-0.49551
-0.487458
-0.47925
-0.470899
-0.462417
-0.453818
-0.445114
-0.436318
-0.427442
-0.4185
-0.409505
-0.400468
-0.391403
-0.382322
-0.373236
-0.364158
-0.355099
-0.346071
-0.337084
-0.328148
-0.319275
-0.310474
-0.301754
-0.293124
-0.284592
-0.276166
-0.267853
-0.25966
-0.251595
-0.243661
-0.235865
-0.228211
-0.220704
-0.213347
-0.206144
-0.199096
-0.192208
-0.185479
-0.178912
-0.172507
-0.166266
-0.160187
-0.154271
-0.148518
-0.142926
-0.137493
-0.13222
-0.127103
-0.122141
-0.117332
-0.112672
-0.10816
-0.103793
-0.099568
-0.0954813
-0.0915303
-0.0877116
-0.084022
-0.080458
-0.0770161
-0.0736931
-0.0704852
-0.067389
-0.0644011
-0.0615178
-0.0587356
-0.0560512
-0.0534609
-0.0509613
-0.0485491
-0.0462208
-0.0439732
-0.0418029
-0.0397067
-0.0376815
-0.0357241
-0.0338315
-0.0320006
-0.0302284
-0.0285121
-0.0268487
-0.0252356
-0.02367
-0.0221491
-0.0206704
-0.0192312
-0.0178291
-0.0164616
-0.0151262
-0.0138206
-0.0125424
-0.0112894
-0.0100593
-0.00884974
-0.00765928
-0.00648371
-0.00532622
-0.00417154
-0.00305007
-0.00187507
-0.000828027
0.265677
0.265543
0.265252
0.264793
0.264167
0.263377
0.262423
0.261302
0.260012
0.258552
0.256919
0.255112
0.253128
0.250965
0.248619
0.246088
0.243368
0.240457
0.237351
0.234046
0.23054
0.226829
0.222908
0.218776
0.214427
0.209859
0.205069
0.200053
0.194808
0.189331
0.18362
0.177673
0.171487
0.165062
0.158395
0.151486
0.144335
0.136942
0.129309
0.121436
0.113325
0.104979
0.0964027
0.0875986
0.078572
0.0693284
0.0598738
0.0502152
0.0403599
0.0303162
0.0200928
0.00969905
-0.000855222
-0.0115597
-0.0224035
-0.0333755
-0.0444644
-0.0556583
-0.0669454
-0.0783136
-0.0897511
-0.101246
-0.112785
-0.124359
-0.135954
-0.147559
-0.159165
-0.170759
-0.182332
-0.193873
-0.205375
-0.216827
-0.228221
-0.23955
-0.250805
-0.261981
-0.27307
-0.284068
-0.294967
-0.305763
-0.316452
-0.327029
-0.33749
-0.34783
-0.358048
-0.368138
-0.378097
-0.387923
-0.397612
-0.407161
-0.416567
-0.425826
-0.434935
-0.44389
-0.452688
-0.461323
-0.469793
-0.478092
-0.486216
-0.494159
-0.501916
-0.509482
-0.516851
-0.524017
-0.530972
-0.537712
-0.544228
-0.550514
-0.556563
-0.562368
-0.567922
-0.573217
-0.578246
-0.583002
-0.587478
-0.591667
-0.595562
-0.599158
-0.602447
-0.605424
-0.608083
-0.61042
-0.612429
-0.614106
-0.615447
-0.616449
-0.617109
-0.617425
-0.617395
-0.617018
-0.616294
-0.615222
-0.613804
-0.61204
-0.609932
-0.607484
-0.604698
-0.601577
-0.598127
-0.594352
-0.590257
-0.585848
-0.581133
-0.576118
-0.57081
-0.565219
-0.559351
-0.553218
-0.546827
-0.54019
-0.533315
-0.526215
-0.518899
-0.51138
-0.503668
-0.495777
-0.487717
-0.479501
-0.471142
-0.462652
-0.454045
-0.445332
-0.436527
-0.427643
-0.418692
-0.409687
-0.400641
-0.391567
-0.382476
-0.37338
-0.364293
-0.355225
-0.346187
-0.33719
-0.328246
-0.319364
-0.310553
-0.301824
-0.293185
-0.284644
-0.27621
-0.267889
-0.259688
-0.251615
-0.243674
-0.235871
-0.22821
-0.220696
-0.213333
-0.206124
-0.199071
-0.192177
-0.185444
-0.178872
-0.172463
-0.166218
-0.160135
-0.154216
-0.14846
-0.142865
-0.137431
-0.132155
-0.127037
-0.122073
-0.117262
-0.112602
-0.108089
-0.103722
-0.099496
-0.0954093
-0.0914583
-0.0876398
-0.0839506
-0.0803871
-0.076946
-0.0736237
-0.0704168
-0.0673217
-0.0643349
-0.0614529
-0.0586721
-0.0559891
-0.0534002
-0.0509022
-0.0484916
-0.046165
-0.0439191
-0.0417506
-0.0396562
-0.0376328
-0.0356773
-0.0337865
-0.0319574
-0.0301871
-0.0284727
-0.0268112
-0.0252
-0.0236363
-0.0221173
-0.0206404
-0.0192032
-0.017803
-0.0164373
-0.0151038
-0.0138
-0.0125237
-0.0112725
-0.0100442
-0.00883644
-0.00764778
-0.00647392
-0.0053183
-0.00416492
-0.00304581
-0.00187021
-0.00083027
0.266001
0.265868
0.265577
0.265119
0.264494
0.263705
0.262752
0.261633
0.260345
0.258887
0.257257
0.255452
0.25347
0.251309
0.248966
0.246437
0.24372
0.240811
0.237708
0.234405
0.230901
0.227191
0.223272
0.21914
0.214792
0.210224
0.205433
0.200416
0.195169
0.189689
0.183975
0.178023
0.171832
0.165399
0.158725
0.151807
0.144646
0.137243
0.129597
0.12171
0.113584
0.105223
0.0966291
0.0878068
0.0787609
0.0694968
0.0600209
0.0503399
0.0404616
0.0303941
0.0201464
0.00972779
-0.000851653
-0.0115815
-0.0224508
-0.0334482
-0.0445623
-0.0557811
-0.0670927
-0.0784849
-0.0899456
-0.101463
-0.113024
-0.124618
-0.136233
-0.147857
-0.159479
-0.171089
-0.182677
-0.194232
-0.205746
-0.217209
-0.228613
-0.239951
-0.251214
-0.262396
-0.273491
-0.284493
-0.295396
-0.306196
-0.316887
-0.327465
-0.337927
-0.348269
-0.358487
-0.368577
-0.378537
-0.388363
-0.398053
-0.407602
-0.417009
-0.426269
-0.435379
-0.444336
-0.453136
-0.461774
-0.470247
-0.47855
-0.486679
-0.494627
-0.50239
-0.509963
-0.517338
-0.524511
-0.531474
-0.538222
-0.544747
-0.551042
-0.5571
-0.562915
-0.568478
-0.573783
-0.578822
-0.583588
-0.588074
-0.592273
-0.596178
-0.599782
-0.603081
-0.606066
-0.608734
-0.611078
-0.613094
-0.614778
-0.616125
-0.617132
-0.617798
-0.618118
-0.618092
-0.617718
-0.616996
-0.615926
-0.614508
-0.612744
-0.610636
-0.608187
-0.605398
-0.602275
-0.598821
-0.595042
-0.590942
-0.586528
-0.581806
-0.576784
-0.571469
-0.565869
-0.559993
-0.55385
-0.54745
-0.540801
-0.533915
-0.526803
-0.519475
-0.511942
-0.504217
-0.496311
-0.488236
-0.480005
-0.47163
-0.463124
-0.4545
-0.44577
-0.436948
-0.428045
-0.419076
-0.410053
-0.400989
-0.391895
-0.382785
-0.373671
-0.364564
-0.355477
-0.34642
-0.337404
-0.328441
-0.31954
-0.310712
-0.301964
-0.293308
-0.28475
-0.276298
-0.267961
-0.259745
-0.251656
-0.2437
-0.235882
-0.228208
-0.220681
-0.213306
-0.206085
-0.199021
-0.192116
-0.185373
-0.178792
-0.172375
-0.166121
-0.160032
-0.154107
-0.148344
-0.142744
-0.137305
-0.132025
-0.126903
-0.121937
-0.117124
-0.112461
-0.107947
-0.103578
-0.0993518
-0.0952648
-0.0913139
-0.0874959
-0.0838074
-0.0802451
-0.0768053
-0.0734847
-0.0702797
-0.0671868
-0.0642023
-0.0613229
-0.0585448
-0.0558646
-0.0532788
-0.0507839
-0.0483765
-0.0460533
-0.0438108
-0.0416458
-0.039555
-0.0375352
-0.0355833
-0.0336962
-0.0318709
-0.0301044
-0.0283937
-0.0267361
-0.0251286
-0.0235687
-0.0220535
-0.0205805
-0.019147
-0.0177505
-0.0163886
-0.0150588
-0.0137588
-0.0124861
-0.0112386
-0.010014
-0.00880978
-0.00762471
-0.00645438
-0.00530228
-0.00415232
-0.00303676
-0.00186453
-0.000829017
0.266487
0.266354
0.266064
0.265607
0.264984
0.264197
0.263246
0.262129
0.260844
0.259389
0.257762
0.255961
0.253983
0.251826
0.249487
0.246962
0.244249
0.241344
0.238243
0.234944
0.231443
0.227735
0.223818
0.219688
0.215341
0.210773
0.205981
0.200961
0.195711
0.190227
0.184507
0.178548
0.172349
0.165907
0.159221
0.15229
0.145114
0.137694
0.130029
0.122122
0.113975
0.105589
0.0969696
0.0881198
0.0790447
0.0697499
0.0602418
0.0505273
0.0406142
0.0305109
0.0202265
0.00977045
-0.00084693
-0.011615
-0.0225227
-0.0335585
-0.0447105
-0.0559669
-0.0673154
-0.0787436
-0.0902393
-0.10179
-0.113384
-0.125009
-0.136653
-0.148305
-0.159953
-0.171587
-0.183197
-0.194773
-0.206305
-0.217785
-0.229204
-0.240554
-0.251829
-0.263021
-0.274124
-0.285133
-0.296041
-0.306845
-0.31754
-0.328121
-0.338585
-0.348927
-0.359146
-0.369237
-0.379197
-0.389024
-0.398714
-0.408264
-0.417671
-0.426933
-0.436045
-0.445005
-0.453808
-0.462451
-0.470929
-0.479238
-0.487373
-0.495329
-0.503101
-0.510683
-0.518068
-0.525252
-0.532227
-0.538987
-0.545525
-0.551834
-0.557907
-0.563736
-0.569314
-0.574633
-0.579687
-0.584468
-0.588969
-0.593182
-0.597102
-0.600721
-0.604032
-0.607031
-0.609711
-0.612067
-0.614094
-0.615787
-0.617144
-0.61816
-0.618833
-0.619159
-0.619139
-0.618769
-0.61805
-0.616983
-0.615566
-0.613803
-0.611694
-0.609242
-0.606451
-0.603324
-0.599865
-0.596079
-0.591972
-0.587549
-0.582819
-0.577786
-0.57246
-0.566847
-0.560958
-0.554801
-0.548385
-0.54172
-0.534817
-0.527687
-0.520339
-0.512787
-0.505041
-0.497114
-0.489017
-0.480763
-0.472364
-0.463833
-0.455184
-0.446428
-0.43758
-0.428651
-0.419654
-0.410603
-0.401511
-0.392389
-0.38325
-0.374107
-0.364972
-0.355856
-0.34677
-0.337726
-0.328735
-0.319806
-0.31095
-0.302176
-0.293492
-0.284908
-0.276431
-0.268069
-0.259829
-0.251717
-0.243738
-0.2359
-0.228205
-0.220658
-0.213264
-0.206025
-0.198945
-0.192024
-0.185266
-0.178672
-0.172242
-0.165977
-0.159877
-0.153941
-0.14817
-0.142562
-0.137116
-0.13183
-0.126703
-0.121732
-0.116915
-0.112249
-0.107733
-0.103362
-0.099135
-0.0950476
-0.0910969
-0.0872796
-0.0835924
-0.0800317
-0.0765941
-0.073276
-0.0700739
-0.0669841
-0.0640032
-0.0611275
-0.0583535
-0.0556777
-0.0530964
-0.0506062
-0.0482037
-0.0458855
-0.0436482
-0.0414884
-0.039403
-0.0373887
-0.0354423
-0.0335608
-0.0317411
-0.0299802
-0.0282752
-0.0266233
-0.0250215
-0.0234673
-0.0219578
-0.0204904
-0.0190626
-0.0176718
-0.0163155
-0.0149913
-0.0136969
-0.0124298
-0.0111877
-0.00996856
-0.00876979
-0.00759009
-0.0064251
-0.00527828
-0.00413358
-0.00302324
-0.00185633
-0.000825812
0.267135
0.267002
0.266713
0.266258
0.265637
0.264852
0.263904
0.262791
0.26151
0.260059
0.258436
0.25664
0.254667
0.252515
0.250181
0.247661
0.244953
0.242053
0.238958
0.235663
0.232166
0.228462
0.224548
0.220419
0.216073
0.211505
0.206711
0.201689
0.196435
0.190946
0.185219
0.179251
0.17304
0.166585
0.159884
0.152936
0.14574
0.138297
0.130608
0.122674
0.114497
0.106079
0.0974252
0.0885386
0.0794244
0.0700884
0.0605371
0.0507776
0.0408179
0.0306665
0.0203328
0.00982654
-0.000841766
-0.0116612
-0.0226204
-0.0337076
-0.0449107
-0.0562174
-0.0676153
-0.0790918
-0.0906344
-0.10223
-0.113868
-0.125534
-0.137217
-0.148906
-0.160589
-0.172256
-0.183895
-0.195498
-0.207055
-0.218557
-0.229995
-0.241363
-0.252652
-0.263857
-0.274971
-0.285989
-0.296905
-0.307714
-0.318413
-0.328997
-0.339463
-0.349807
-0.360026
-0.370118
-0.380078
-0.389905
-0.399595
-0.409146
-0.418555
-0.427819
-0.436934
-0.445897
-0.454705
-0.463353
-0.471838
-0.480155
-0.488299
-0.496265
-0.504048
-0.511643
-0.519042
-0.526241
-0.533232
-0.540009
-0.546564
-0.552892
-0.558983
-0.564831
-0.570429
-0.575769
-0.580843
-0.585644
-0.590164
-0.594398
-0.598336
-0.601974
-0.605304
-0.60832
-0.611017
-0.613388
-0.61543
-0.617137
-0.618507
-0.619534
-0.620216
-0.620552
-0.620538
-0.620175
-0.619461
-0.618396
-0.616982
-0.615218
-0.613108
-0.610654
-0.607859
-0.604726
-0.60126
-0.597466
-0.593349
-0.588916
-0.584172
-0.579126
-0.573784
-0.568156
-0.562248
-0.556072
-0.549636
-0.542949
-0.536023
-0.528869
-0.521496
-0.513918
-0.506144
-0.498188
-0.490061
-0.481776
-0.473346
-0.464782
-0.456099
-0.447309
-0.438425
-0.42946
-0.420427
-0.411339
-0.402209
-0.39305
-0.383873
-0.374692
-0.365518
-0.356363
-0.347239
-0.338157
-0.329128
-0.320162
-0.311269
-0.302458
-0.293739
-0.28512
-0.276609
-0.268214
-0.259942
-0.251798
-0.24379
-0.235922
-0.2282
-0.220627
-0.213208
-0.205946
-0.198842
-0.191901
-0.185123
-0.178511
-0.172064
-0.165783
-0.159668
-0.15372
-0.147937
-0.142319
-0.136863
-0.131569
-0.126434
-0.121457
-0.116635
-0.111966
-0.107446
-0.103074
-0.0988452
-0.0947573
-0.0908069
-0.0869906
-0.0833049
-0.0797465
-0.0763117
-0.072997
-0.0697988
-0.0667134
-0.0637372
-0.0608667
-0.0580981
-0.055428
-0.0528528
-0.0503689
-0.047973
-0.0456615
-0.0434311
-0.0412784
-0.0392001
-0.0371931
-0.0352541
-0.03338
-0.0315678
-0.0298145
-0.0281171
-0.0264727
-0.0248786
-0.023332
-0.0218301
-0.0203703
-0.0189501
-0.0175668
-0.016218
-0.0149013
-0.0136143
-0.0123545
-0.0111198
-0.00990798
-0.00871643
-0.00754392
-0.00638604
-0.00524629
-0.00410861
-0.00300519
-0.00184531
-0.000821328
0.267944
0.267812
0.267524
0.26707
0.266451
0.26567
0.264726
0.263617
0.262341
0.260895
0.259279
0.257488
0.255522
0.253376
0.251049
0.248536
0.245835
0.242941
0.239852
0.236563
0.233071
0.229371
0.225461
0.221335
0.21699
0.212422
0.207627
0.202603
0.197344
0.191848
0.186112
0.180133
0.173908
0.167437
0.160716
0.153746
0.146526
0.139055
0.131335
0.123367
0.115153
0.106695
0.0979975
0.0890645
0.0799012
0.0705133
0.0609075
0.0510913
0.0410728
0.0308608
0.0204649
0.00989537
-0.00083715
-0.0117213
-0.0227455
-0.0338975
-0.0451649
-0.0565351
-0.0679952
-0.0795325
-0.091134
-0.102787
-0.114479
-0.126197
-0.13793
-0.149665
-0.161391
-0.173098
-0.184775
-0.196411
-0.207999
-0.219528
-0.230991
-0.24238
-0.253688
-0.264909
-0.276036
-0.287064
-0.297989
-0.308805
-0.319508
-0.330096
-0.340564
-0.35091
-0.361129
-0.371221
-0.381181
-0.391008
-0.400698
-0.41025
-0.41966
-0.428926
-0.438044
-0.447012
-0.455825
-0.46448
-0.472974
-0.4813
-0.489456
-0.497435
-0.505233
-0.512843
-0.52026
-0.527478
-0.534489
-0.541287
-0.547864
-0.554215
-0.56033
-0.566203
-0.571826
-0.577191
-0.58229
-0.587117
-0.591663
-0.595921
-0.599884
-0.603545
-0.606898
-0.609936
-0.612654
-0.615046
-0.617106
-0.618831
-0.620215
-0.621257
-0.621952
-0.622299
-0.622294
-0.621939
-0.62123
-0.62017
-0.618757
-0.616994
-0.614883
-0.612425
-0.609625
-0.606485
-0.60301
-0.599206
-0.595077
-0.59063
-0.585871
-0.580807
-0.575446
-0.569797
-0.563868
-0.557667
-0.551205
-0.544492
-0.537538
-0.530353
-0.522949
-0.515337
-0.507529
-0.499536
-0.491372
-0.483049
-0.474578
-0.465974
-0.457249
-0.448416
-0.439487
-0.430477
-0.421399
-0.412264
-0.403087
-0.39388
-0.384655
-0.375426
-0.366203
-0.357001
-0.347829
-0.338699
-0.329622
-0.320609
-0.311669
-0.302813
-0.294049
-0.285386
-0.276832
-0.268395
-0.260083
-0.2519
-0.243855
-0.235951
-0.228194
-0.220588
-0.213137
-0.205845
-0.198714
-0.191746
-0.184944
-0.178308
-0.17184
-0.165539
-0.159407
-0.153442
-0.147644
-0.142013
-0.136545
-0.131241
-0.126097
-0.121113
-0.116285
-0.11161
-0.107087
-0.102712
-0.0984816
-0.0943931
-0.0904431
-0.086628
-0.0829445
-0.0793889
-0.0759578
-0.0726473
-0.069454
-0.066374
-0.0634038
-0.0605397
-0.0577781
-0.0551152
-0.0525476
-0.0500717
-0.047684
-0.0453809
-0.0431592
-0.0410153
-0.0389461
-0.0369482
-0.0350184
-0.0331537
-0.0313509
-0.029607
-0.0279191
-0.0262843
-0.0246997
-0.0231626
-0.0216703
-0.02022
-0.0188092
-0.0174354
-0.016096
-0.0147887
-0.0135109
-0.0122604
-0.0110349
-0.00983217
-0.00864968
-0.00748615
-0.00633719
-0.00520627
-0.00407739
-0.00298257
-0.00183152
-0.000815682
0.268912
0.268781
0.268495
0.268043
0.267428
0.266651
0.265711
0.264607
0.263337
0.261898
0.260288
0.258506
0.256547
0.25441
0.25209
0.249586
0.246893
0.244007
0.240925
0.237644
0.234158
0.230464
0.226558
0.222436
0.218093
0.213526
0.20873
0.203702
0.198438
0.192934
0.187187
0.181195
0.174955
0.168464
0.161721
0.154725
0.147474
0.13997
0.132213
0.124204
0.115944
0.107438
0.0986882
0.0896992
0.0804763
0.0710256
0.061354
0.051469
0.0413791
0.0310937
0.0206225
0.00997607
-0.000834345
-0.0117971
-0.0229
-0.0341306
-0.0454759
-0.056923
-0.0684585
-0.0800694
-0.0917423
-0.103464
-0.115222
-0.127003
-0.138795
-0.150586
-0.162365
-0.17412
-0.185841
-0.197518
-0.209142
-0.220704
-0.232196
-0.24361
-0.25494
-0.266179
-0.277321
-0.288362
-0.299296
-0.31012
-0.320829
-0.33142
-0.34189
-0.352236
-0.362456
-0.372547
-0.382507
-0.392333
-0.402024
-0.411576
-0.420987
-0.430255
-0.439377
-0.44835
-0.457169
-0.465833
-0.474336
-0.482675
-0.490844
-0.498839
-0.506654
-0.514284
-0.521722
-0.528962
-0.535998
-0.542822
-0.549426
-0.555805
-0.561949
-0.567852
-0.573505
-0.578901
-0.584031
-0.588889
-0.593466
-0.597754
-0.601747
-0.605437
-0.608818
-0.611883
-0.614626
-0.617042
-0.619125
-0.620871
-0.622275
-0.623333
-0.624044
-0.624404
-0.624411
-0.624064
-0.623363
-0.622307
-0.620897
-0.619135
-0.617022
-0.61456
-0.611754
-0.608606
-0.605121
-0.601304
-0.59716
-0.592696
-0.587918
-0.582834
-0.577451
-0.571777
-0.56582
-0.559591
-0.553099
-0.546353
-0.539364
-0.532143
-0.5247
-0.517049
-0.509199
-0.501163
-0.492954
-0.484584
-0.476066
-0.467412
-0.458636
-0.449751
-0.440769
-0.431705
-0.422571
-0.41338
-0.404146
-0.394882
-0.385599
-0.376312
-0.367031
-0.35777
-0.34854
-0.339352
-0.330218
-0.321148
-0.312152
-0.30324
-0.294422
-0.285706
-0.277101
-0.268614
-0.260253
-0.252023
-0.243932
-0.235984
-0.228186
-0.22054
-0.213051
-0.205723
-0.198558
-0.191559
-0.184727
-0.178063
-0.171569
-0.165245
-0.159091
-0.153106
-0.147291
-0.141643
-0.136162
-0.130845
-0.125691
-0.120697
-0.115862
-0.111182
-0.106654
-0.102275
-0.0980433
-0.0939542
-0.0900046
-0.0861912
-0.0825103
-0.0789582
-0.0755315
-0.0722262
-0.0690388
-0.0659655
-0.0630025
-0.0601462
-0.0573929
-0.0547389
-0.0521805
-0.0497141
-0.0473363
-0.0450434
-0.0428321
-0.040699
-0.0386406
-0.0366537
-0.0347351
-0.0328816
-0.0310902
-0.0293577
-0.0276812
-0.0260579
-0.0244848
-0.0229591
-0.0214782
-0.0200394
-0.01864
-0.0172775
-0.0159494
-0.0146533
-0.0133867
-0.0121474
-0.0109329
-0.0097411
-0.00856949
-0.00741675
-0.00627851
-0.0051582
-0.00403988
-0.0029554
-0.00181497
-0.00080888
0.270041
0.26991
0.269626
0.269177
0.268565
0.267793
0.266859
0.265761
0.264498
0.263067
0.261466
0.259692
0.257742
0.255615
0.253305
0.250811
0.248127
0.245252
0.242179
0.238906
0.235428
0.231742
0.227842
0.223724
0.219384
0.214818
0.210021
0.204989
0.199719
0.194207
0.188448
0.182441
0.176182
0.169669
0.1629
0.155873
0.148588
0.141045
0.133244
0.125187
0.116875
0.108311
0.0994997
0.0904447
0.0811517
0.0716269
0.0618774
0.0519113
0.0417373
0.031365
0.0208047
0.0100676
-0.000834898
-0.0118904
-0.0230864
-0.0344098
-0.0458471
-0.0573849
-0.0690094
-0.080707
-0.0924639
-0.104267
-0.116102
-0.127957
-0.139819
-0.151675
-0.163515
-0.175326
-0.187099
-0.198823
-0.21049
-0.222089
-0.233615
-0.245058
-0.256412
-0.267672
-0.278832
-0.289886
-0.300831
-0.311662
-0.322377
-0.332971
-0.343443
-0.35379
-0.364009
-0.374099
-0.384058
-0.393883
-0.403572
-0.413124
-0.422537
-0.431807
-0.440932
-0.44991
-0.458738
-0.467411
-0.475926
-0.484278
-0.492464
-0.500477
-0.508313
-0.515965
-0.523429
-0.530696
-0.53776
-0.544614
-0.551251
-0.557663
-0.563842
-0.56978
-0.575469
-0.580902
-0.586069
-0.590963
-0.595576
-0.599901
-0.603929
-0.607654
-0.611068
-0.614165
-0.616938
-0.619382
-0.621492
-0.623262
-0.624689
-0.625768
-0.626497
-0.626872
-0.626893
-0.626557
-0.625864
-0.624814
-0.623408
-0.621646
-0.619531
-0.617065
-0.614251
-0.611093
-0.607596
-0.603765
-0.599604
-0.595121
-0.590321
-0.585212
-0.579802
-0.574099
-0.568111
-0.561848
-0.55532
-0.548536
-0.541507
-0.534243
-0.526757
-0.519058
-0.51116
-0.503073
-0.494812
-0.486387
-0.477813
-0.469101
-0.460266
-0.451319
-0.442275
-0.433147
-0.423948
-0.414692
-0.405391
-0.396059
-0.386708
-0.377352
-0.368003
-0.358674
-0.349375
-0.340119
-0.330917
-0.321781
-0.312719
-0.303743
-0.294861
-0.286083
-0.277417
-0.26887
-0.260451
-0.252167
-0.244022
-0.236023
-0.228175
-0.220483
-0.21295
-0.205579
-0.198375
-0.191338
-0.184471
-0.177774
-0.17125
-0.164899
-0.158719
-0.152712
-0.146875
-0.141209
-0.135711
-0.13038
-0.125214
-0.12021
-0.115365
-0.110678
-0.106145
-0.101763
-0.0975292
-0.0934394
-0.0894906
-0.0856791
-0.0820013
-0.0784535
-0.075032
-0.0717329
-0.0685525
-0.065487
-0.0625326
-0.0596856
-0.056942
-0.0542983
-0.0517508
-0.0492957
-0.0469295
-0.0446487
-0.0424496
-0.040329
-0.0382833
-0.0363093
-0.0344038
-0.0325635
-0.0307853
-0.0290662
-0.0274031
-0.0257932
-0.0242335
-0.0227213
-0.0212538
-0.0198283
-0.0184423
-0.017093
-0.0157782
-0.0144952
-0.0132417
-0.0120153
-0.0108137
-0.0096347
-0.0084758
-0.00733568
-0.00620995
-0.00510203
-0.00399606
-0.00292366
-0.00179562
-0.000800922
0.271328
0.271198
0.270916
0.27047
0.269863
0.269096
0.268168
0.267078
0.265823
0.264401
0.262809
0.261046
0.259108
0.256992
0.254694
0.252211
0.24954
0.246675
0.243614
0.240351
0.236883
0.233205
0.229312
0.2252
0.220864
0.2163
0.211502
0.206468
0.201191
0.195669
0.189898
0.183874
0.177594
0.171055
0.164256
0.157195
0.149871
0.142283
0.134432
0.126319
0.117947
0.109317
0.100435
0.0913035
0.0819293
0.0723188
0.0624793
0.0524191
0.0421475
0.0316745
0.021011
0.0101685
-0.000840666
-0.0120038
-0.0233077
-0.0347386
-0.0462826
-0.0579254
-0.0696529
-0.0814508
-0.0933048
-0.105201
-0.117126
-0.129066
-0.141008
-0.152939
-0.164849
-0.176725
-0.188557
-0.200335
-0.212049
-0.223692
-0.235254
-0.24673
-0.258112
-0.269394
-0.280573
-0.291642
-0.302598
-0.313437
-0.324157
-0.334754
-0.345227
-0.355573
-0.36579
-0.375878
-0.385834
-0.395656
-0.405344
-0.414895
-0.424308
-0.43358
-0.44271
-0.451694
-0.460529
-0.469213
-0.477741
-0.48611
-0.494314
-0.502348
-0.510208
-0.517887
-0.52538
-0.532678
-0.539776
-0.546666
-0.55334
-0.559791
-0.56601
-0.57199
-0.577721
-0.583196
-0.588406
-0.593343
-0.597998
-0.602365
-0.606434
-0.610198
-0.613651
-0.616785
-0.619594
-0.622071
-0.624212
-0.626011
-0.627464
-0.628567
-0.629317
-0.629711
-0.629747
-0.629423
-0.62874
-0.627697
-0.626294
-0.624533
-0.622415
-0.619944
-0.617123
-0.613954
-0.610443
-0.606595
-0.602415
-0.597909
-0.593084
-0.587947
-0.582506
-0.57677
-0.570747
-0.564445
-0.557876
-0.551048
-0.543973
-0.536661
-0.529123
-0.521371
-0.513417
-0.505272
-0.49695
-0.488463
-0.479824
-0.471046
-0.462142
-0.453125
-0.44401
-0.434808
-0.425535
-0.416202
-0.406825
-0.397415
-0.387986
-0.378552
-0.369124
-0.359715
-0.350337
-0.341003
-0.331724
-0.32251
-0.313372
-0.304321
-0.295365
-0.286515
-0.277779
-0.269165
-0.26068
-0.252331
-0.244125
-0.236067
-0.228162
-0.220416
-0.212831
-0.205413
-0.198162
-0.191082
-0.184175
-0.177441
-0.170883
-0.164499
-0.15829
-0.152256
-0.146396
-0.140709
-0.135192
-0.129844
-0.124664
-0.119648
-0.114794
-0.110099
-0.10556
-0.101174
-0.0969381
-0.0928477
-0.0888998
-0.0850907
-0.0814166
-0.0778737
-0.0744583
-0.0711664
-0.0679942
-0.0649378
-0.0619934
-0.0591569
-0.0564248
-0.053793
-0.051258
-0.0488159
-0.0464631
-0.044196
-0.0420111
-0.0399049
-0.0378739
-0.0359148
-0.0340242
-0.0321991
-0.0304361
-0.0287323
-0.0270846
-0.0254901
-0.0239458
-0.022449
-0.0209968
-0.0195867
-0.0182159
-0.0168819
-0.0155821
-0.0143142
-0.0130756
-0.0118641
-0.0106772
-0.00951292
-0.00836857
-0.00724287
-0.00613148
-0.00503774
-0.0039459
-0.00288732
-0.00177348
-0.000791801
0.272772
0.272643
0.272363
0.271921
0.271319
0.270558
0.269638
0.268556
0.267311
0.2659
0.26432
0.262568
0.260643
0.25854
0.256256
0.253787
0.251129
0.248278
0.24523
0.24198
0.238523
0.234856
0.230972
0.226867
0.222536
0.217974
0.213177
0.208139
0.202856
0.197324
0.191539
0.185497
0.179194
0.172627
0.165795
0.158695
0.151326
0.143688
0.135781
0.127605
0.119164
0.11046
0.101496
0.0922783
0.0828117
0.0731033
0.0631609
0.0529933
0.0426101
0.032022
0.0212404
0.0102775
-0.000853842
-0.0121401
-0.0235674
-0.0351213
-0.046787
-0.0585499
-0.0703949
-0.0823071
-0.0942718
-0.106274
-0.118301
-0.130337
-0.14237
-0.154387
-0.166375
-0.178324
-0.190222
-0.20206
-0.213828
-0.225518
-0.237122
-0.248633
-0.260045
-0.271352
-0.28255
-0.293634
-0.304601
-0.315448
-0.326172
-0.336771
-0.347243
-0.357587
-0.367802
-0.377885
-0.387837
-0.397656
-0.407341
-0.41689
-0.426302
-0.435576
-0.444709
-0.4537
-0.462544
-0.47124
-0.479783
-0.488169
-0.496394
-0.504453
-0.51234
-0.52005
-0.527575
-0.53491
-0.542046
-0.548977
-0.555694
-0.56219
-0.568455
-0.574482
-0.580262
-0.585786
-0.591045
-0.596031
-0.600736
-0.60515
-0.609266
-0.613077
-0.616573
-0.61975
-0.622599
-0.625114
-0.627291
-0.629123
-0.630606
-0.631736
-0.63251
-0.632925
-0.632978
-0.63267
-0.631997
-0.630962
-0.629563
-0.627803
-0.625683
-0.623207
-0.620376
-0.617195
-0.613668
-0.609801
-0.605599
-0.601068
-0.596214
-0.591046
-0.585571
-0.579797
-0.573733
-0.567389
-0.560773
-0.553896
-0.546769
-0.539402
-0.531806
-0.523994
-0.515976
-0.507766
-0.499376
-0.490819
-0.482107
-0.473253
-0.464272
-0.455175
-0.445978
-0.436694
-0.427336
-0.417918
-0.408453
-0.398955
-0.389437
-0.379913
-0.370395
-0.360897
-0.35143
-0.342006
-0.332638
-0.323337
-0.314113
-0.304976
-0.295938
-0.287006
-0.27819
-0.269498
-0.260938
-0.252516
-0.24424
-0.236115
-0.228146
-0.220339
-0.212696
-0.205222
-0.197919
-0.190791
-0.183838
-0.177062
-0.170464
-0.164045
-0.157803
-0.151739
-0.145852
-0.140141
-0.134603
-0.129237
-0.12404
-0.119011
-0.114146
-0.109443
-0.104897
-0.100507
-0.0962684
-0.0921775
-0.0882308
-0.0844245
-0.0807548
-0.0772177
-0.0738094
-0.0705258
-0.067363
-0.064317
-0.0613838
-0.0585595
-0.0558403
-0.0532222
-0.0507013
-0.048274
-0.0459365
-0.0436851
-0.0415162
-0.0394262
-0.0374118
-0.0354695
-0.033596
-0.031788
-0.0300423
-0.0283558
-0.0267255
-0.0251483
-0.0236214
-0.0221419
-0.0207071
-0.0193143
-0.0179607
-0.0166438
-0.0153611
-0.0141101
-0.0128884
-0.0116937
-0.0105235
-0.00937567
-0.00824772
-0.00713829
-0.00604304
-0.00496528
-0.00388937
-0.00284636
-0.00174853
-0.000781514
0.274372
0.274244
0.273967
0.273529
0.272933
0.272179
0.271268
0.270196
0.268961
0.267562
0.265995
0.264258
0.262347
0.26026
0.257991
0.255538
0.252896
0.250061
0.247028
0.243793
0.24035
0.236695
0.232822
0.228725
0.224401
0.219843
0.215047
0.210007
0.204718
0.199176
0.193376
0.187314
0.180986
0.174389
0.16752
0.160377
0.152959
0.145265
0.137294
0.129049
0.120531
0.111743
0.102688
0.0933725
0.0838017
0.0739829
0.0639242
0.0536351
0.0431257
0.0324073
0.021492
0.0103927
-0.000876978
-0.0123027
-0.0238696
-0.0355626
-0.0473661
-0.0592646
-0.0712422
-0.0832834
-0.0953727
-0.107495
-0.119636
-0.13178
-0.143915
-0.156026
-0.168103
-0.180132
-0.192104
-0.204008
-0.215835
-0.227577
-0.239226
-0.250775
-0.262219
-0.273552
-0.28477
-0.29587
-0.306848
-0.317701
-0.328428
-0.339027
-0.349497
-0.359837
-0.370046
-0.380123
-0.390069
-0.399882
-0.409562
-0.419108
-0.428519
-0.437794
-0.446931
-0.455927
-0.464781
-0.47349
-0.482049
-0.490455
-0.498704
-0.50679
-0.514709
-0.522452
-0.530016
-0.537391
-0.544571
-0.551549
-0.558315
-0.564861
-0.571179
-0.57726
-0.583095
-0.588675
-0.59399
-0.599032
-0.603792
-0.608261
-0.612431
-0.616294
-0.619841
-0.623065
-0.62596
-0.628519
-0.630735
-0.632605
-0.634122
-0.635283
-0.636084
-0.636523
-0.636596
-0.636304
-0.635644
-0.634617
-0.633224
-0.631465
-0.629343
-0.626859
-0.624018
-0.620824
-0.61728
-0.613391
-0.609165
-0.604605
-0.599721
-0.594517
-0.589004
-0.583188
-0.577079
-0.570686
-0.564019
-0.557087
-0.549902
-0.542473
-0.534814
-0.526934
-0.518846
-0.510563
-0.502097
-0.49346
-0.484667
-0.475729
-0.466661
-0.457476
-0.448188
-0.43881
-0.429357
-0.419843
-0.41028
-0.400683
-0.391066
-0.381442
-0.371823
-0.362224
-0.352656
-0.343133
-0.333665
-0.324265
-0.314944
-0.305712
-0.296579
-0.287555
-0.27865
-0.269871
-0.261226
-0.252723
-0.244368
-0.236168
-0.228127
-0.22025
-0.212542
-0.205006
-0.197646
-0.190462
-0.183458
-0.176635
-0.169994
-0.163534
-0.157255
-0.151158
-0.145241
-0.139503
-0.133941
-0.128555
-0.123341
-0.118297
-0.11342
-0.108707
-0.104155
-0.0997599
-0.0955187
-0.0914274
-0.0874822
-0.0836793
-0.0800146
-0.0764842
-0.0730839
-0.0698097
-0.0666575
-0.0636233
-0.0607029
-0.0578924
-0.0551877
-0.0525849
-0.0500801
-0.0476693
-0.0453489
-0.0431151
-0.0409642
-0.0388925
-0.0368967
-0.0349732
-0.0331187
-0.0313298
-0.0296034
-0.0279363
-0.0263253
-0.0247676
-0.0232601
-0.0218
-0.0203845
-0.0190109
-0.0176765
-0.0163788
-0.0151151
-0.013883
-0.0126801
-0.011504
-0.0103523
-0.00922289
-0.00811319
-0.00702187
-0.00594459
-0.00488462
-0.00382643
-0.00280075
-0.00172075
-0.000770053
0.276126
0.276
0.275726
0.275293
0.274703
0.273957
0.273056
0.271995
0.270773
0.269387
0.267835
0.266114
0.26422
0.26215
0.2599
0.257465
0.254842
0.252025
0.24901
0.245791
0.242364
0.238724
0.234864
0.230778
0.226463
0.22191
0.217116
0.212075
0.20678
0.201228
0.195412
0.18933
0.182975
0.176345
0.169436
0.162247
0.154775
0.147019
0.138979
0.130656
0.122053
0.113171
0.104015
0.09459
0.0849025
0.0749601
0.0647712
0.0543458
0.0436948
0.0328301
0.0217645
0.010512
-0.000913032
-0.0124953
-0.0242191
-0.0360682
-0.0480262
-0.0600766
-0.0722028
-0.0843883
-0.0966169
-0.108873
-0.12114
-0.133405
-0.145652
-0.157869
-0.170043
-0.182161
-0.194214
-0.20619
-0.218081
-0.229879
-0.241576
-0.253166
-0.264643
-0.276003
-0.287242
-0.298356
-0.309343
-0.320201
-0.330929
-0.341526
-0.351991
-0.362324
-0.372525
-0.382594
-0.392531
-0.402336
-0.41201
-0.421551
-0.430959
-0.440233
-0.449373
-0.458376
-0.46724
-0.475962
-0.484539
-0.492968
-0.501243