/*--------------------------------*- C++ -*----------------------------------*\
| =========                 |                                                 |
| \\      /  F ield         | OpenFOAM: The Open Source CFD Toolbox           |
|  \\    /   O peration     | Version:  2306                                  |
|   \\  /    A nd           | Website:  www.openfoam.com                      |
|    \\/     M anipulation  |                                                 |
\*---------------------------------------------------------------------------*/
FoamFile
{
    version     2.0;
    format      ascii;
    arch        "LSB;label=32;scalar=64";
    class       surfaceScalarField;
    location    "7.5";
    object      phi;
}
// * * * * * * * * * * * * * * * * * * * * * * * * * * * * * * * * * * * * * //

dimensions      [0 3 -1 0 0 0 0];

oriented        oriented;

internalField   nonuniform List<scalar> 
65152
(
0.00625051
-5.06582e-07
0.00625203
-1.52168e-06
0.00625457
-2.53743e-06
0.00625812
-3.55496e-06
0.0062627
-4.57596e-06
0.0062683
-5.60151e-06
0.00627493
-6.63234e-06
0.0062826
-7.66918e-06
0.00629131
-8.71285e-06
0.00630108
-9.76413e-06
0.0063119
-1.08237e-05
0.00632379
-1.18923e-05
0.00633676
-1.29703e-05
0.00635082
-1.40582e-05
0.00636598
-1.51565e-05
0.00638224
-1.62653e-05
0.00639963
-1.73847e-05
0.00641814
-1.85148e-05
0.0064378
-1.96556e-05
0.0064586
-2.08066e-05
0.00648057
-2.19675e-05
0.00650371
-2.31378e-05
0.00652803
-2.43167e-05
0.00655353
-2.55033e-05
0.00658023
-2.66965e-05
0.00660812
-2.78952e-05
0.00663722
-2.90978e-05
0.00666752
-3.03028e-05
0.00669903
-3.15084e-05
0.00673174
-3.27126e-05
0.00676566
-3.39132e-05
0.00680076
-3.5108e-05
0.00683706
-3.62944e-05
0.00687453
-3.74697e-05
0.00691316
-3.86314e-05
0.00695294
-3.97763e-05
0.00699384
-4.09016e-05
0.00703584
-4.20041e-05
0.00707892
-4.30808e-05
0.00712305
-4.41284e-05
0.00716819
-4.51437e-05
0.00721432
-4.61237e-05
0.00726138
-4.70651e-05
0.00730935
-4.79651e-05
0.00735817
-4.88205e-05
0.0074078
-4.96288e-05
0.00745819
-5.03873e-05
0.00750928
-5.10936e-05
0.00756102
-5.17456e-05
0.00761337
-5.23414e-05
0.00766625
-5.28793e-05
0.0077196
-5.3358e-05
0.00777338
-5.37766e-05
0.00782751
-5.41342e-05
0.00788194
-5.44306e-05
0.00793661
-5.46657e-05
0.00799145
-5.48398e-05
0.0080464
-5.49534e-05
0.00810141
-5.50075e-05
0.00815641
-5.50032e-05
0.00821136
-5.49421e-05
0.00826618
-5.48258e-05
0.00832084
-5.46564e-05
0.00837527
-5.44359e-05
0.00842944
-5.41668e-05
0.00848329
-5.38514e-05
0.00853679
-5.34925e-05
0.00858988
-5.30926e-05
0.00864253
-5.26546e-05
0.00869471
-5.21812e-05
0.00874639
-5.16751e-05
0.00879753
-5.11392e-05
0.0088481
-5.0576e-05
0.00889809
-4.99882e-05
0.00894747
-4.93783e-05
0.00899622
-4.87485e-05
0.00904432
-4.81012e-05
0.00909176
-4.74383e-05
0.00913852
-4.67618e-05
0.00918459
-4.60732e-05
0.00922997
-4.5374e-05
0.00927463
-4.46656e-05
0.00931858
-4.39488e-05
0.00936181
-4.32247e-05
0.0094043
-4.24937e-05
0.00944606
-4.17562e-05
0.00948707
-4.10126e-05
0.00952733
-4.02627e-05
0.00956684
-3.95063e-05
0.00960558
-3.87431e-05
0.00964355
-3.79725e-05
0.00968075
-3.71939e-05
0.00971715
-3.64063e-05
0.00975276
-3.5609e-05
0.00978756
-3.48007e-05
0.00982154
-3.39804e-05
0.00985469
-3.31468e-05
0.00988699
-3.22988e-05
0.00991842
-3.1435e-05
0.00994898
-3.05542e-05
0.00997863
-2.96552e-05
0.0100074
-2.87366e-05
0.0100352
-2.77973e-05
0.010062
-2.68361e-05
0.0100879
-2.58521e-05
0.0101127
-2.48442e-05
0.0101365
-2.38116e-05
0.0101593
-2.27535e-05
0.0101809
-2.16693e-05
0.0102015
-2.05585e-05
0.0102209
-1.94208e-05
0.0102392
-1.82559e-05
0.0102562
-1.70637e-05
0.0102721
-1.58443e-05
0.0102867
-1.45979e-05
0.0103
-1.33249e-05
0.010312
-1.20257e-05
0.0103227
-1.0701e-05
0.0103321
-9.35149e-06
0.0103401
-7.97816e-06
0.0103466
-6.58197e-06
0.0103518
-5.16406e-06
0.0103555
-3.72566e-06
0.0103578
-2.26811e-06
0.0103586
-7.92855e-07
0.0103579
6.98653e-07
0.0103557
2.20475e-06
0.010352
3.72383e-06
0.0103467
5.25416e-06
0.0103399
6.79399e-06
0.0103316
8.34149e-06
0.0103217
9.89482e-06
0.0103102
1.14521e-05
0.0102972
1.30115e-05
0.0102826
1.45709e-05
0.0102665
1.61286e-05
0.0102488
1.76825e-05
0.0102296
1.92307e-05
0.0102088
2.07713e-05
0.0101865
2.23022e-05
0.0101627
2.38215e-05
0.0101374
2.53274e-05
0.0101106
2.68177e-05
0.0100823
2.82906e-05
0.0100525
2.97442e-05
0.0100213
3.11765e-05
0.00998876
3.25857e-05
0.00995479
3.39697e-05
0.00991947
3.53268e-05
0.00988281
3.66551e-05
0.00984486
3.79526e-05
0.00980564
3.92177e-05
0.00976519
4.04484e-05
0.00972355
4.1643e-05
0.00968075
4.27997e-05
0.00963683
4.39168e-05
0.00959184
4.49927e-05
0.00954582
4.60258e-05
0.0094988
4.70143e-05
0.00945084
4.79569e-05
0.00940199
4.88521e-05
0.00935229
4.96985e-05
0.0093018
5.04949e-05
0.00925056
5.12399e-05
0.00919863
5.19326e-05
0.00914605
5.25719e-05
0.0090929
5.3157e-05
0.00903921
5.3687e-05
0.00898505
5.41614e-05
0.00893047
5.45796e-05
0.00887553
5.49412e-05
0.00882028
5.5246e-05
0.00876479
5.5494e-05
0.0087091
5.56851e-05
0.00865328
5.58197e-05
0.00859739
5.5898e-05
0.00854147
5.59205e-05
0.00848558
5.5888e-05
0.00842978
5.58013e-05
0.00837411
5.56612e-05
0.00831865
5.54689e-05
0.00826342
5.52256e-05
0.00820849
5.49327e-05
0.0081539
5.45917e-05
0.00809969
5.4204e-05
0.00804592
5.37715e-05
0.00799262
5.32959e-05
0.00793985
5.27791e-05
0.00788762
5.22231e-05
0.00783599
5.16298e-05
0.00778499
5.10013e-05
0.00773465
5.03398e-05
0.007685
4.96474e-05
0.00763608
4.89262e-05
0.0075879
4.81785e-05
0.00754049
4.74065e-05
0.00749388
4.66123e-05
0.00744808
4.57982e-05
0.00740312
4.49662e-05
0.007359
4.41184e-05
0.00731574
4.32571e-05
0.00727336
4.23841e-05
0.00723185
4.15014e-05
0.00719124
4.06111e-05
0.00715153
3.97149e-05
0.00711271
3.88146e-05
0.0070748
3.79119e-05
0.00703779
3.70085e-05
0.00700169
3.6106e-05
0.00696648
3.52058e-05
0.00693217
3.43093e-05
0.00689875
3.34179e-05
0.00686622
3.25328e-05
0.00683457
3.16552e-05
0.00680378
3.07862e-05
0.00677385
2.99267e-05
0.00674478
2.90778e-05
0.00671654
2.82402e-05
0.00668912
2.74149e-05
0.00666252
2.66025e-05
0.00663672
2.58036e-05
0.0066117
2.5019e-05
0.00658745
2.42492e-05
0.00656395
2.34945e-05
0.0065412
2.27556e-05
0.00651916
2.20328e-05
0.00649784
2.13264e-05
0.0064772
2.06367e-05
0.00645724
1.9964e-05
0.00643793
1.93085e-05
0.00641926
1.86704e-05
0.00640121
1.80498e-05
0.00638376
1.74469e-05
0.0063669
1.68616e-05
0.00635061
1.6294e-05
0.00633486
1.57442e-05
0.00631965
1.52119e-05
0.00630495
1.46973e-05
0.00629075
1.42001e-05
0.00627703
1.37202e-05
0.00626377
1.32573e-05
0.00625096
1.28113e-05
0.00623858
1.23816e-05
0.00622661
1.19681e-05
0.00621504
1.157e-05
0.00620386
1.11868e-05
0.00619304
1.08176e-05
0.00618258
1.04616e-05
0.00617246
1.01175e-05
0.00616268
9.78407e-06
0.00615322
9.45992e-06
0.00614407
9.14197e-06
0.00613524
8.83336e-06
0.00612673
8.51325e-06
0.00611849
8.24087e-06
7.81879e-06
0.00625051
-1.01366e-06
0.00625203
-3.04151e-06
0.00625456
-5.07195e-06
0.00625811
-7.10694e-06
0.00626269
-9.14857e-06
0.00626828
-1.11989e-05
0.00627491
-1.32598e-05
0.00628257
-1.53328e-05
0.00629128
-1.74195e-05
0.00630104
-1.95216e-05
0.00631186
-2.16403e-05
0.00632374
-2.3777e-05
0.0063367
-2.59328e-05
0.00635075
-2.81085e-05
0.0063659
-3.03049e-05
0.00638216
-3.25225e-05
0.00639954
-3.47616e-05
0.00641804
-3.70221e-05
0.00643769
-3.9304e-05
0.00645849
-4.16066e-05
0.00648045
-4.39292e-05
0.00650359
-4.62707e-05
0.0065279
-4.86295e-05
0.0065534
-5.1004e-05
0.00658009
-5.3392e-05
0.00660799
-5.57909e-05
0.00663709
-5.8198e-05
0.0066674
-6.061e-05
0.00669891
-6.30233e-05
0.00673163
-6.5434e-05
0.00676556
-6.78377e-05
0.00680068
-7.02299e-05
0.00683699
-7.26055e-05
0.00687448
-7.49592e-05
0.00691314
-7.72855e-05
0.00695294
-7.95786e-05
0.00699387
-8.18324e-05
0.0070359
-8.40408e-05
0.00707902
-8.61974e-05
0.00712319
-8.8296e-05
0.00716838
-9.033e-05
0.00721454
-9.22931e-05
0.00726166
-9.41792e-05
0.00730968
-9.5982e-05
0.00735855
-9.76959e-05
0.00740824
-9.93151e-05
0.00745868
-0.000100835
0.00750984
-0.000102249
0.00756165
-0.000103555
0.00761406
-0.000104749
0.007667
-0.000105826
0.00772043
-0.000106784
0.00777428
-0.000107622
0.00782848
-0.000108338
0.00788298
-0.000108931
0.00793772
-0.000109401
0.00799262
-0.000109748
0.00804765
-0.000109975
0.00810272
-0.000110082
0.00815779
-0.000110072
0.00821279
-0.000109948
0.00826768
-0.000109713
0.0083224
-0.000109372
0.00837689
-0.000108929
0.00843111
-0.000108388
0.00848502
-0.000107755
0.00853856
-0.000107034
0.0085917
-0.000106232
0.00864439
-0.000105353
0.00869662
-0.000104403
0.00874833
-0.000103388
0.0087995
-0.000102314
0.00885011
-0.000101185
0.00890013
-0.000100006
0.00894954
-9.87841e-05
0.00899831
-9.75223e-05
0.00904643
-9.62255e-05
0.00909389
-9.48978e-05
0.00914067
-9.35428e-05
0.00918677
-9.21641e-05
0.00923216
-9.07644e-05
0.00927684
-8.93463e-05
0.0093208
-8.79119e-05
0.00936404
-8.64628e-05
0.00940654
-8.50003e-05
0.00944831
-8.35251e-05
0.00948934
-8.20376e-05
0.00952961
-8.05378e-05
0.00956913
-7.90253e-05
0.00960789
-7.74993e-05
0.00964588
-7.59588e-05
0.00968308
-7.44022e-05
0.00971951
-7.28279e-05
0.00975513
-7.1234e-05
0.00978995
-6.96184e-05
0.00982395
-6.79788e-05
0.00985711
-6.63128e-05
0.00988943
-6.46179e-05
0.00992089
-6.28914e-05
0.00995146
-6.1131e-05
0.00998114
-5.93339e-05
0.0100099
-5.74977e-05
0.0100377
-5.562e-05
0.0100646
-5.36986e-05
0.0100905
-5.17313e-05
0.0101153
-4.97162e-05
0.0101392
-4.76515e-05
0.010162
-4.55358e-05
0.0101837
-4.33677e-05
0.0102042
-4.11463e-05
0.0102237
-3.88708e-05
0.010242
-3.65409e-05
0.0102591
-3.41562e-05
0.0102749
-3.1717e-05
0.0102896
-2.92236e-05
0.0103029
-2.66768e-05
0.010315
-2.40776e-05
0.0103257
-2.14272e-05
0.0103351
-1.87271e-05
0.0103431
-1.59792e-05
0.0103497
-1.31854e-05
0.0103549
-1.03481e-05
0.0103586
-7.4697e-06
0.0103609
-4.5529e-06
0.0103617
-1.60056e-06
0.010361
1.38426e-06
0.0103588
4.39839e-06
0.0103551
7.43854e-06
0.0103499
1.05013e-05
0.0103431
1.3583e-05
0.0103347
1.66801e-05
0.0103248
1.9789e-05
0.0103134
2.29057e-05
0.0103004
2.60266e-05
0.0102858
2.91478e-05
0.0102697
3.22653e-05
0.010252
3.53754e-05
0.0102327
3.84741e-05
0.0102119
4.15574e-05
0.0101896
4.46215e-05
0.0101658
4.76624e-05
0.0101404
5.06763e-05
0.0101136
5.36592e-05
0.0100853
5.66073e-05
0.0100555
5.95166e-05
0.0100243
6.23834e-05
0.00999167
6.52039e-05
0.00995767
6.79741e-05
0.00992231
7.06904e-05
0.00988561
7.3349e-05
0.00984762
7.59462e-05
0.00980836
7.84784e-05
0.00976786
8.09418e-05
0.00972617
8.33329e-05
0.00968333
8.56483e-05
0.00963936
8.78845e-05
0.00959431
9.00381e-05
0.00954823
9.21059e-05
0.00950116
9.40847e-05
0.00945315
9.59715e-05
0.00940424
9.77634e-05
0.00935448
9.94577e-05
0.00930392
0.000101052
0.00925262
0.000102543
0.00920062
0.00010393
0.00914798
0.000105209
0.00909476
0.00010638
0.00904101
0.000107441
0.00898678
0.00010839
0.00893213
0.000109227
0.00887712
0.000109951
0.0088218
0.000110561
0.00876624
0.000111056
0.00871049
0.000111439
0.0086546
0.000111707
0.00859864
0.000111863
0.00854265
0.000111908
0.00848669
0.000111842
0.00843083
0.000111668
0.0083751
0.000111386
0.00831957
0.000111
0.00826428
0.000110513
0.00820929
0.000109925
0.00815464
0.000109241
0.00810038
0.000108464
0.00804656
0.000107598
0.00799321
0.000106644
0.00794038
0.000105609
0.00788811
0.000104494
0.00783643
0.000103306
0.00778539
0.000102047
0.007735
0.000100721
0.00768532
9.93341e-05
0.00763635
9.78894e-05
0.00758814
9.63917e-05
0.0075407
9.48454e-05
0.00749406
9.32547e-05
0.00744823
9.1624e-05
0.00740324
8.99577e-05
0.0073591
8.826e-05
0.00731582
8.65351e-05
0.00727342
8.4787e-05
0.0072319
8.30196e-05
0.00719128
8.12369e-05
0.00715155
7.94425e-05
0.00711272
7.764e-05
0.0070748
7.58328e-05
0.00703779
7.40243e-05
0.00700167
7.22176e-05
0.00696646
7.04156e-05
0.00693215
6.86212e-05
0.00689873
6.68369e-05
0.0068662
6.50654e-05
0.00683455
6.33089e-05
0.00680376
6.15697e-05
0.00677384
5.98497e-05
0.00674477
5.81508e-05
0.00671653
5.64748e-05
0.00668913
5.48232e-05
0.00666253
5.31976e-05
0.00663673
5.15992e-05
0.00661172
5.00294e-05
0.00658748
4.8489e-05
0.006564
4.69793e-05
0.00654125
4.5501e-05
0.00651923
4.40549e-05
0.00649792
4.26417e-05
0.00647729
4.12621e-05
0.00645734
3.99165e-05
0.00643804
3.86053e-05
0.00641938
3.73289e-05
0.00640135
3.60876e-05
0.00638391
3.48816e-05
0.00636706
3.3711e-05
0.00635078
3.25758e-05
0.00633505
3.14761e-05
0.00631985
3.04117e-05
0.00630516
2.93824e-05
0.00629097
2.83881e-05
0.00627727
2.74283e-05
0.00626402
2.65027e-05
0.00625122
2.56107e-05
0.00623885
2.47516e-05
0.0062269
2.39246e-05
0.00621534
2.31286e-05
0.00620416
2.23623e-05
0.00619335
2.16242e-05
0.0061829
2.09123e-05
0.0061728
2.02245e-05
0.00616302
1.95575e-05
0.00615357
1.89104e-05
0.00614444
1.82728e-05
0.00613561
1.76619e-05
0.00612711
1.70128e-05
0.00611885
1.65004e-05
1.56047e-05
0.00625051
-1.5194e-06
0.00625202
-4.559e-06
0.00625455
-7.60255e-06
0.0062581
-1.06532e-05
0.00626267
-1.37139e-05
0.00626825
-1.67876e-05
0.00627487
-1.98772e-05
0.00628252
-2.2985e-05
0.00629122
-2.61137e-05
0.00630096
-2.92654e-05
0.00631176
-3.24424e-05
0.00632363
-3.56465e-05
0.00633658
-3.88795e-05
0.00635061
-4.21426e-05
0.00636575
-4.5437e-05
0.00638199
-4.87635e-05
0.00639935
-5.21225e-05
0.00641784
-5.55141e-05
0.00643747
-5.8938e-05
0.00645826
-6.23935e-05
0.00648021
-6.58792e-05
0.00650333
-6.93937e-05
0.00652764
-7.29347e-05
0.00655313
-7.64995e-05
0.00657983
-8.0085e-05
0.00660772
-8.36875e-05
0.00663683
-8.73026e-05
0.00666714
-9.09256e-05
0.00669867
-9.4551e-05
0.00673141
-9.81729e-05
0.00676536
-0.000101785
0.00680051
-0.00010538
0.00683685
-0.00010895
0.00687438
-0.000112488
0.00691308
-0.000115985
0.00695294
-0.000119433
0.00699393
-0.000122822
0.00703603
-0.000126143
0.00707922
-0.000129386
0.00712346
-0.000132542
0.00716873
-0.000135601
0.00721499
-0.000138554
0.00726221
-0.000141391
0.00731033
-0.000144103
0.00735931
-0.000146681
0.00740911
-0.000149117
0.00745968
-0.000151402
0.00751096
-0.00015353
0.0075629
-0.000155494
0.00761544
-0.000157288
0.00766852
-0.000158908
0.00772209
-0.000160348
0.00777607
-0.000161607
0.00783041
-0.000162681
0.00788505
-0.000163571
0.00793993
-0.000164275
0.00799497
-0.000164795
0.00805013
-0.000165132
0.00810534
-0.00016529
0.00816054
-0.000165271
0.00821567
-0.000165081
0.00827068
-0.000164724
0.00832552
-0.000164207
0.00838013
-0.000163536
0.00843446
-0.000162719
0.00848846
-0.000161762
0.0085421
-0.000160674
0.00859534
-0.000159463
0.00864812
-0.000158138
0.00870042
-0.000156706
0.00875221
-0.000155177
0.00880346
-0.000153558
0.00885413
-0.000151858
0.00890421
-0.000150084
0.00895367
-0.000148245
0.00900249
-0.000146346
0.00905066
-0.000144396
0.00909816
-0.000142399
0.00914498
-0.000140362
0.00919111
-0.00013829
0.00923653
-0.000136187
0.00928124
-0.000134057
0.00932523
-0.000131903
0.0093685
-0.000129728
0.00941103
-0.000127533
0.00945283
-0.000125319
0.00949388
-0.000123087
0.00953418
-0.000120838
0.00957372
-0.00011857
0.0096125
-0.000116282
0.00965052
-0.000113972
0.00968775
-0.000111639
0.0097242
-0.00010928
0.00975986
-0.000106891
0.00979471
-0.00010447
0.00982875
-0.000102013
0.00986195
-9.95172e-05
0.00989431
-9.69775e-05
0.00992581
-9.43907e-05
0.00995643
-9.17527e-05
0.00998616
-8.90597e-05
0.010015
-8.6308e-05
0.0100428
-8.34939e-05
0.0100698
-8.0614e-05
0.0100957
-7.7665e-05
0.0101206
-7.4644e-05
0.0101445
-7.15483e-05
0.0101674
-6.83758e-05
0.0101891
-6.51245e-05
0.0102098
-6.17928e-05
0.0102293
-5.83796e-05
0.0102476
-5.48843e-05
0.0102648
-5.13066e-05
0.0102807
-4.76467e-05
0.0102954
-4.39052e-05
0.0103088
-4.00832e-05
0.0103209
-3.61821e-05
0.0103317
-3.2204e-05
0.0103411
-2.8151e-05
0.0103491
-2.40259e-05
0.0103558
-1.98318e-05
0.010361
-1.55721e-05
0.0103648
-1.12505e-05
0.0103671
-6.87107e-06
0.0103679
-2.43802e-06
0.0103673
2.04378e-06
0.0103651
6.56983e-06
0.0103614
1.1135e-05
0.0103562
1.57342e-05
0.0103494
2.03621e-05
0.0103411
2.50131e-05
0.0103312
2.96818e-05
0.0103197
3.43624e-05
0.0103067
3.90492e-05
0.0102921
4.37366e-05
0.010276
4.84185e-05
0.0102582
5.30892e-05
0.010239
5.77428e-05
0.0102182
6.23734e-05
0.0101958
6.69751e-05
0.0101719
7.15421e-05
0.0101465
7.60685e-05
0.0101196
8.05484e-05
0.0100913
8.4976e-05
0.0100614
8.93455e-05
0.0100302
9.36512e-05
0.00999749
9.78872e-05
0.00996342
0.000102048
0.00992798
0.000106128
0.00989121
0.000110121
0.00985313
0.000114022
0.00981379
0.000117825
0.0097732
0.000121525
0.00973142
0.000125117
0.00968847
0.000128595
0.0096444
0.000131954
0.00959925
0.000135189
0.00955306
0.000138295
0.00950588
0.000141267
0.00945775
0.000144102
0.00940872
0.000146793
0.00935884
0.000149338
0.00930816
0.000151733
0.00925673
0.000153973
0.0092046
0.000156055
0.00915183
0.000157977
0.00909848
0.000159736
0.00904459
0.000161329
0.00899023
0.000162755
0.00893544
0.000164011
0.0088803
0.000165097
0.00882484
0.000166012
0.00876914
0.000166756
0.00871325
0.000167329
0.00865723
0.000167731
0.00860113
0.000167964
0.00854501
0.000168029
0.00848892
0.000167928
0.00843293
0.000167664
0.00837707
0.000167239
0.00832142
0.000166657
0.00826601
0.000165922
0.0082109
0.000165037
0.00815613
0.000164007
0.00810176
0.000162837
0.00804782
0.000161532
0.00799437
0.000160098
0.00794144
0.000158539
0.00788907
0.000156862
0.0078373
0.000155074
0.00778617
0.000153179
0.00773571
0.000151186
0.00768594
0.000149099
0.0076369
0.000146927
0.00758862
0.000144674
0.00754112
0.000142349
0.00749442
0.000139957
0.00744853
0.000137505
0.00740349
0.000135
0.0073593
0.000132448
0.00731598
0.000129855
0.00727354
0.000127227
0.00723199
0.000124571
0.00719134
0.000121892
0.00715158
0.000119195
0.00711274
0.000116487
0.0070748
0.000113772
0.00703777
0.000111055
0.00700165
0.00010834
0.00696643
0.000105633
0.00693211
0.000102938
0.00689869
0.000100258
0.00686616
9.75974e-05
0.00683451
9.49596e-05
0.00680373
9.23478e-05
0.00677381
8.9765e-05
0.00674475
8.72142e-05
0.00671653
8.46979e-05
0.00668913
8.22184e-05
0.00666255
7.9778e-05
0.00663677
7.73787e-05
0.00661178
7.50222e-05
0.00658756
7.27103e-05
0.00656409
7.04444e-05
0.00654137
6.82258e-05
0.00651937
6.60557e-05
0.00649807
6.3935e-05
0.00647747
6.18648e-05
0.00645754
5.98458e-05
0.00643827
5.78785e-05
0.00641963
5.59635e-05
0.00640162
5.41013e-05
0.00638421
5.22921e-05
0.00636738
5.0536e-05
0.00635113
4.88332e-05
0.00633542
4.71835e-05
0.00632024
4.5587e-05
0.00630558
4.40432e-05
0.00629142
4.25519e-05
0.00627774
4.11124e-05
0.00626451
3.97242e-05
0.00625174
3.83865e-05
0.00623939
3.70982e-05
0.00622746
3.5858e-05
0.00621592
3.46644e-05
0.00620477
3.35154e-05
0.00619399
3.24087e-05
0.00618356
3.13413e-05
0.00617347
3.03102e-05
0.00616372
2.93101e-05
0.00615429
2.83404e-05
0.00614518
2.73844e-05
0.00613637
2.64705e-05
0.00612788
2.54956e-05
0.00611965
2.47319e-05
2.33833e-05
0.0062505
-2.02389e-06
0.00625202
-6.07282e-06
0.00625454
-1.0127e-05
0.00625808
-1.41908e-05
0.00626263
-1.82683e-05
0.00626821
-2.23632e-05
0.00627481
-2.64793e-05
0.00628245
-3.06201e-05
0.00629112
-3.47888e-05
0.00630085
-3.89887e-05
0.00631163
-4.32225e-05
0.00632347
-4.7493e-05
0.0063364
-5.18022e-05
0.0063504
-5.61521e-05
0.00636551
-6.05443e-05
0.00638173
-6.49798e-05
0.00639907
-6.94592e-05
0.00641753
-7.39828e-05
0.00643715
-7.855e-05
0.00645791
-8.316e-05
0.00647984
-8.78112e-05
0.00650295
-9.25014e-05
0.00652724
-9.72277e-05
0.00655273
-0.000101987
0.00657942
-0.000106774
0.00660732
-0.000111585
0.00663643
-0.000116414
0.00666676
-0.000121253
0.0066983
-0.000126097
0.00673107
-0.000130938
0.00676505
-0.000135765
0.00680024
-0.000140571
0.00683663
-0.000145345
0.00687422
-0.000150076
0.00691299
-0.000154753
0.00695292
-0.000159365
0.006994
-0.000163899
0.0070362
-0.000168342
0.00707949
-0.000172682
0.00712386
-0.000176906
0.00716926
-0.000181
0.00721566
-0.000184953
0.00726302
-0.00018875
0.00731129
-0.000192381
0.00736044
-0.000195831
0.00741042
-0.000199092
0.00746117
-0.000202151
0.00751264
-0.000204999
0.00756477
-0.000207626
0.00761751
-0.000210027
0.00767079
-0.000212192
0.00772456
-0.000214118
0.00777875
-0.0002158
0.00783331
-0.000217235
0.00788816
-0.000218421
0.00794324
-0.000219359
0.0079985
-0.00022005
0.00805386
-0.000220495
0.00810927
-0.000220699
0.00816467
-0.000220668
0.00821999
-0.000220406
0.00827519
-0.000219921
0.0083302
-0.000219221
0.00838498
-0.000218315
0.00843947
-0.000217213
0.00849364
-0.000215925
0.00854743
-0.000214462
0.0086008
-0.000212834
0.00865371
-0.000211054
0.00870614
-0.000209132
0.00875804
-0.000207079
0.00880939
-0.000204908
0.00886016
-0.000202628
0.00891033
-0.000200251
0.00895987
-0.000197787
0.00900877
-0.000195245
0.00905701
-0.000192634
0.00910457
-0.000189962
0.00915145
-0.000187238
0.00919762
-0.000184468
0.00924309
-0.000181658
0.00928785
-0.000178812
0.00933188
-0.000175936
0.00937519
-0.000173032
0.00941776
-0.000170103
0.00945959
-0.00016715
0.00950067
-0.000164174
0.00954101
-0.000161175
0.00958059
-0.000158152
0.00961941
-0.000155103
0.00965747
-0.000152026
0.00969475
-0.000148919
0.00973124
-0.000145777
0.00976695
-0.000142596
0.00980185
-0.000139373
0.00983594
-0.000136102
0.0098692
-0.000132779
0.00990162
-0.000129398
0.00993318
-0.000125954
0.00996387
-0.000122442
0.00999367
-0.000118856
0.0100226
-0.000115192
0.0100505
-0.000111445
0.0100775
-0.000107609
0.0101035
-0.00010368
0.0101285
-9.96556e-05
0.0101525
-9.55307e-05
0.0101754
-9.13027e-05
0.0101973
-8.6969e-05
0.010218
-8.25275e-05
0.0102376
-7.79767e-05
0.010256
-7.33156e-05
0.0102733
-6.8544e-05
0.0102893
-6.36621e-05
0.0103041
-5.86708e-05
0.0103176
-5.35713e-05
0.0103297
-4.83659e-05
0.0103406
-4.30569e-05
0.0103501
-3.76476e-05
0.0103582
-3.21416e-05
0.0103649
-2.6543e-05
0.0103702
-2.08563e-05
0.010374
-1.50867e-05
0.0103764
-9.23954e-06
0.0103773
-3.32039e-06
0.0103767
2.664e-06
0.0103745
8.70779e-06
0.0103709
1.48041e-05
0.0103656
2.09459e-05
0.0103589
2.71261e-05
0.0103506
3.33375e-05
0.0103407
3.95725e-05
0.0103292
4.58235e-05
0.0103162
5.2083e-05
0.0103016
5.83431e-05
0.0102854
6.45962e-05
0.0102676
7.08342e-05
0.0102483
7.70495e-05
0.0102275
8.32341e-05
0.0102051
8.93802e-05
0.0101811
9.54799e-05
0.0101557
0.000101525
0.0101287
0.000107509
0.0101003
0.000113423
0.0100704
0.000119259
0.010039
0.00012501
0.0100062
0.000130668
0.00997203
0.000136226
0.00993649
0.000141675
0.0098996
0.000147009
0.0098614
0.00015222
0.00982192
0.000157301
0.00978121
0.000162244
0.00973928
0.000167042
0.00969619
0.000171688
0.00965196
0.000176176
0.00960666
0.000180497
0.0095603
0.000184647
0.00951295
0.000188618
0.00946465
0.000192405
0.00941544
0.000196001
0.00936538
0.000199401
0.00931451
0.0002026
0.00926289
0.000205593
0.00921057
0.000208375
0.00915761
0.000210942
0.00910405
0.000213291
0.00904996
0.000215419
0.0089954
0.000217322
0.00894041
0.000218999
0.00888506
0.000220449
0.0088294
0.00022167
0.00877349
0.000222661
0.0087174
0.000223424
0.00866117
0.000223959
0.00860487
0.000224267
0.00854854
0.000224351
0.00849226
0.000224212
0.00843607
0.000223856
0.00838002
0.000223284
0.00832418
0.000222502
0.00826859
0.000221515
0.00821329
0.000220328
0.00815835
0.000218948
0.00810381
0.000217379
0.00804971
0.000215631
0.0079961
0.000213708
0.00794302
0.000211621
0.00789051
0.000209375
0.0078386
0.00020698
0.00778734
0.000204444
0.00773675
0.000201775
0.00768687
0.000198982
0.00763772
0.000196074
0.00758933
0.00019306
0.00754173
0.000189949
0.00749494
0.000186749
0.00744898
0.000183469
0.00740386
0.000180118
0.0073596
0.000176705
0.00731622
0.000173237
0.00727372
0.000169724
0.00723212
0.000166172
0.00719142
0.000162591
0.00715163
0.000158986
0.00711275
0.000155366
0.00707479
0.000151737
0.00703773
0.000148106
0.00700159
0.00014448
0.00696637
0.000140863
0.00693204
0.000137262
0.00689862
0.000133682
0.00686609
0.000130128
0.00683444
0.000126605
0.00680367
0.000123118
0.00677377
0.000119669
0.00674472
0.000116263
0.00671651
0.000112904
0.00668914
0.000109594
0.00666258
0.000106336
0.00663682
0.000103134
0.00661186
9.99887e-05
0.00658766
9.69035e-05
0.00656423
9.38799e-05
0.00654154
9.09196e-05
0.00651957
8.80242e-05
0.00649831
8.51951e-05
0.00647774
8.24334e-05
0.00645784
7.97402e-05
0.00643861
7.71162e-05
0.00642001
7.45622e-05
0.00640203
7.20787e-05
0.00638466
6.96659e-05
0.00636787
6.73242e-05
0.00635165
6.50537e-05
0.00633598
6.28542e-05
0.00632084
6.07255e-05
0.00630621
5.86674e-05
0.00629209
5.66792e-05
0.00627844
5.47604e-05
0.00626525
5.29099e-05
0.00625251
5.11268e-05
0.0062402
4.94096e-05
0.0062283
4.77567e-05
0.0062168
4.61659e-05
0.00620568
4.46347e-05
0.00619493
4.31599e-05
0.00618453
4.17376e-05
0.00617448
4.03638e-05
0.00616476
3.90313e-05
0.00615536
3.77398e-05
0.00614628
3.64662e-05
0.0061375
3.52497e-05
0.00612904
3.39505e-05
0.00612084
3.29352e-05
3.1138e-05
0.0062505
-2.52673e-06
0.00625201
-7.58164e-06
0.00625453
-1.26432e-05
0.00625805
-1.77169e-05
0.00626259
-2.28079e-05
0.00626815
-2.7921e-05
0.00627473
-3.30608e-05
0.00628234
-3.82319e-05
0.00629099
-4.34383e-05
0.00630069
-4.86841e-05
0.00631144
-5.39729e-05
0.00632326
-5.93081e-05
0.00633615
-6.46924e-05
0.00635012
-7.01284e-05
0.0063652
-7.56179e-05
0.00638138
-8.11625e-05
0.00639868
-8.6763e-05
0.00641712
-9.24196e-05
0.0064367
-9.81319e-05
0.00645744
-0.000103899
0.00647935
-0.000109718
0.00650243
-0.000115588
0.00652671
-0.000121504
0.00655218
-0.000127462
0.00657887
-0.000133457
0.00660676
-0.000139483
0.00663588
-0.000145532
0.00666623
-0.000151597
0.0066978
-0.000157668
0.00673059
-0.000163736
0.00676462
-0.000169789
0.00679986
-0.000175817
0.00683632
-0.000181805
0.00687399
-0.000187741
0.00691285
-0.000193611
0.00695288
-0.0001994
0.00699408
-0.000205092
0.00703641
-0.000210671
0.00707984
-0.000216122
0.00712437
-0.000221427
0.00716994
-0.00022657
0.00721652
-0.000231535
0.00726407
-0.000236306
0.00731256
-0.000240867
0.00736193
-0.000245203
0.00741214
-0.000249299
0.00746313
-0.000253142
0.00751485
-0.000256719
0.00756724
-0.000260019
0.00762025
-0.000263032
0.0076738
-0.00026575
0.00772785
-0.000268165
0.00778233
-0.000270273
0.00783716
-0.00027207
0.00789229
-0.000273554
0.00794766
-0.000274724
0.00800319
-0.000275583
0.00805883
-0.000276133
0.00811451
-0.000276379
0.00817017
-0.000276328
0.00822575
-0.000275987
0.00828119
-0.000275366
0.00833645
-0.000274474
0.00839146
-0.000273324
0.00844617
-0.000271927
0.00850054
-0.000270297
0.00855453
-0.000268447
0.00860808
-0.000266391
0.00866117
-0.000264144
0.00871376
-0.000261719
0.00876581
-0.000259132
0.0088173
-0.000256397
0.0088682
-0.000253527
0.00891848
-0.000250536
0.00896813
-0.000247437
0.00901713
-0.000244242
0.00906546
-0.000240962
0.0091131
-0.000237608
0.00916006
-0.000234189
0.0092063
-0.000230714
0.00925183
-0.000227191
0.00929665
-0.000223625
0.00934073
-0.000220023
0.00938409
-0.000216387
0.00942671
-0.000212722
0.00946859
-0.000209028
0.00950972
-0.000205307
0.00955011
-0.000201559
0.00958974
-0.000197783
0.00962861
-0.000193975
0.00966672
-0.000190133
0.00970405
-0.000186254
0.00974061
-0.000182333
0.00977638
-0.000178364
0.00981135
-0.000174343
0.00984551
-0.000170263
0.00987884
-0.000166117
0.00991135
-0.000161899
0.00994299
-0.000157603
0.00997377
-0.000153221
0.0100037
-0.000148747
0.0100326
-0.000144175
0.0100607
-0.000139498
0.0100878
-0.00013471
0.0101139
-0.000129805
0.0101391
-0.000124779
0.0101631
-0.000119628
0.0101862
-0.000114346
0.0102082
-0.000108931
0.010229
-0.00010338
0.0102487
-9.76921e-05
0.0102673
-9.18648e-05
0.0102846
-8.58982e-05
0.0103008
-7.97926e-05
0.0103156
-7.3549e-05
0.0103292
-6.71692e-05
0.0103415
-6.06558e-05
0.0103525
-5.4012e-05
0.0103621
-4.72418e-05
0.0103703
-4.03497e-05
0.0103771
-3.33409e-05
0.0103824
-2.62213e-05
0.0103864
-1.89972e-05
0.0103888
-1.16754e-05
0.0103897
-4.26313e-06
0.0103892
3.23151e-06
0.0103871
1.08008e-05
0.0103834
1.84361e-05
0.0103783
2.61288e-05
0.0103715
3.38699e-05
0.0103632
4.16501e-05
0.0103533
4.94601e-05
0.0103418
5.72904e-05
0.0103288
6.51314e-05
0.0103142
7.29733e-05
0.010298
8.08063e-05
0.0102802
8.86207e-05
0.0102608
9.64067e-05
0.0102399
0.000104154
0.0102174
0.000111854
0.0101934
0.000119495
0.0101679
0.000127069
0.0101408
0.000134565
0.0101123
0.000141973
0.0100822
0.000149285
0.0100507
0.00015649
0.0100178
0.000163579
0.00998352
0.000170542
0.00994782
0.00017737
0.00991078
0.000184054
0.00987242
0.000190583
0.00983277
0.000196949
0.00979187
0.000203143
0.00974976
0.000209155
0.00970647
0.000214977
0.00966204
0.000220601
0.00961652
0.000226017
0.00956995
0.000231217
0.00952238
0.000236194
0.00947384
0.00024094
0.0094244
0.000245446
0.00937409
0.000249707
0.00932298
0.000253716
0.0092711
0.000257466
0.00921853
0.000260952
0.0091653
0.000264169
0.00911148
0.000267112
0.00905712
0.000269777
0.00900228
0.000272161
0.00894702
0.000274261
0.00889139
0.000276075
0.00883546
0.000277602
0.00877928
0.000278841
0.00872291
0.000279794
0.00866641
0.00028046
0.00860984
0.000280841
0.00855325
0.000280941
0.0084967
0.000280762
0.00844024
0.000280308
0.00838394
0.000279586
0.00832785
0.000278599
0.00827201
0.000277354
0.00821648
0.000275859
0.0081613
0.000274121
0.00810654
0.000272147
0.00805222
0.000269947
0.0079984
0.000267529
0.00794511
0.000264904
0.00789241
0.000262081
0.00784032
0.000259071
0.00778888
0.000255884
0.00773812
0.000252531
0.00768808
0.000249022
0.00763879
0.00024537
0.00759026
0.000241585
0.00754253
0.000237678
0.00749562
0.00023366
0.00744955
0.000229543
0.00740433
0.000225337
0.00735998
0.000221054
0.00731651
0.000216703
0.00727394
0.000212295
0.00723228
0.00020784
0.00719152
0.000203347
0.00715168
0.000198827
0.00711276
0.000194288
0.00707476
0.000189738
0.00703768
0.000185186
0.00700152
0.00018064
0.00696627
0.000176107
0.00693194
0.000171595
0.00689851
0.00016711
0.00686598
0.000162658
0.00683434
0.000158244
0.00680358
0.000153876
0.0067737
0.000149557
0.00674467
0.000145292
0.00671649
0.000141086
0.00668914
0.000136942
0.00666261
0.000132864
0.00663689
0.000128856
0.00661196
0.00012492
0.0065878
0.000121059
0.00656441
0.000117275
0.00654175
0.000113572
0.00651983
0.00010995
0.00649861
0.000106411
0.00647809
0.000102956
0.00645824
9.95879e-05
0.00643905
9.63065e-05
0.0064205
9.31127e-05
0.00640257
9.00073e-05
0.00638525
8.69908e-05
0.00636851
8.40633e-05
0.00635234
8.12249e-05
0.00633672
7.84755e-05
0.00632163