/*--------------------------------*- C++ -*----------------------------------*\
| =========                 |                                                 |
| \\      /  F ield         | OpenFOAM: The Open Source CFD Toolbox           |
|  \\    /   O peration     | Version:  2306                                  |
|   \\  /    A nd           | Website:  www.openfoam.com                      |
|    \\/     M anipulation  |                                                 |
\*---------------------------------------------------------------------------*/
FoamFile
{
    version     2.0;
    format      ascii;
    arch        "LSB;label=32;scalar=64";
    class       volScalarField;
    location    "7.5";
    object      T;
}
// * * * * * * * * * * * * * * * * * * * * * * * * * * * * * * * * * * * * * //

dimensions      [0 0 0 1 0 0 0];

internalField   nonuniform List<scalar> 
32768
(
300
300
300
300
300
300
300
300
300
300
300
300
300
300
300
300
300
300
300
300
300
300
300
300
300
300
300
300
300
300
300
300
300
300
300
300
300
300
300
300
300
300
300
300
300
300
300
300
300
300
300
300
300
300
300
300
300
300
300
300
300
300
300
300
300
300
300
300
300
300
300
300
300
300
300
300
300
299.999
299.999
299.999
299.999
299.999
299.999
299.999
299.998
299.998
299.998
299.998
299.997
299.997
299.996
299.996
299.995
299.995
299.994
299.994
299.993
299.992
299.991
299.99
299.989
299.987
299.986
299.984
299.983
299.981
299.979
299.977
299.974
299.972
299.969
299.966
299.963
299.96
299.956
299.952
299.948
299.943
299.938
299.933
299.928
299.922
299.916
299.909
299.902
299.894
299.886
299.878
299.869
299.86
299.85
299.84
299.829
299.817
299.805
299.793
299.78
299.766
299.751
299.736
299.721
299.704
299.688
299.67
299.652
299.633
299.613
299.593
299.572
299.55
299.528
299.505
299.481
299.457
299.431
299.406
299.379
299.352
299.324
299.295
299.266
299.236
299.205
299.174
299.142
299.11
299.077
299.043
299.008
298.973
298.938
298.902
298.865
298.827
298.789
298.751
298.712
298.672
298.632
298.591
298.55
298.508
298.466
298.423
298.379
298.335
298.29
298.244
298.198
298.151
298.103
298.054
298.005
297.954
297.901
297.847
297.792
297.735
297.675
297.613
297.548
297.48
297.407
297.33
297.248
297.16
297.064
296.96
296.846
296.721
296.584
296.432
296.264
296.077
295.869
295.636
295.377
295.088
294.765
294.404
294.002
293.555
293.057
292.504
291.891
291.213
290.464
289.639
288.732
287.737
286.646
285.453
284.147
282.714
281.136
279.379
277.386
275.056
272.201
268.479
263.249
255.323
242.495
220.663
182.217
113.052
-12.9458
-244.069
-669.516
-1453.85
-2900.36
-5567.36
-10481.6
-19529.2
-36172.2
-66755.7
300
300
300
300
300
300
300
300
300
300
300
300
300
300
300
300
300
300
300
300
300
300
300
300
300
300
300
300
300
300
300
300
300
300
300
300
300
300
300
300
300
300
300
300
300
300
300
300
300
300
300
300
300
300
300
300
300
300
300
300
300
300
300
300
300
300
300
300
300
300
300
300
300
300
300
300
299.999
299.999
299.999
299.999
299.999
299.999
299.999
299.998
299.998
299.998
299.998
299.997
299.997
299.997
299.996
299.996
299.995
299.994
299.994
299.993
299.992
299.991
299.99
299.989
299.988
299.986
299.985
299.983
299.981
299.979
299.977
299.975
299.972
299.969
299.966
299.963
299.96
299.956
299.952
299.948
299.944
299.939
299.933
299.928
299.922
299.916
299.909
299.902
299.895
299.887
299.878
299.87
299.86
299.85
299.84
299.829
299.818
299.806
299.793
299.78
299.766
299.752
299.737
299.722
299.705
299.689
299.671
299.653
299.634
299.615
299.594
299.574
299.552
299.53
299.507
299.483
299.459
299.434
299.408
299.382
299.355
299.327
299.299
299.27
299.24
299.21
299.179
299.148
299.115
299.083
299.049
299.015
298.981
298.945
298.91
298.873
298.836
298.799
298.761
298.722
298.683
298.643
298.603
298.562
298.521
298.479
298.437
298.394
298.35
298.306
298.261
298.216
298.169
298.122
298.074
298.026
297.976
297.925
297.873
297.819
297.764
297.707
297.647
297.585
297.52
297.452
297.38
297.303
297.221
297.132
297.037
296.933
296.819
296.694
296.557
296.405
296.237
296.05
295.841
295.609
295.35
295.06
294.737
294.376
293.974
293.527
293.028
292.475
291.862
291.184
290.435
289.61
288.702
287.707
286.616
285.422
284.115
282.682
281.104
279.346
277.353
275.022
272.168
268.445
263.216
255.293
242.468
220.642
182.207
113.062
-12.9053
-243.979
-669.351
-1453.58
-2899.95
-5566.82
-10481
-19529.1
-36173.7
-66761.8
300
300
300
300
300
300
300
300
300
300
300
300
300
300
300
300
300
300
300
300
300
300
300
300
300
300
300
300
300
300
300
300
300
300
300
300
300
300
300
300
300
300
300
300
300
300
300
300
300
300
300
300
300
300
300
300
300
300
300
300
300
300
300
300
300
300
300
300
300
300
300
300
300
300
300
299.999
299.999
299.999
299.999
299.999
299.999
299.999
299.998
299.998
299.998
299.998
299.997
299.997
299.996
299.996
299.995
299.995
299.994
299.993
299.992
299.991
299.99
299.989
299.988
299.987
299.985
299.984
299.982
299.98
299.978
299.975
299.973
299.97
299.967
299.964
299.961
299.957
299.953
299.949
299.945
299.94
299.935
299.929
299.923
299.917
299.911
299.904
299.896
299.888
299.88
299.871
299.862
299.852
299.842
299.831
299.82
299.808
299.795
299.782
299.769
299.754
299.74
299.724
299.708
299.691
299.674
299.656
299.637
299.618
299.598
299.577
299.556
299.534
299.512
299.488
299.464
299.44
299.414
299.388
299.362
299.335
299.307
299.278
299.249
299.219
299.189
299.158
299.126
299.094
299.061
299.028
298.994
298.959
298.924
298.889
298.852
298.816
298.779
298.741
298.703
298.664
298.625
298.585
298.544
298.504
298.462
298.42
298.378
298.335
298.292
298.247
298.203
298.157
298.111
298.064
298.017
297.968
297.919
297.868
297.816
297.763
297.707
297.65
297.591
297.529
297.465
297.397
297.325
297.248
297.166
297.077
296.982
296.878
296.765
296.64
296.503
296.351
296.183
295.996
295.787
295.555
295.296
295.006
294.683
294.322
293.92
293.472
292.973
292.42
291.807
291.128
290.379
289.553
288.645
287.649
286.558
285.363
284.056
282.623
281.044
279.286
277.292
274.961
272.107
268.386
263.159
255.239
242.422
220.609
182.198
113.09
-12.8149
-243.791
-669.013
-1453.03
-2899.14
-5565.76
-10480
-19528.9
-36176.9
-66774.2
300
300
300
300
300
300
300
300
300
300
300
300
300
300
300
300
300
300
300
300
300
300
300
300
300
300
300
300
300
300
300
300
300
300
300
300
300
300
300
300
300
300
300
300
300
300
300
300
300
300
300
300
300
300
300
300
300
300
300
300
300
300
300
300
300
300
300
300
300
300
300
300
300
299.999
299.999
299.999
299.999
299.999
299.999
299.999
299.998
299.998
299.998
299.998
299.997
299.997
299.996
299.996
299.995
299.995
299.994
299.993
299.992
299.991
299.99
299.989
299.988
299.987
299.985
299.983
299.981
299.979
299.977
299.975
299.972
299.97
299.967
299.963
299.96
299.956
299.952
299.948
299.943
299.938
299.933
299.927
299.921
299.914
299.907
299.9
299.892
299.884
299.876
299.866
299.857
299.847
299.836
299.825
299.813
299.801
299.788
299.774
299.76
299.745
299.73
299.714
299.698
299.681
299.663
299.644
299.625
299.605
299.585
299.564
299.542
299.52
299.497
299.473
299.449
299.424
299.399
299.372
299.346
299.318
299.29
299.262
299.232
299.203
299.172
299.141
299.11
299.078
299.045
299.012
298.978
298.944
298.909
298.874
298.838
298.802
298.766
298.729
298.691
298.653
298.614
298.575
298.536
298.496
298.456
298.415
298.373
298.332
298.289
298.246
298.203
298.159
298.115
298.069
298.024
297.977
297.93
297.881
297.832
297.782
297.73
297.677
297.622
297.565
297.507
297.445
297.381
297.313
297.241
297.165
297.083
296.995
296.9
296.796
296.683
296.559
296.421
296.27
296.102
295.915
295.706
295.474
295.215
294.925
294.602
294.241
293.838
293.39
292.891
292.338
291.724
291.045
290.295
289.469
288.561
287.564
286.472
285.277
283.97
282.536
280.956
279.198
277.204
274.873
272.02
268.3
263.076
255.163
242.357
220.564
182.187
113.136
-12.6756
-243.504
-668.505
-1452.21
-2897.93
-5564.2
-10478.5
-19528.8
-36181.7
-66793
300
300
300
300
300
300
300
300
300
300
300
300
300
300
300
300
300
300
300
300
300
300
300
300
300
300
300
300
300
300
300
300
300
300
300
300
300
300
300
300
300
300
300
300
300
300
300
300
300
300
300
300
300
300
300
300
300
300
300
300
300
300
300
300
300
300
300
300
300
300
300
300
299.999
299.999
299.999
299.999
299.999
299.999
299.998
299.998
299.998
299.998
299.997
299.997
299.996
299.996
299.995
299.995
299.994
299.993
299.992
299.991
299.99
299.989
299.987
299.986
299.984
299.982
299.98
299.978
299.976
299.973
299.971
299.968
299.964
299.961
299.957
299.953
299.949
299.944
299.939
299.934
299.928
299.922
299.915
299.908
299.901
299.893
299.884
299.876
299.866
299.856
299.846
299.835
299.824
299.812
299.799
299.786
299.772
299.758
299.743
299.727
299.711
299.694
299.676
299.658
299.639
299.619
299.599
299.578
299.557
299.535
299.512
299.489
299.465
299.44
299.415
299.389
299.362
299.335
299.308
299.279
299.251
299.221
299.191
299.161
299.13
299.099
299.067
299.034
299.001
298.968
298.934
298.9
298.865
298.83
298.794
298.758
298.721
298.685
298.647
298.61
298.572
298.533
298.494
298.455
298.415
298.375
298.335
298.294
298.253
298.211
298.169
298.126
298.083
298.04
297.996
297.951
297.905
297.859
297.812
297.764
297.715
297.666
297.614
297.562
297.507
297.451
297.393
297.332
297.268
297.201
297.129
297.053
296.972
296.884
296.789
296.686
296.573
296.449
296.312
296.161
295.993
295.806
295.598
295.366
295.106
294.817
294.493
294.132
293.729
293.281
292.782
292.228
291.614
290.934
290.184
289.357
288.449
287.451
286.359
285.163
283.855
282.42
280.84
279.081
277.087
274.757
271.904
268.187
262.968
255.063
242.272
220.506
182.174
113.2
-12.4881
-243.122
-667.829
-1451.12
-2896.33
-5562.12
-10476.4
-19528.6
-36188.3
-66818.1
300
300
300
300
300
300
300
300
300
300
300
300
300
300
300
300
300
300
300
300
300
300
300
300
300
300
300
300
300
300
300
300
300
300
300
300
300
300
300
300
300
300
300
300
300
300
300
300
300
300
300
300
300
300
300
300
300
300
300
300
300
300
300
300
300
300
300
300
300
300
299.999
299.999
299.999
299.999
299.999
299.999
299.998
299.998
299.998
299.998
299.997
299.997
299.996
299.996
299.995
299.994
299.994
299.993
299.992
299.991
299.989
299.988
299.987
299.985
299.983
299.981
299.979
299.977
299.974
299.971
299.968
299.965
299.962
299.958
299.954
299.949
299.944
299.939
299.933
299.928
299.921
299.914
299.907
299.899
299.891
299.882
299.873
299.863
299.853
299.842
299.831
299.819
299.806
299.793
299.779
299.764
299.749
299.733
299.717
299.7
299.682
299.663
299.644
299.624
299.604
299.582
299.56
299.538
299.515
299.491
299.466
299.441
299.415
299.389
299.362
299.334
299.306
299.278
299.248
299.219
299.188
299.158
299.126
299.095
299.062
299.03
298.997
298.963
298.929
298.895
298.86
298.825
298.79
298.754
298.718
298.682
298.645
298.608
298.571
298.533
298.495
298.457
298.419
298.38
298.341
298.301
298.262
298.222
298.181
298.14
298.099
298.058
298.016
297.974
297.931
297.888
297.844
297.8
297.755
297.71
297.663
297.616
297.568
297.519
297.468
297.416
297.363
297.307
297.249
297.189
297.126
297.059
296.988
296.913
296.832
296.745
296.651
296.548
296.435
296.312
296.175
296.024
295.856
295.67
295.462
295.229
294.97
294.68
294.357
293.996
293.593
293.144
292.645
292.09
291.476
290.796
290.045
289.218
288.308
287.31
286.217
285.021
283.711
282.276
280.695
278.936
276.942
274.612
271.761
268.046
262.833
254.939
242.167
220.435
182.16
113.28
-12.2536
-242.644
-666.984
-1449.76
-2894.32
-5559.53
-10473.9
-19528.4
-36196.4
-66849.6
300
300
300
300
300
300
300
300
300
300
300
300
300
300
300
300
300
300
300
300
300
300
300
300
300
300
300
300
300
300
300
300
300
300
300
300
300
300
300
300
300
300
300
300
300
300
300
300
300
300
300
300
300
300
300
300
300
300
300
300
300
300
300
300
300
300
300
300
299.999
299.999
299.999
299.999
299.999
299.999
299.998
299.998
299.998
299.997
299.997
299.997
299.996
299.995
299.995
299.994
299.993
299.992
299.991
299.99
299.989
299.987
299.986
299.984
299.982
299.98
299.977
299.975
299.972
299.969
299.966
299.962
299.958
299.954
299.949
299.944
299.939
299.933
299.927
299.92
299.913
299.905
299.897
299.888
299.879
299.87
299.859
299.848
299.837
299.824
299.812
299.798
299.784
299.769
299.753
299.737
299.72
299.702
299.684
299.664
299.644
299.624
299.602
299.58
299.557
299.534
299.509
299.484
299.459
299.432
299.405
299.378
299.349
299.321
299.291
299.261
299.231
299.199
299.168
299.136
299.103
299.07
299.037
299.003
298.969
298.934
298.9
298.864
298.829
298.793
298.757
298.721
298.684
298.647
298.61
298.573
298.536
298.498
298.46
298.422
298.384
298.346
298.307
298.268
298.23
298.19
298.151
298.112
298.072
298.032
297.992
297.952
297.911
297.87
297.829
297.787
297.745
297.702
297.659
297.616
297.572
297.527
297.481
297.435
297.388
297.34
297.29
297.239
297.186
297.132
297.075
297.015
296.953
296.887
296.817
296.742
296.662
296.576
296.482
296.38
296.268
296.145
296.009
295.858
295.691
295.505
295.297
295.065
294.806
294.516
294.192
293.831
293.428
292.979
292.479
291.924
291.309
290.629
289.877
289.049
288.139
287.14
286.046
284.849
283.539
282.103
280.521
278.762
276.767
274.438
271.588
267.877
262.671
254.79
242.041
220.349
182.142
113.376
-11.9732
-242.073
-665.974
-1448.13
-2891.93
-5556.44
-10470.9
-19528.1
-36206.3
-66887.4
300
300
300
300
300
300
300
300
300
300
300
300
300
300
300
300
300
300
300
300
300
300
300
300
300
300
300
300
300
300
300
300
300
300
300
300
300
300
300
300
300
300
300
300
300
300
300
300
300
300
300
300
300
300
300
300
300
300
300
300
300
300
300
300
300
300
299.999
299.999
299.999
299.999
299.999
299.999
299.998
299.998
299.998
299.997
299.997
299.997
299.996
299.995
299.995
299.994
299.993
299.992
299.991
299.989
299.988
299.986
299.985
299.983
299.981
299.978
299.976
299.973
299.97
299.966
299.962
299.958
299.954
299.949
299.944
299.938
299.932
299.926
299.919
299.911
299.903
299.895
299.886
299.876
299.865
299.854
299.843
299.83
299.817
299.803
299.788
299.773
299.757
299.74
299.722
299.704
299.684
299.664
299.643
299.621
299.599
299.575
299.551
299.526
299.5
299.473
299.446
299.418
299.389
299.359
299.329
299.298
299.267
299.234
299.202
299.168
299.135
299.1
299.065
299.03
298.995
298.958
298.922
298.885
298.848
298.811
298.774
298.736
298.698
298.66
298.622
298.583
298.545
298.506
298.468
298.429
298.39
298.352
298.313
298.274
298.235
298.196
298.157
298.118
298.079
298.04
298.001
297.962
297.923
297.883
297.844
297.804
297.765
297.725
297.685
297.645
297.604
297.563
297.522
297.481
297.439
297.396
297.353
297.31
297.265
297.22
297.174
297.127
297.079
297.029
296.977
296.924
296.868
296.81
296.748
296.684
296.615
296.541
296.462
296.377
296.284
296.182
296.071
295.949
295.813
295.663
295.496
295.31
295.103
294.871
294.612
294.322
293.999
293.637
293.234
292.785
292.285
291.729
291.114
290.432
289.68
288.851
287.94
286.941
285.846
284.648
283.337
281.9
280.317
278.557
276.563
274.234
271.386
267.679
262.481
254.615
241.893
220.247
182.119
113.486
-11.6484
-241.409
-664.799
-1446.24
-2889.14
-5552.84
-10467.4
-19527.9
-36217.9
-66931.7
300
300
300
300
300
300
300
300
300
300
300
300
300
300
300
300
300
300
300
300
300
300
300
300
300
300
300
300
300
300
300
300
300
300
300
300
300
300
300
300
300
300
300
300
300
300
300
300
300
300
300
300
300
300
300
300
300
300
300
300
300
300
300
300
299.999
299.999
299.999
299.999
299.999
299.999
299.998
299.998
299.998
299.997
299.997
299.996
299.996
299.995
299.994
299.994
299.993
299.991
299.99
299.989
299.987
299.986
299.984
299.981
299.979
299.976
299.974
299.97
299.967
299.963
299.959
299.954
299.95
299.944
299.938
299.932
299.925
299.918
299.91
299.902
299.893
299.883
299.872
299.861
299.85
299.837
299.824
299.809
299.794
299.779
299.762
299.744
299.726
299.706
299.686
299.665
299.643
299.62
299.596
299.571
299.545
299.518
299.49
299.461
299.432
299.401
299.37
299.338
299.305
299.271
299.237
299.202
299.166
299.13
299.093
299.055
299.017
298.979
298.94
298.9
298.861
298.821
298.78
298.74
298.699
298.658
298.617
298.576
298.535
298.494
298.452
298.411
298.37
298.329
298.288
298.247
298.207
298.166
298.126
298.085
298.045
298.005
297.965
297.926
297.886
297.847
297.808
297.768
297.729
297.69
297.652
297.613
297.574
297.535
297.496
297.458
297.419
297.379
297.34
297.301
297.261
297.221
297.18
297.139
297.098
297.056
297.013
296.969
296.925
296.879
296.832
296.784
296.734
296.682
296.628
296.571
296.511
296.448
296.38
296.308
296.23
296.146
296.054
295.953
295.843
295.722
295.587
295.438
295.271
295.086
294.879
294.647
294.388
294.099
293.775
293.414
293.01
292.561
292.06
291.504
290.888
290.206
289.453
288.624
287.712
286.711
285.615
284.416
283.104
281.666
280.082
278.321
276.327
273.998
271.153
267.451
262.262
254.413
241.722
220.129
182.092
113.608
-11.2809
-240.655
-663.464
-1444.08
-2885.97
-5548.74
-10463.4
-19527.6
-36231.1
-66982.3
300
300
300
300
300
300
300
300
300
300
300
300
300
300
300
300
300
300
300
300
300
300
300
300
300
300
300
300
300
300
300
300
300
300
300
300
300
300
300
300
300
300
300
300
300
300
300
300
300
300
300
300
300
300
300
300
300
300
300
300
300
300
300
299.999
299.999
299.999
299.999
299.999
299.998
299.998
299.998
299.997
299.997
299.996
299.996
299.995
299.994
299.993
299.992
299.991
299.99
299.988
299.987
299.985
299.983
299.98
299.978
299.975
299.972
299.968
299.964
299.96
299.955
299.95
299.945
299.939
299.932
299.925
299.918
299.91
299.901
299.891
299.881
299.87
299.858
299.845
299.832
299.818
299.802
299.786
299.769
299.751
299.732
299.712
299.69
299.668
299.645
299.62
299.595
299.568
299.541
299.512
299.482
299.451
299.419
299.386
299.352
299.317
299.281
299.244
299.206
299.167
299.128
299.088
299.047
299.005
298.963
298.92
298.877
298.833
298.789
298.744
298.699
298.654
298.609
298.564
298.518
298.472
298.427
298.381
298.336
298.291
298.246
298.201
298.156
298.112
298.068
298.024
297.98
297.937
297.894
297.852
297.81
297.769
297.727
297.686
297.646
297.606
297.566
297.527
297.488
297.449
297.411
297.372
297.334
297.296
297.259
297.221
297.184
297.146
297.109
297.071
297.034
296.996
296.958
296.92
296.881
296.842
296.803
296.763
296.722
296.68
296.638
296.594
296.549
296.503
296.455
296.405
296.353
296.298
296.239
296.178
296.112
296.041
295.965
295.882
295.791
295.692
295.583
295.463
295.329
295.181
295.015
294.83
294.624
294.393
294.134
293.845
293.521
293.16
292.756
292.306
291.805
291.249
290.632
289.949
289.195
288.365
287.452
286.45
285.353
284.152
282.839
281.4
279.816
278.054
276.059
273.731
270.888
267.192
262.013
254.183
241.526
219.993
182.057
113.742
-10.8727
-239.814
-661.969
-1441.67
-2882.41
-5544.15
-10459
-19527.4
-36246
-67039.3
300
300
300
300
300
300
300
300
300
300
300
300
300
300
300
300
300
300
300
300
300
300
300
300
300
300
300
300
300
300
300
300
300
300
300
300
300
300
300
300
300
300
300
300
300
300
300
300
300
300
300
300
300
300
300
300
300
300
300
300
300
299.999
299.999
299.999
299.999
299.999
299.999
299.998
299.998
299.997
299.997
299.996
299.996
299.995
299.994
299.993
299.992
299.991
299.989
299.988
299.986
299.984
299.982
299.979
299.976
299.973
299.97
299.966
299.962
299.957
299.952
299.946
299.94
299.933
299.926
299.918
299.91
299.9
299.89
299.88
299.868
299.856
299.842
299.828
299.813
299.796
299.779
299.761
299.741
299.72
299.698
299.675
299.651
299.625
299.598
299.57
299.541
299.51
299.478
299.445
299.41
299.374
299.337
299.299
299.26
299.219
299.177
299.135
299.091
299.046
299.001
298.954
298.907
298.859
298.81
298.761
298.711
298.661
298.61
298.559
298.508
298.457
298.405
298.354
298.302
298.251
298.199
298.148
298.098
298.047
297.997
297.947
297.898
297.849
297.801
297.754
297.707
297.66
297.614
297.569
297.525
297.481
297.438
297.395
297.353
297.312
297.271
297.231
297.192
297.153
297.115
297.077
297.04
297.003
296.966
296.93
296.894
296.858
296.823
296.787
296.752
296.717
296.682
296.646
296.611
296.575
296.539
296.503
296.466
296.428
296.39
296.351
296.311
296.27
296.228
296.184
296.138
296.091
296.041
295.988
295.932
295.872
295.808
295.739
295.665
295.584
295.495
295.398
295.29
295.171
295.038
294.891
294.726
294.542
294.337
294.106
293.848
293.559
293.236
292.874
292.47
292.02
291.519
290.962
290.344
289.66
288.906
288.074
287.16
286.157
285.058
283.856
282.542
281.101
279.516
277.753
275.758
273.431
270.591
266.9
261.733
253.924
241.305
219.837
182.013
113.885
-10.4259
-238.888
-660.319
-1439
-2878.47
-5539.06
-10454.1
-19527.1
-36262.6
-67102.8
300
300
300
300
300
300
300
300
300
300
300
300
300
300
300
300
300
300
300
300
300
300
300
300
300
300
300
300
300
300
300
300
300
300
300
300
300
300
300
300
300
300
300
300
300
300
300
300
300
300
300
300
300
300
300
300
300
300
300
300
299.999
299.999
299.999
299.999
299.999
299.998
299.998
299.998
299.997
299.996
299.996
299.995
299.994
299.993
299.992
299.991
299.989
299.987
299.985
299.983
299.981
299.978
299.975
299.972
299.968
299.964
299.959
299.954
299.948
299.942
299.935
299.928
299.92
299.911
299.901
299.891
299.88
299.868
299.855
299.84
299.825
299.809
299.792
299.773
299.754
299.732
299.71
299.686
299.661
299.635
299.607
299.577
299.546
299.514
299.48
299.445
299.408
299.369
299.329
299.288
299.245
299.2
299.154
299.107
299.059
299.009
298.958
298.906
298.853
298.799
298.744
298.688
298.632
298.575
298.517
298.459
298.401
298.342
298.283
298.224
298.165
298.106
298.047
297.988
297.93
297.872
297.814
297.757
297.701
297.645
297.591
297.536
297.483
297.431
297.379
297.328
297.279
297.23
297.182
297.135
297.089
297.044
297.001
296.958
296.916
296.875
296.835
296.795
296.757
296.719
296.683
296.646
296.611
296.576
296.542
296.508
296.475
296.442
296.409
296.377
296.344
296.312
296.28
296.248
296.216
296.183
296.151
296.118
296.084
296.05
296.015
295.979
295.942
295.905
295.865
295.824
295.782
295.737
295.69
295.64
295.587
295.53
295.468
295.402
295.329
295.25
295.164
295.068
294.962
294.845
294.714
294.568
294.404
294.221
294.016
293.787
293.529
293.24
292.917
292.556
292.152
291.701
291.199
290.642
290.023
289.339
288.583
287.75
286.835
285.83
284.73
283.527
282.211
280.769
279.182
277.418
275.423
273.097
270.259
266.575
261.42
253.635
241.056
219.66
181.958
114.035
-9.94283
-237.879
-658.517
-1436.08
-2874.16
-5533.49
-10448.7
-19526.8
-36280.9
-67172.7
300
300
300
300
300
300
300
300
300
300
300
300
300
300
300
300
300
300
300
300
300
300
300
300
300
300
300
300
300
300
300
300
300
300
300
300
300
300
300
300
300
300
300
300
300
300
300
300
300
300
300
300
300
300
300
300
300
300
299.999
299.999
299.999
299.999
299.999
299.998
299.998
299.998
299.997
299.997
299.996
299.995
299.994
299.993
299.992
299.991
299.989
299.987
299.985
299.983
299.98
299.977
299.974
299.97
299.966
299.962
299.956
299.951
299.945
299.938
299.93
299.922
299.913
299.903
299.893
299.881
299.869
299.855
299.84
299.824
299.807
299.789
299.769
299.748
299.726
299.702
299.677
299.65
299.621
299.591
299.558
299.525
299.489
299.452
299.413
299.372
299.329
299.284
299.238
299.19
299.14
299.088
299.035
298.98
298.923
298.866
298.806
298.746
298.684
298.621
298.557
298.492
298.426
298.359
298.292
298.225
298.157
298.088
298.02
297.951
297.883
297.815
297.747
297.679
297.612
297.546
297.48
297.416
297.352
297.289
297.227
297.166
297.106
297.047
296.99
296.934
296.879
296.826
296.774
296.723
296.674
296.626
296.58
296.535
296.491
296.448
296.407
296.367
296.329
296.291
296.255
296.219
296.185
296.151
296.119
296.087
296.056
296.026
295.996
295.967
295.938
295.909
295.881
295.853
295.825
295.797
295.769
295.741
295.713
295.684
295.654
295.624
295.593
295.562
295.529
295.495
295.459
295.422
295.383
295.342
295.298
295.252
295.202
295.148
295.089
295.026
294.956
294.88
294.795
294.702
294.598
294.483
294.354
294.209
294.047
293.866
293.662
293.433
293.176
292.888
292.565
292.204
291.8
291.349
290.847
290.288
289.669
288.983
288.226
287.392
286.475
285.469
284.367
283.162
281.844
280.401
278.813
277.048
275.052
272.727
269.892
266.214
261.073
253.312
240.779
219.46
181.891
114.19
-9.4263
-236.792
-656.566
-1432.91
-2869.48
-5527.43
-10442.8
-19526.6
-36300.9
-67249
300
300
300
300
300
300
300
300
300
300
300
300
300
300
300
300
300
300
300
300
300
300
300
300
300
300
300
300
300
300
300
300
300
300
300
300
300
300
300
300
300
300
300
300
300
300
300
300
300
300
300
300
300
300
300
300
300
299.999
299.999
299.999
299.999
299.999
299.998
299.998
299.997
299.997
299.996
299.995
299.994
299.993
299.992
299.991
299.989
299.987
299.985
299.982
299.98
299.976
299.973
299.969
299.965
299.96
299.954
299.948
299.941
299.934
299.926
299.917
299.907
299.896
299.884
299.871
299.857
299.842
299.825
299.808
299.789
299.768
299.746
299.722
299.697
299.67
299.641
299.61
299.577
299.542
299.506
299.467
299.426
299.383
299.338
299.291
299.241
299.19
299.136
299.08
299.022
298.962
298.9
298.836
298.77
298.703
298.633
298.563
298.49
298.417
298.342
298.266
298.189
298.111
298.032
297.953
297.874
297.794
297.714
297.634
297.555
297.475
297.397
297.318
297.241
297.164
297.089
297.014
296.941
296.869
296.798
296.729
296.661
296.595
296.53
296.468
296.407
296.348
296.291
296.235
296.182
296.13
296.08
296.032
295.986
295.942
295.899
295.858
295.819
295.781
295.745
295.71
295.677
295.645
295.615
295.585
295.557
295.529
295.503
295.477
295.452
295.428
295.404
295.381
295.358
295.335
295.313
295.29
295.267
295.244
295.221
295.197
295.173
295.148
295.122
295.096
295.068
295.039
295.008
294.975
294.941
294.904
294.864
294.822
294.775
294.725
294.67
294.61
294.544
294.47
294.389
294.298
294.197
294.084
293.957
293.815
293.654
293.474
293.272
293.044
292.788
292.5
292.178
291.817
291.412
290.961
290.459
289.9
289.279
288.593
287.834
286.999
286.08
285.072
283.968
282.761
281.442
279.996
278.406
276.64
274.644
272.319
269.487
265.817
260.69
252.956
240.47
219.236
181.809
114.347
-8.87921
-235.628
-654.471
-1429.5
-2864.44
-5520.9
-10436.5
-19526.3
-36322.7
-67331.8
300
300
300
300
300
300
300
300
300
300
300
300
300
300
300
300
300
300
300
300
300
300
300
300
300
300
300
300
300
300
300
300
300
300
300
300
300
300
300
300
300
300
300
300
300
300
300
300
300
300
300
300
300
300
300
299.999
299.999
299.999
299.999
299.999
299.998
299.998
299.997
299.997
299.996
299.995
299.995
299.993
299.992
299.991
299.989
299.987
299.985
299.982
299.979
299.976
299.972
299.968
299.963
299.958
299.952
299.945
299.938
299.93
299.921
299.911
299.9
299.888
299.875
299.861
299.845
299.829
299.81
299.79
299.769
299.746
299.721
299.694
299.666
299.635
299.602
299.567
299.53
299.49
299.449
299.404
299.357
299.308
299.256
299.202
299.145
299.085
299.023
298.958
298.891
298.821
298.749
298.675
298.598
298.519
298.438
298.355
298.271
298.184
298.096
298.007
297.917
297.826
297.734
297.641
297.548
297.454
297.361
297.267
297.174
297.081
296.989
296.898
296.808
296.719
296.631
296.544
296.459
296.376
296.295
296.216
296.138
296.063
295.99
295.919
295.85
295.784
295.72
295.659
295.6
295.544
295.49
295.438
295.389
295.342
295.297
295.255
295.215
295.177
295.141
295.107
295.075
295.045
295.016
294.989
294.964
294.94
294.918
294.896
294.876
294.856
294.838
294.82
294.803
294.786
294.77
294.754
294.738
294.722
294.705
294.689
294.672
294.655
294.637
294.618
294.599
294.578
294.556
294.533
294.508
294.48
294.451
294.419
294.385
294.347
294.305
294.26
294.209
294.153
294.09
294.021
293.943
293.855
293.757
293.647
293.522
293.382
293.224
293.045
292.844
292.618
292.363
292.076
291.754
291.393
290.989
290.538
290.034
289.475
288.853
288.165
287.406
286.568
285.648
284.638
283.532
282.323
281.001
279.553
277.961
276.194
274.196
271.872
269.044
265.38
260.269
252.563
240.129
218.983
181.71
114.503
-8.30476
-234.393
-652.237
-1425.86
-2859.04
-5513.91
-10429.7
-19526.1
-36346.1
-67421.1
300
300
300
300
300
300
300
300
300
300
300
300
300
300
300
300
300
300
300
300
300
300
300
300
300
300
300
300
300
300
300
300
300
300
300
300
300
300
300
300
300
300
300
300
300
300
300
300
300
300
300
300
300
300
299.999
299.999
299.999
299.999
299.999
299.998
299.998
299.997
299.997
299.996
299.995
299.994
299.992
299.991
299.989
299.987
299.985
299.982
299.979
299.976
299.972
299.967
299.962
299.957
299.95
299.943
299.935
299.926
299.917
299.906
299.894
299.881
299.867
299.851
299.834
299.815
299.795
299.773
299.749
299.723
299.695
299.665
299.633
299.598
299.561
299.522
299.48
299.435
299.387
299.337
299.283
299.227
299.167
299.105
299.039
298.971
298.899
298.824
298.746
298.665
298.581
298.494
298.405
298.313
298.218
298.121
298.022
297.921
297.818
297.713
297.607
297.5
297.392
297.283
297.173
297.063
296.953
296.843
296.734
296.625
296.517
296.41
296.304
296.2
296.097
295.997
295.898
295.801
295.707
295.615
295.526
295.439
295.356
295.275
295.197
295.122
295.05
294.981
294.916
294.853
294.794
294.737
294.684
294.634
294.587
294.543
294.501
294.463
294.427
294.394
294.363
294.335
294.309
294.285
294.263
294.243
294.225
294.209
294.194
294.18
294.168
294.156
294.146
294.136
294.127
294.119
294.111
294.103
294.095
294.087
294.079
294.071
294.062
294.053
294.043
294.032
294.019
294.006
293.991
293.974
293.956
293.935
293.912
293.887
293.858
293.826
293.79
293.749
293.703
293.652
293.594
293.528
293.454
293.371
293.276
293.169
293.047
292.91
292.754
292.578
292.379
292.154
291.9
291.614
291.293
290.932
290.528
290.076
289.572
289.012
288.389
287.7
286.939
286.099
285.177
284.165
283.057
281.845
280.52
279.07
277.476
275.707
273.708
271.385
268.559
264.904
259.808
252.132
239.752
218.702
181.591
114.657
-7.70644
-233.091
-649.868
-1421.98
-2853.29
-5506.45
-10422.5
-19525.8
-36371.2
-67516.8
300
300
300
300
300
300
300
300
300
300
300
300
300
300
300
300
300
300
300
300
300
300
300
300
300
300
300
300
300
300
300
300
300
300
300
300
300
300
300
300
300
300
300
300
300
300
300
300
300
300
300
300
300
299.999
299.999
299.999
299.999
299.998
299.998
299.997
299.997
299.996
299.995
299.994
299.993
299.991
299.99
299.988
299.985
299.982
299.979
299.976
299.972
299.967
299.962
299.956
299.949
299.941
299.933
299.923
299.913
299.901
299.888
299.874
299.858
299.841
299.822
299.802
299.779
299.755
299.728
299.7
299.669
299.635
299.599
299.56
299.519
299.474
299.426
299.376
299.322
299.264
299.204
299.139
299.071
299
298.924
298.845
298.763
298.676
298.586
298.492
298.395
298.294