/*--------------------------------*- C++ -*----------------------------------*\
| =========                 |                                                 |
| \\      /  F ield         | OpenFOAM: The Open Source CFD Toolbox           |
|  \\    /   O peration     | Version:  2306                                  |
|   \\  /    A nd           | Website:  www.openfoam.com                      |
|    \\/     M anipulation  |                                                 |
\*---------------------------------------------------------------------------*/
FoamFile
{
    version     2.0;
    format      ascii;
    arch        "LSB;label=32;scalar=64";
    class       volVectorField;
    location    "7.5";
    object      U;
}
// * * * * * * * * * * * * * * * * * * * * * * * * * * * * * * * * * * * * * //

dimensions      [0 1 -1 0 0 0 0];

internalField   nonuniform List<vector> 
32768
(
(1.00001 -4.0447e-05 0)
(1.00017 -0.00012155 0)
(1.00049 -0.00020281 0)
(1.00097 -0.00028423 0)
(1.00162 -0.000365914 0)
(1.00244 -0.000447961 0)
(1.00342 -0.000530436 0)
(1.00456 -0.000613395 0)
(1.00587 -0.000696899 0)
(1.00735 -0.000781011 0)
(1.009 -0.000865787 0)
(1.01081 -0.000951277 0)
(1.0128 -0.00103752 0)
(1.01496 -0.00112456 0)
(1.0173 -0.00121242 0)
(1.01981 -0.00130113 0)
(1.02251 -0.00139068 0)
(1.02538 -0.00148109 0)
(1.02843 -0.00157234 0)
(1.03167 -0.00166441 0)
(1.03509 -0.00175727 0)
(1.0387 -0.00185088 0)
(1.04249 -0.00194518 0)
(1.04648 -0.00204008 0)
(1.05065 -0.00213552 0)
(1.05502 -0.00223139 0)
(1.05958 -0.00232757 0)
(1.06433 -0.00242394 0)
(1.06928 -0.00252035 0)
(1.07441 -0.00261665 0)
(1.07974 -0.00271266 0)
(1.08527 -0.0028082 0)
(1.09098 -0.00290306 0)
(1.09688 -0.00299705 0)
(1.10297 -0.00308993 0)
(1.10924 -0.00318148 0)
(1.1157 -0.00327145 0)
(1.12233 -0.0033596 0)
(1.12914 -0.00344568 0)
(1.13612 -0.00352943 0)
(1.14326 -0.00361061 0)
(1.15056 -0.00368895 0)
(1.15802 -0.00376422 0)
(1.16562 -0.00383617 0)
(1.17337 -0.00390456 0)
(1.18124 -0.00396918 0)
(1.18925 -0.00402982 0)
(1.19737 -0.00408629 0)
(1.2056 -0.00413843 0)
(1.21393 -0.00418606 0)
(1.22235 -0.00422908 0)
(1.23085 -0.00426737 0)
(1.23942 -0.00430085 0)
(1.24806 -0.00432946 0)
(1.25674 -0.00435318 0)
(1.26547 -0.004372 0)
(1.27424 -0.00438594 0)
(1.28302 -0.00439505 0)
(1.29182 -0.00439941 0)
(1.30062 -0.0043991 0)
(1.30942 -0.00439425 0)
(1.31821 -0.004385 0)
(1.32697 -0.00437149 0)
(1.3357 -0.00435391 0)
(1.34439 -0.00433243 0)
(1.35303 -0.00430726 0)
(1.36162 -0.0042786 0)
(1.37015 -0.00424668 0)
(1.37861 -0.0042117 0)
(1.387 -0.00417388 0)
(1.39531 -0.00413346 0)
(1.40353 -0.00409064 0)
(1.41167 -0.00404565 0)
(1.41972 -0.00399868 0)
(1.42767 -0.00394994 0)
(1.43552 -0.00389961 0)
(1.44327 -0.00384787 0)
(1.45091 -0.00379488 0)
(1.45845 -0.0037408 0)
(1.46588 -0.00368575 0)
(1.47319 -0.00362985 0)
(1.4804 -0.0035732 0)
(1.48749 -0.00351588 0)
(1.49446 -0.00345797 0)
(1.50132 -0.0033995 0)
(1.50806 -0.00334052 0)
(1.51468 -0.00328103 0)
(1.52118 -0.00322104 0)
(1.52756 -0.00316053 0)
(1.53382 -0.00309948 0)
(1.53996 -0.00303782 0)
(1.54597 -0.00297552 0)
(1.55186 -0.00291251 0)
(1.55762 -0.00284871 0)
(1.56326 -0.00278403 0)
(1.56876 -0.00271839 0)
(1.57413 -0.00265168 0)
(1.57937 -0.00258382 0)
(1.58447 -0.0025147 0)
(1.58943 -0.00244422 0)
(1.59424 -0.00237228 0)
(1.59892 -0.00229878 0)
(1.60344 -0.00222361 0)
(1.60781 -0.00214671 0)
(1.61203 -0.00206797 0)
(1.61608 -0.00198733 0)
(1.61998 -0.00190471 0)
(1.6237 -0.00182006 0)
(1.62726 -0.00173332 0)
(1.63064 -0.00164446 0)
(1.63384 -0.00155344 0)
(1.63685 -0.00146025 0)
(1.63968 -0.00136488 0)
(1.64231 -0.00126734 0)
(1.64475 -0.00116764 0)
(1.64698 -0.00106581 0)
(1.64901 -0.000961891 0)
(1.65083 -0.000855934 0)
(1.65244 -0.000747998 0)
(1.65382 -0.000638156 0)
(1.65499 -0.000526487 0)
(1.65593 -0.000413082 0)
(1.65664 -0.000298039 0)
(1.65712 -0.000181466 0)
(1.65737 -6.34761e-05 0)
(1.65738 5.58089e-05 0)
(1.65715 0.00017626 0)
(1.65667 0.000297748 0)
(1.65595 0.000420137 0)
(1.65499 0.000543284 0)
(1.65378 0.000667044 0)
(1.65232 0.000791272 0)
(1.65061 0.000915815 0)
(1.64866 0.00104052 0)
(1.64645 0.00116524 0)
(1.644 0.00128981 0)
(1.64129 0.00141409 0)
(1.63834 0.0015379 0)
(1.63514 0.00166111 0)
(1.63169 0.00178354 0)
(1.628 0.00190505 0)
(1.62407 0.00202548 0)
(1.6199 0.00214467 0)
(1.61549 0.00226247 0)
(1.61084 0.00237872 0)
(1.60597 0.00249327 0)
(1.60087 0.00260597 0)
(1.59554 0.00271666 0)
(1.59 0.0028252 0)
(1.58424 0.00293142 0)
(1.57827 0.0030352 0)
(1.57209 0.00313637 0)
(1.56572 0.0032348 0)
(1.55915 0.00333033 0)
(1.55239 0.00342285 0)
(1.54545 0.00351219 0)
(1.53834 0.00359824 0)
(1.53106 0.00368085 0)
(1.52361 0.00375992 0)
(1.51601 0.0038353 0)
(1.50827 0.0039069 0)
(1.50038 0.0039746 0)
(1.49236 0.00403829 0)
(1.48422 0.00409788 0)
(1.47596 0.00415328 0)
(1.4676 0.00420442 0)
(1.45914 0.00425122 0)
(1.45059 0.00429362 0)
(1.44196 0.00433156 0)
(1.43326 0.00436502 0)
(1.4245 0.00439395 0)
(1.41568 0.00441834 0)
(1.40682 0.00443819 0)
(1.39792 0.00445349 0)
(1.389 0.00446427 0)
(1.38006 0.00447055 0)
(1.37111 0.00447238 0)
(1.36216 0.0044698 0)
(1.35323 0.00446289 0)
(1.34431 0.00445171 0)
(1.33541 0.00443636 0)
(1.32656 0.00441693 0)
(1.31774 0.00439353 0)
(1.30898 0.00436628 0)
(1.30027 0.00433531 0)
(1.29163 0.00430075 0)
(1.28306 0.00426274 0)
(1.27458 0.00422144 0)
(1.26618 0.004177 0)
(1.25787 0.00412958 0)
(1.24965 0.00407935 0)
(1.24154 0.00402647 0)
(1.23354 0.00397113 0)
(1.22566 0.00391348 0)
(1.21789 0.00385371 0)
(1.21024 0.003792 0)
(1.20272 0.00372851 0)
(1.19532 0.00366342 0)
(1.18806 0.0035969 0)
(1.18093 0.00352913 0)
(1.17394 0.00346026 0)
(1.16709 0.00339046 0)
(1.16038 0.00331989 0)
(1.15381 0.0032487 0)
(1.14739 0.00317704 0)
(1.1411 0.00310505 0)
(1.13496 0.00303287 0)
(1.12897 0.00296063 0)
(1.12312 0.00288846 0)
(1.11742 0.00281647 0)
(1.11186 0.00274478 0)
(1.10644 0.00267349 0)
(1.10116 0.00260271 0)
(1.09603 0.00253252 0)
(1.09103 0.00246302 0)
(1.08618 0.00239428 0)
(1.08146 0.00232639 0)
(1.07687 0.0022594 0)
(1.07242 0.00219339 0)
(1.0681 0.00212841 0)
(1.06391 0.00206451 0)
(1.05984 0.00200175 0)
(1.0559 0.00194017 0)
(1.05208 0.00187981 0)
(1.04838 0.0018207 0)
(1.0448 0.00176288 0)
(1.04133 0.00170637 0)
(1.03797 0.0016512 0)
(1.03473 0.00159739 0)
(1.03159 0.00154495 0)
(1.02855 0.00149391 0)
(1.02561 0.00144426 0)
(1.02277 0.00139602 0)
(1.02003 0.0013492 0)
(1.01738 0.00130379 0)
(1.01481 0.0012598 0)
(1.01234 0.00121722 0)
(1.00995 0.00117604 0)
(1.00764 0.00113626 0)
(1.0054 0.00109787 0)
(1.00325 0.00106083 0)
(1.00116 0.00102515 0)
(0.999146 0.000990772 0)
(0.997199 0.000957681 0)
(0.995316 0.00092583 0)
(0.993496 0.000895168 0)
(0.991737 0.000865631 0)
(0.990034 0.000837143 0)
(0.98839 0.000809611 0)
(0.986795 0.000782929 0)
(0.985263 0.000756986 0)
(0.983758 0.000731555 0)
(0.982363 0.000706848 0)
(0.980864 0.000681271 0)
(0.979792 0.000659524 0)
(0.977749 0.000625292 0)
(1.00001 -0.000121517 0)
(1.00017 -0.000364873 0)
(1.00049 -0.000608612 0)
(1.00097 -0.000852867 0)
(1.00162 -0.00109792 0)
(1.00244 -0.00134402 0)
(1.00341 -0.0015914 0)
(1.00456 -0.00184023 0)
(1.00587 -0.0020907 0)
(1.00734 -0.002343 0)
(1.00899 -0.0025973 0)
(1.01081 -0.00285375 0)
(1.01279 -0.00311247 0)
(1.01495 -0.00337358 0)
(1.01729 -0.00363716 0)
(1.0198 -0.00390328 0)
(1.02249 -0.00417196 0)
(1.02536 -0.0044432 0)
(1.02841 -0.00471699 0)
(1.03165 -0.00499326 0)
(1.03507 -0.0052719 0)
(1.03868 -0.00555279 0)
(1.04247 -0.00583576 0)
(1.04646 -0.00612058 0)
(1.05063 -0.006407 0)
(1.055 -0.00669472 0)
(1.05956 -0.0069834 0)
(1.06431 -0.00727265 0)
(1.06926 -0.00756204 0)
(1.0744 -0.0078511 0)
(1.07973 -0.00813931 0)
(1.08525 -0.00842611 0)
(1.09097 -0.00871091 0)
(1.09687 -0.00899307 0)
(1.10296 -0.00927193 0)
(1.10924 -0.00954678 0)
(1.1157 -0.00981692 0)
(1.12234 -0.0100816 0)
(1.12915 -0.0103401 0)
(1.13613 -0.0105916 0)
(1.14328 -0.0108353 0)
(1.15059 -0.0110706 0)
(1.15806 -0.0112966 0)
(1.16567 -0.0115126 0)
(1.17342 -0.011718 0)
(1.18131 -0.011912 0)
(1.18932 -0.0120941 0)
(1.19745 -0.0122636 0)
(1.20569 -0.0124201 0)
(1.21403 -0.0125631 0)
(1.22246 -0.0126922 0)
(1.23097 -0.0128071 0)
(1.23956 -0.0129076 0)
(1.2482 -0.0129934 0)
(1.2569 -0.0130646 0)
(1.26564 -0.013121 0)
(1.27442 -0.0131627 0)
(1.28322 -0.01319 0)
(1.29203 -0.0132029 0)
(1.30084 -0.0132018 0)
(1.30965 -0.0131871 0)
(1.31844 -0.0131592 0)
(1.32721 -0.0131185 0)
(1.33595 -0.0130655 0)
(1.34465 -0.0130009 0)
(1.3533 -0.0129252 0)
(1.3619 -0.012839 0)
(1.37043 -0.012743 0)
(1.3789 -0.0126378 0)
(1.3873 -0.0125241 0)
(1.39561 -0.0124026 0)
(1.40385 -0.012274 0)
(1.41199 -0.0121388 0)
(1.42004 -0.0119977 0)
(1.428 -0.0118513 0)
(1.43585 -0.0117001 0)
(1.4436 -0.0115447 0)
(1.45125 -0.0113856 0)
(1.45879 -0.0112232 0)
(1.46622 -0.011058 0)
(1.47354 -0.0108902 0)
(1.48075 -0.0107201 0)
(1.48784 -0.0105481 0)
(1.49482 -0.0103743 0)
(1.50168 -0.0101989 0)
(1.50842 -0.0100219 0)
(1.51504 -0.00984345 0)
(1.52155 -0.00966348 0)
(1.52793 -0.00948197 0)
(1.53419 -0.00929882 0)
(1.54033 -0.00911391 0)
(1.54635 -0.00892706 0)
(1.55224 -0.00873808 0)
(1.558 -0.00854673 0)
(1.56364 -0.00835276 0)
(1.56914 -0.00815591 0)
(1.57452 -0.00795588 0)
(1.57976 -0.00775238 0)
(1.58486 -0.0075451 0)
(1.58982 -0.00733373 0)
(1.59464 -0.00711797 0)
(1.59932 -0.00689752 0)
(1.60385 -0.0066721 0)
(1.60822 -0.00644144 0)
(1.61244 -0.00620527 0)
(1.6165 -0.00596339 0)
(1.6204 -0.00571556 0)
(1.62413 -0.00546162 0)
(1.62769 -0.00520141 0)
(1.63108 -0.00493482 0)
(1.63428 -0.00466176 0)
(1.6373 -0.00438216 0)
(1.64013 -0.00409602 0)
(1.64277 -0.00380335 0)
(1.64521 -0.0035042 0)
(1.64745 -0.00319865 0)
(1.64948 -0.00288682 0)
(1.65131 -0.00256886 0)
(1.65292 -0.00224496 0)
(1.65431 -0.00191533 0)
(1.65548 -0.00158021 0)
(1.65642 -0.00123988 0)
(1.65714 -0.000894628 0)
(1.65762 -0.000544779 0)
(1.65787 -0.000190672 0)
(1.65788 0.000167324 0)
(1.65765 0.000528827 0)
(1.65718 0.000893444 0)
(1.65646 0.00126076 0)
(1.6555 0.00163036 0)
(1.65429 0.0020018 0)
(1.65283 0.00237465 0)
(1.65112 0.00274844 0)
(1.64916 0.00312272 0)
(1.64696 0.00349704 0)
(1.6445 0.00387092 0)
(1.64179 0.00424391 0)
(1.63884 0.00461552 0)
(1.63564 0.00498529 0)
(1.63219 0.00535276 0)
(1.62849 0.00571745 0)
(1.62456 0.00607889 0)
(1.62038 0.00643662 0)
(1.61597 0.00679016 0)
(1.61132 0.00713907 0)
(1.60644 0.00748287 0)
(1.60134 0.00782111 0)
(1.596 0.00815332 0)
(1.59045 0.00847907 0)
(1.58469 0.00879789 0)
(1.57871 0.00910935 0)
(1.57253 0.00941301 0)
(1.56615 0.00970842 0)
(1.55957 0.00999516 0)
(1.55281 0.0102728 0)
(1.54586 0.010541 0)
(1.53874 0.0107992 0)
(1.53145 0.0110472 0)
(1.52399 0.0112845 0)
(1.51638 0.0115107 0)
(1.50863 0.0117256 0)
(1.50073 0.0119288 0)
(1.49271 0.0121199 0)
(1.48455 0.0122988 0)
(1.47629 0.012465 0)
(1.46792 0.0126185 0)
(1.45944 0.0127589 0)
(1.45088 0.0128862 0)
(1.44224 0.013 0)
(1.43353 0.0131004 0)
(1.42476 0.0131872 0)
(1.41593 0.0132603 0)
(1.40706 0.0133199 0)
(1.39815 0.0133657 0)
(1.38921 0.013398 0)
(1.38026 0.0134168 0)
(1.3713 0.0134222 0)
(1.36235 0.0134144 0)
(1.3534 0.0133935 0)
(1.34447 0.0133599 0)
(1.33557 0.0133137 0)
(1.3267 0.0132553 0)
(1.31787 0.013185 0)
(1.3091 0.0131031 0)
(1.30039 0.01301 0)
(1.29174 0.0129062 0)
(1.28316 0.012792 0)
(1.27467 0.0126679 0)
(1.26626 0.0125344 0)
(1.25794 0.012392 0)
(1.24972 0.0122411 0)
(1.2416 0.0120823 0)
(1.2336 0.0119161 0)
(1.2257 0.011743 0)
(1.21793 0.0115635 0)
(1.21028 0.0113782 0)
(1.20275 0.0111875 0)
(1.19535 0.0109921 0)
(1.18808 0.0107924 0)
(1.18095 0.0105889 0)
(1.17396 0.0103821 0)
(1.1671 0.0101725 0)
(1.16039 0.00996067 0)
(1.15382 0.00974695 0)
(1.14739 0.00953183 0)
(1.1411 0.00931572 0)
(1.13496 0.00909905 0)
(1.12897 0.00888221 0)
(1.12312 0.00866557 0)
(1.11741 0.00844949 0)
(1.11185 0.00823431 0)
(1.10643 0.00802035 0)
(1.10116 0.00780791 0)
(1.09602 0.00759726 0)
(1.09103 0.00738867 0)
(1.08617 0.00718238 0)
(1.08145 0.00697861 0)
(1.07687 0.00677759 0)
(1.07242 0.00657949 0)
(1.0681 0.0063845 0)
(1.06391 0.00619277 0)
(1.05984 0.00600445 0)
(1.05591 0.00581967 0)
(1.05209 0.00563855 0)
(1.04839 0.0054612 0)
(1.04481 0.00528771 0)
(1.04134 0.00511816 0)
(1.03799 0.00495263 0)
(1.03474 0.00479118 0)
(1.0316 0.00463386 0)
(1.02857 0.00448072 0)
(1.02563 0.00433178 0)
(1.0228 0.00418706 0)
(1.02005 0.00404659 0)
(1.0174 0.00391037 0)
(1.01484 0.0037784 0)
(1.01237 0.00365067 0)
(1.00998 0.00352715 0)
(1.00767 0.00340782 0)
(1.00544 0.00329264 0)
(1.00328 0.00318156 0)
(1.0012 0.0030745 0)
(0.999188 0.0029714 0)
(0.997243 0.00287214 0)
(0.995362 0.0027766 0)
(0.993544 0.00268463 0)
(0.991786 0.00259604 0)
(0.990086 0.00251059 0)
(0.988443 0.00242803 0)
(0.98685 0.00234797 0)
(0.985319 0.00227025 0)
(0.983815 0.00219381 0)
(0.982423 0.0021202 0)
(0.980924 0.00204269 0)
(0.979856 0.0019798 0)
(0.977813 0.00187415 0)
(1.00001 -0.000202615 0)
(1.00017 -0.000608076 0)
(1.00049 -0.00101409 0)
(1.00097 -0.00142103 0)
(1.00162 -0.0018293 0)
(1.00243 -0.00223931 0)
(1.00341 -0.00265141 0)
(1.00455 -0.00306595 0)
(1.00586 -0.00348325 0)
(1.00733 -0.00390361 0)
(1.00898 -0.00432733 0)
(1.01079 -0.00475464 0)
(1.01277 -0.00518578 0)
(1.01493 -0.00562091 0)
(1.01727 -0.0060602 0)
(1.01977 -0.00650373 0)
(1.02246 -0.00695158 0)
(1.02533 -0.00740374 0)
(1.02838 -0.00786018 0)
(1.03161 -0.00832078 0)
(1.03503 -0.00878539 0)
(1.03864 -0.00925379 0)
(1.04243 -0.00972569 0)
(1.04642 -0.0102007 0)
(1.05059 -0.0106785 0)
(1.05496 -0.0111584 0)
(1.05952 -0.0116401 0)
(1.06427 -0.0121227 0)
(1.06922 -0.0126056 0)
(1.07436 -0.013088 0)
(1.07969 -0.013569 0)
(1.08522 -0.0140477 0)
(1.09094 -0.0145231 0)
(1.09685 -0.0149941 0)
(1.10295 -0.0154597 0)
(1.10924 -0.0159187 0)
(1.1157 -0.0163697 0)
(1.12235 -0.0168117 0)
(1.12918 -0.0172434 0)
(1.13617 -0.0176634 0)
(1.14333 -0.0180705 0)
(1.15066 -0.0184635 0)
(1.15814 -0.018841 0)
(1.16577 -0.0192018 0)
(1.17354 -0.0195449 0)
(1.18144 -0.0198689 0)
(1.18947 -0.020173 0)
(1.19762 -0.0204562 0)
(1.20588 -0.0207175 0)
(1.21424 -0.0209563 0)
(1.22269 -0.0211719 0)
(1.23123 -0.0213636 0)
(1.23983 -0.0215312 0)
(1.2485 -0.0216744 0)
(1.25722 -0.0217929 0)
(1.26599 -0.0218868 0)
(1.27478 -0.0219562 0)
(1.2836 -0.0220014 0)
(1.29243 -0.0220226 0)
(1.30127 -0.0220204 0)
(1.3101 -0.0219954 0)
(1.31891 -0.0219483 0)
(1.3277 -0.0218798 0)
(1.33646 -0.0217909 0)
(1.34518 -0.0216825 0)
(1.35384 -0.0215556 0)
(1.36246 -0.0214112 0)
(1.37101 -0.0212504 0)
(1.37949 -0.0210743 0)
(1.3879 -0.0208841 0)
(1.39623 -0.0206809 0)
(1.40447 -0.0204657 0)
(1.41263 -0.0202396 0)
(1.42069 -0.0200037 0)
(1.42865 -0.019759 0)
(1.43652 -0.0195065 0)
(1.44428 -0.0192469 0)
(1.45193 -0.0189812 0)
(1.45948 -0.0187101 0)
(1.46691 -0.0184342 0)
(1.47424 -0.0181542 0)
(1.48145 -0.0178705 0)
(1.48855 -0.0175835 0)
(1.49553 -0.0172937 0)
(1.50239 -0.0170011 0)
(1.50914 -0.0167061 0)
(1.51577 -0.0164086 0)
(1.52227 -0.0161087 0)
(1.52866 -0.0158062 0)
(1.53493 -0.0155011 0)
(1.54107 -0.015193 0)
(1.54709 -0.0148818 0)
(1.55299 -0.014567 0)
(1.55876 -0.0142484 0)
(1.5644 -0.0139254 0)
(1.56991 -0.0135976 0)
(1.57529 -0.0132645 0)
(1.58053 -0.0129256 0)
(1.58564 -0.0125804 0)
(1.59061 -0.0122284 0)
(1.59544 -0.0118691 0)
(1.60013 -0.0115019 0)
(1.60466 -0.0111265 0)
(1.60905 -0.0107423 0)
(1.61327 -0.0103489 0)
(1.61734 -0.00994589 0)
(1.62125 -0.00953299 0)
(1.62499 -0.00910987 0)
(1.62856 -0.00867626 0)
(1.63195 -0.00823197 0)
(1.63517 -0.00777686 0)
(1.6382 -0.00731083 0)
(1.64104 -0.00683384 0)
(1.64368 -0.00634593 0)
(1.64613 -0.00584718 0)
(1.64838 -0.00533772 0)
(1.65042 -0.00481777 0)
(1.65226 -0.00428756 0)
(1.65387 -0.00374741 0)
(1.65527 -0.00319768 0)
(1.65645 -0.00263877 0)
(1.6574 -0.00207114 0)
(1.65812 -0.00149528 0)
(1.65861 -0.000911743 0)
(1.65886 -0.000321086 0)
(1.65888 0.000276078 0)
(1.65865 0.000879111 0)
(1.65818 0.00148735 0)
(1.65747 0.0021001 0)
(1.65651 0.00271666 0)
(1.6553 0.00333631 0)
(1.65384 0.00395829 0)
(1.65213 0.00458187 0)
(1.65018 0.00520627 0)
(1.64797 0.00583073 0)
(1.64551 0.00645446 0)
(1.6428 0.0070767 0)
(1.63984 0.00769666 0)
(1.63663 0.00831355 0)
(1.63318 0.00892659 0)
(1.62948 0.00953499 0)
(1.62554 0.010138 0)
(1.62135 0.0107348 0)
(1.61693 0.0113246 0)
(1.61228 0.0119067 0)
(1.60739 0.0124803 0)
(1.60227 0.0130446 0)
(1.59693 0.0135988 0)
(1.59137 0.0141423 0)
(1.58559 0.0146742 0)
(1.5796 0.0151939 0)
(1.57341 0.0157005 0)
(1.56701 0.0161934 0)
(1.56042 0.0166718 0)
(1.55364 0.0171351 0)
(1.54668 0.0175825 0)
(1.53954 0.0180134 0)
(1.53223 0.0184271 0)
(1.52476 0.018823 0)
(1.51713 0.0192005 0)
(1.50936 0.0195591 0)
(1.50144 0.0198981 0)
(1.49339 0.020217 0)
(1.48522 0.0205154 0)
(1.47694 0.0207928 0)
(1.46854 0.0210488 0)
(1.46005 0.021283 0)
(1.45147 0.0214953 0)
(1.44281 0.0216852 0)
(1.43407 0.0218525 0)
(1.42528 0.0219973 0)
(1.41643 0.0221192 0)
(1.40753 0.0222184 0)
(1.3986 0.0222948 0)
(1.38965 0.0223485 0)
(1.38067 0.0223796 0)
(1.37169 0.0223884 0)
(1.36271 0.0223751 0)
(1.35375 0.0223401 0)
(1.3448 0.0222837 0)
(1.33587 0.0222064 0)
(1.32698 0.0221087 0)
(1.31814 0.021991 0)
(1.30935 0.0218541 0)
(1.30062 0.0216985 0)
(1.29195 0.0215249 0)
(1.28336 0.0213341 0)
(1.27484 0.0211267 0)
(1.26642 0.0209037 0)
(1.25809 0.0206657 0)
(1.24985 0.0204136 0)
(1.24172 0.0201483 0)
(1.2337 0.0198706 0)
(1.2258 0.0195815 0)
(1.21801 0.0192817 0)
(1.21035 0.0189722 0)
(1.20281 0.0186538 0)
(1.1954 0.0183274 0)
(1.18813 0.0179939 0)
(1.18099 0.0176542 0)
(1.17399 0.017309 0)
(1.16713 0.0169591 0)
(1.16041 0.0166055 0)
(1.15383 0.0162487 0)
(1.1474 0.0158896 0)
(1.14111 0.0155289 0)
(1.13497 0.0151673 0)
(1.12897 0.0148055 0)
(1.12312 0.014444 0)
(1.11741 0.0140834 0)
(1.11185 0.0137244 0)
(1.10643 0.0133674 0)
(1.10115 0.0130129 0)
(1.09602 0.0126615 0)
(1.09102 0.0123136 0)
(1.08617 0.0119695 0)
(1.08145 0.0116296 0)
(1.07687 0.0112943 0)
(1.07242 0.0109639 0)
(1.0681 0.0106387 0)
(1.06391 0.010319 0)
(1.05985 0.0100049 0)
(1.05592 0.00969681 0)
(1.0521 0.00939481 0)
(1.04841 0.00909911 0)
(1.04483 0.00880986 0)
(1.04137 0.00852719 0)
(1.03802 0.00825124 0)
(1.03477 0.00798209 0)
(1.03164 0.00771984 0)
(1.02861 0.00746455 0)
(1.02567 0.00721629 0)
(1.02284 0.00697508 0)
(1.0201 0.00674095 0)
(1.01746 0.00651392 0)
(1.0149 0.00629397 0)
(1.01243 0.00608109 0)
(1.01005 0.00587525 0)
(1.00774 0.00567639 0)
(1.00551 0.00548444 0)
(1.00336 0.00529933 0)
(1.00128 0.00512094 0)
(0.999273 0.00494914 0)
(0.997331 0.00478375 0)
(0.995454 0.00462457 0)
(0.99364 0.00447133 0)
(0.991885 0.00432373 0)
(0.990188 0.00418136 0)
(0.988549 0.00404384 0)
(0.986959 0.00391044 0)
(0.985432 0.00378108 0)
(0.983931 0.00365356 0)
(0.982542 0.00353154 0)
(0.981046 0.00340157 0)
(0.979981 0.00329939 0)
(0.977942 0.00312003 0)
(1.00001 -0.000283442 0)
(1.00017 -0.000850601 0)
(1.00048 -0.00141854 0)
(1.00097 -0.00198781 0)
(1.00162 -0.00255898 0)
(1.00243 -0.00313258 0)
(1.0034 -0.00370914 0)
(1.00454 -0.00428913 0)
(1.00584 -0.00487301 0)
(1.00732 -0.00546123 0)
(1.00896 -0.00605417 0)
(1.01077 -0.0066522 0)
(1.01275 -0.00725563 0)
(1.0149 -0.00786472 0)
(1.01723 -0.00847967 0)
(1.01974 -0.00910065 0)
(1.02242 -0.00972773 0)
(1.02528 -0.0103609 0)
(1.02833 -0.0110002 0)
(1.03156 -0.0116453 0)
(1.03497 -0.0122962 0)
(1.03858 -0.0129525 0)
(1.04237 -0.0136138 0)
(1.04635 -0.0142795 0)
(1.05053 -0.0149492 0)
(1.05489 -0.015622 0)
(1.05945 -0.0162973 0)
(1.06421 -0.0169741 0)
(1.06916 -0.0176514 0)
(1.0743 -0.018328 0)
(1.07964 -0.0190028 0)
(1.08518 -0.0196745 0)
(1.0909 -0.0203417 0)
(1.09682 -0.0210028 0)
(1.10293 -0.0216563 0)
(1.10923 -0.0223006 0)
(1.11571 -0.022934 0)
(1.12237 -0.0235546 0)
(1.12921 -0.0241608 0)
(1.13623 -0.0247507 0)
(1.14341 -0.0253226 0)
(1.15075 -0.0258745 0)
(1.15825 -0.0264048 0)
(1.16591 -0.0269117 0)
(1.1737 -0.0273935 0)
(1.18164 -0.0278488 0)
(1.18969 -0.0282759 0)
(1.19787 -0.0286736 0)
(1.20616 -0.0290406 0)
(1.21456 -0.0293759 0)
(1.22304 -0.0296784 0)
(1.23161 -0.0299475 0)
(1.24025 -0.0301826 0)
(1.24895 -0.0303832 0)
(1.2577 -0.0305492 0)
(1.2665 -0.0306805 0)
(1.27533 -0.0307774 0)
(1.28418 -0.0308401 0)
(1.29305 -0.0308691 0)
(1.30191 -0.0308653 0)
(1.31077 -0.0308293 0)
(1.31962 -0.0307622 0)
(1.32844 -0.0306651 0)
(1.33722 -0.0305393 0)
(1.34597 -0.0303861 0)
(1.35466 -0.0302069 0)
(1.3633 -0.0300032 0)
(1.37187 -0.0297765 0)
(1.38038 -0.0295284 0)
(1.38881 -0.0292606 0)
(1.39715 -0.0289744 0)
(1.40542 -0.0286716 0)
(1.41359 -0.0283536 0)
(1.42166 -0.028022 0)
(1.42964 -0.027678 0)
(1.43752 -0.0273231 0)
(1.44529 -0.0269586 0)
(1.45295 -0.0265855 0)
(1.46051 -0.0262049 0)
(1.46795 -0.0258178 0)
(1.47528 -0.0254249 0)
(1.4825 -0.0250271 0)
(1.48961 -0.0246248 0)
(1.49659 -0.0242186 0)
(1.50346 -0.0238088 0)
(1.51022 -0.0233956 0)
(1.51685 -0.022979 0)
(1.52336 -0.0225592 0)
(1.52976 -0.0221359 0)
(1.53603 -0.0217089 0)
(1.54218 -0.0212779 0)
(1.54821 -0.0208426 0)
(1.55411 -0.0204024 0)
(1.55989 -0.0199568 0)
(1.56554 -0.0195051 0)
(1.57105 -0.0190467 0)
(1.57644 -0.018581 0)
(1.5817 -0.0181072 0)
(1.58682 -0.0176246 0)
(1.5918 -0.0171324 0)
(1.59664 -0.01663 0)
(1.60133 -0.0161165 0)
(1.60588 -0.0155914 0)
(1.61028 -0.015054 0)
(1.61452 -0.0145037 0)
(1.6186 -0.0139399 0)
(1.62252 -0.0133622 0)
(1.62628 -0.01277 0)
(1.62986 -0.0121632 0)
(1.63327 -0.0115412 0)
(1.63649 -0.0109041 0)
(1.63954 -0.0102516 0)
(1.64239 -0.00958364 0)
(1.64505 -0.00890032 0)
(1.64752 -0.00820174 0)
(1.64978 -0.0074881 0)
(1.65183 -0.00675967 0)
(1.65368 -0.00601681 0)
(1.65531 -0.00525997 0)
(1.65672 -0.00448963 0)
(1.6579 -0.00370638 0)
(1.65886 -0.00291086 0)
(1.6596 -0.00210377 0)
(1.66009 -0.00128586 0)
(1.66035 -0.000457947 0)
(1.66038 0.000379122 0)
(1.66016 0.00122445 0)
(1.65969 0.0020771 0)
(1.65898 0.00293611 0)
(1.65802 0.00380047 0)
(1.65682 0.00466916 0)
(1.65536 0.00554116 0)
(1.65365 0.00641539 0)
(1.65169 0.00729079 0)
(1.64948 0.00816628 0)
(1.64702 0.00904076 0)
(1.64431 0.00991315 0)
(1.64134 0.0107823 0)
(1.63813 0.0116472 0)
(1.63467 0.0125068 0)
(1.63096 0.0133598 0)
(1.62701 0.0142052 0)
(1.62281 0.015042 0)
(1.61838 0.015869 0)
(1.61371 0.0166851 0)
(1.60881 0.0174894 0)
(1.60368 0.0182806 0)
(1.59832 0.0190578 0)
(1.59274 0.0198198 0)
(1.58694 0.0205657 0)
(1.58093 0.0212943 0)
(1.57472 0.0220048 0)
(1.5683 0.0226959 0)
(1.56169 0.0233668 0)
(1.55489 0.0240165 0)
(1.5479 0.0246439 0)
(1.54074 0.0252482 0)
(1.5334 0.0258284 0)
(1.5259 0.0263836 0)
(1.51825 0.0269131 0)
(1.51045 0.0274158 0)
(1.5025 0.0278912 0)
(1.49443 0.0283385 0)
(1.48622 0.0287569 0)
(1.47791 0.0291459 0)
(1.46948 0.0295049 0)
(1.46096 0.0298334 0)
(1.45234 0.0301309 0)
(1.44365 0.0303971 0)
(1.43488 0.0306317 0)
(1.42605 0.0308344 0)
(1.41717 0.0310053 0)
(1.40824 0.0311441 0)
(1.39928 0.0312509 0)
(1.39029 0.0313259 0)
(1.38129 0.0313692 0)
(1.37227 0.0313812 0)
(1.36326 0.0313622 0)
(1.35426 0.0313126 0)
(1.34528 0.031233 0)
(1.33633 0.0311241 0)
(1.32741 0.0309864 0)
(1.31854 0.0308209 0)
(1.30972 0.0306283 0)
(1.30096 0.0304094 0)
(1.29226 0.0301654 0)
(1.28365 0.0298971 0)
(1.27511 0.0296056 0)
(1.26666 0.0292922 0)
(1.2583 0.0289578 0)
(1.25005 0.0286036 0)
(1.2419 0.0282309 0)
(1.23386 0.0278409 0)
(1.22594 0.0274347 0)
(1.21813 0.0270137 0)
(1.21045 0.0265791 0)
(1.2029 0.0261321 0)
(1.19548 0.0256739 0)
(1.18819 0.0252057 0)
(1.18104 0.0247288 0)
(1.17403 0.0242443 0)
(1.16716 0.0237533 0)
(1.16043 0.023257 0)
(1.15385 0.0227564 0)
(1.14741 0.0222526 0)
(1.14111 0.0217466 0)
(1.13497 0.0212393 0)
(1.12896 0.0207317 0)
(1.12311 0.0202247 0)
(1.1174 0.019719 0)
(1.11184 0.0192155 0)
(1.10642 0.0187149 0)
(1.10114 0.018218 0)
(1.09601 0.0177253 0)
(1.09101 0.0172375 0)
(1.08616 0.0167551 0)
(1.08144 0.0162787 0)
(1.07686 0.0158088 0)
(1.07242 0.0153458 0)
(1.0681 0.0148901 0)
(1.06392 0.014442 0)
(1.05986 0.014002 0)
(1.05593 0.0135703 0)
(1.05212 0.0131472 0)
(1.04843 0.012733 0)
(1.04486 0.0123278 0)
(1.0414 0.0119319 0)
(1.03806 0.0115454 0)
(1.03482 0.0111685 0)
(1.03169 0.0108012 0)
(1.02866 0.0104437 0)
(1.02574 0.0100961 0)
(1.02291 0.00975831 0)
(1.02018 0.0094305 0)
(1.01754 0.00911263 0)
(1.01499 0.00880471 0)
(1.01252 0.00850669 0)
(1.01014 0.00821853 0)
(1.00784 0.00794016 0)
(1.00562 0.00767149 0)
(1.00348 0.00741239 0)
(1.0014 0.0071627 0)
(0.9994 0.00692225 0)
(0.997463 0.00669078 0)
(0.995592 0.00646801 0)
(0.993783 0.00625357 0)
(0.992034 0.00604703 0)
(0.990342 0.00584782 0)
(0.988708 0.0056554 0)
(0.987123 0.00546877 0)
(0.985601 0.00528784 0)
(0.984105 0.00510943 0)
(0.982721 0.00493896 0)
(0.98123 0.00475697 0)
(0.980168 0.00461467 0)
(0.978136 0.00436291 0)
(1.00001 -0.000364021 0)
(1.00017 -0.00109242 0)
(1.00048 -0.00182183 0)
(1.00097 -0.00255298 0)
(1.00161 -0.00328661 0)
(1.00242 -0.00402339 0)
(1.00339 -0.004764 0)
(1.00453 -0.00550908 0)
(1.00583 -0.00625921 0)
(1.00729 -0.00701498 0)
(1.00893 -0.0077769 0)
(1.01073 -0.00854543 0)
(1.01271 -0.00932099 0)
(1.01486 -0.0101039 0)
(1.01718 -0.0108945 0)
(1.01968 -0.0116929 0)
(1.02236 -0.0124993 0)
(1.02522 -0.0133137 0)
(1.02826 -0.014136 0)
(1.03149 -0.0149661 0)
(1.0349 -0.0158037 0)
(1.0385 -0.0166483 0)
(1.04228 -0.0174995 0)
(1.04626 -0.0183567 0)
(1.05044 -0.0192191 0)
(1.0548 -0.0200857 0)
(1.05936 -0.0209557 0)
(1.06412 -0.0218277 0)
(1.06907 -0.0227006 0)
(1.07422 -0.0235728 0)
(1.07957 -0.0244429 0)
(1.08511 -0.0253091 0)
(1.09085 -0.0261696 0)
(1.09678 -0.0270224 0)
(1.1029 -0.0278657 0)
(1.10921 -0.0286971 0)
(1.11571 -0.0295146 0)
(1.12239 -0.0303158 0)
(1.12926 -0.0310984 0)
(1.13629 -0.0318601 0)
(1.1435 -0.0325985 0)
(1.15088 -0.0333113 0)
(1.15841 -0.0339961 0)
(1.16609 -0.0346508 0)
(1.17392 -0.0352731 0)
(1.18189 -0.035861 0)
(1.18999 -0.0364126 0)
(1.19821 -0.0369261 0)
(1.20654 -0.0373999 0)
(1.21497 -0.0378326 0)
(1.2235 -0.038223 0)
(1.23211 -0.03857 0)
(1.2408 -0.0388729 0)
(1.24954 -0.0391313 0)
(1.25834 -0.0393448 0)
(1.26718 -0.0395134 0)
(1.27606 -0.0396374 0)
(1.28496 -0.0397171 0)
(1.29386 -0.0397533 0)
(1.30277 -0.0397469 0)
(1.31167 -0.039699 0)
(1.32056 -0.0396108 0)
(1.32942 -0.0394839 0)
(1.33824 -0.0393198 0)
(1.34702 -0.0391203 0)
(1.35575 -0.0388874 0)
(1.36442 -0.0386228 0)
(1.37302 -0.0383286 0)
(1.38156 -0.0380069 0)
(1.39001 -0.0376597 0)
(1.39839 -0.0372891 0)
(1.40667 -0.0368971 0)
(1.41486 -0.0364857 0)
(1.42296 -0.0360567 0)
(1.43095 -0.0356122 0)
(1.43885 -0.0351536 0)
(1.44663 -0.0346828 0)
(1.45431 -0.0342012 0)
(1.46188 -0.0337102 0)
(1.46934 -0.0332109 0)
(1.47668 -0.0327045 0)
(1.48391 -0.0321919 0)
(1.49102 -0.0316738 0)
(1.49801 -0.0311509 0)
(1.50489 -0.0306234 0)
(1.51165 -0.0300918 0)
(1.51829 -0.0295562 0)
(1.52482 -0.0290164 0)
(1.53122 -0.0284724 0)
(1.5375 -0.0279239 0)
(1.54366 -0.0273703 0)
(1.54969 -0.0268113 0)
(1.5556 -0.0262461 0)
(1.56139 -0.025674 0)
(1.56705 -0.0250943 0)
(1.57258 -0.024506 0)
(1.57798 -0.0239083 0)
(1.58325 -0.0233002 0)
(1.58838 -0.0226807 0)
(1.59338 -0.022049 0)
(1.59823 -0.0214041 0)
(1.60294 -0.0207449 0)
(1.6075 -0.0200707 0)
(1.61192 -0.0193806 0)
(1.61618 -0.0186738 0)
(1.62028 -0.0179496 0)
(1.62422 -0.0172073 0)
(1.62799 -0.0164464 0)
(1.63159 -0.0156664 0)
(1.63502 -0.014867 0)
(1.63826 -0.0140478 0)
(1.64132 -0.0132087 0)
(1.6442 -0.0123497 0)
(1.64688 -0.0114707 0)
(1.64936 -0.010572 0)
(1.65164 -0.00965374 0)
(1.65371 -0.00871635 0)
(1.65557 -0.00776028 0)
(1.65722 -0.00678609 0)
(1.65864 -0.00579444 0)
(1.65984 -0.00478607 0)
(1.66082 -0.00376181 0)
(1.66156 -0.00272258 0)
(1.66207 -0.00166935 0)
(1.66234 -0.000603164 0)
(1.66237 0.000474863 0)
(1.66216 0.00156358 0)
(1.6617 0.00266176 0)
(1.661 0.00376816 0)
(1.66004 0.0048815 0)
(1.65884 0.00600045 0)
(1.65738 0.00712366 0)
(1.65568 0.00824978 0)
(1.65371 0.00937742 0)
(1.6515 0.0105052 0)
(1.64903 0.0116317 0)
(1.64631 0.0127555 0)
(1.64334 0.0138751 0)
(1.64012 0.0149893 0)
(1.63665 0.0160965 0)
(1.63293 0.0171954 0)
(1.62896 0.0182846 0)
(1.62476 0.0193625 0)
(1.62031 0.0204279 0)
(1.61562 0.0214794 0)
(1.6107 0.0225155 0)
(1.60555 0.0235348 0)
(1.60017 0.0245361 0)
(1.59456 0.0255179 0)
(1.58874 0.0264789 0)
(1.58271 0.0274178 0)
(1.57647 0.0283331 0)
(1.57002 0.0292237 0)
(1.56338 0.0300882 0)
(1.55655 0.0309253 0)
(1.54953 0.0317338 0)
(1.54233 0.0325125 0)
(1.53496 0.0332602 0)
(1.52743 0.0339757 0)
(1.51974 0.0346579 0)
(1.5119 0.0353059 0)
(1.50392 0.0359185 0)
(1.4958 0.0364948 0)
(1.48756 0.037034 0)
(1.4792 0.0375352 0)
(1.47073 0.0379977 0)
(1.46217 0.0384209 0)
(1.45351 0.0388041 0)
(1.44477 0.0391469 0)
(1.43596 0.039449 0)
(1.42709 0.03971 0)
(1.41816 0.0399298 0)
(1.40919 0.0401082 0)
(1.40018 0.0402454 0)
(1.39115 0.0403415 0)
(1.3821 0.0403967 0)
(1.37305 0.0404115 0)
(1.36399 0.0403862 0)
(1.35495 0.0403216 0)
(1.34593 0.0402182 0)
(1.33694 0.0400769 0)
(1.32798 0.0398986 0)
(1.31907 0.0396842 0)
(1.31021 0.039435 0)
(1.30141 0.0391519 0)
(1.29268 0.0388363 0)
(1.28403 0.0384895 0)
(1.27546 0.0381128 0)
(1.26698 0.0377077 0)
(1.25859 0.0372757 0)
(1.25031 0.0368182 0)
(1.24213 0.0363368 0)
(1.23407 0.0358331 0)
(1.22612 0.0353087 0)
(1.21829 0.0347652 0)
(1.21059 0.0342041 0)
(1.20302 0.0336271 0)
(1.19558 0.0330358 0)
(1.18828 0.0324317 0)
(1.18111 0.0318163 0)
(1.17408 0.0311913 0)
(1.1672 0.0305579 0)
(1.16046 0.0299178 0)
(1.15387 0.0292722 0)
(1.14742 0.0286226 0)
(1.14112 0.0279702 0)
(1.13496 0.0273162 0)
(1.12896 0.0266619 0)
(1.1231 0.0260084 0)
(1.11739 0.0253567 0)
(1.11182 0.024708 0)
(1.1064 0.024063 0)
(1.10112 0.0234228 0)
(1.09599 0.0227881 0)
(1.091 0.0221598 0)
(1.08615 0.0215386 0)
(1.08143 0.0209252 0)
(1.07686 0.0203201 0)
(1.07242 0.0197239 0)
(1.06811 0.0191372 0)
(1.06393 0.0185605 0)
(1.05988 0.0179942 0)
(1.05595 0.0174386 0)
(1.05215 0.0168941 0)
(1.04846 0.0163611 0)
(1.0449 0.0158398 0)
(1.04145 0.0153304 0)
(1.03811 0.0148332 0)
(1.03488 0.0143483 0)
(1.03176 0.0138759 0)
(1.02874 0.0134161 0)
(1.02582 0.012969 0)
(1.023 0.0125347 0)
(1.02028 0.0121132 0)
(1.01764 0.0117045 0)
(1.0151 0.0113086 0)
(1.01265 0.0109254 0)
(1.01027 0.010555 0)
(1.00798 0.0101971 0)
(1.00577 0.00985178 0)
(1.00363 0.00951874 0)
(1.00156 0.00919783 0)
(0.999568 0.0088888 0)
(0.99764 0.00859133 0)
(0.995776 0.00830506 0)
(0.993974 0.00802951 0)
(0.992232 0.00776412 0)
(0.990547 0.00750818 0)
(0.98892 0.00726099 0)
(0.987342 0.00702124 0)