/*--------------------------------*- C++ -*----------------------------------*\
| =========                 |                                                 |
| \\      /  F ield         | OpenFOAM: The Open Source CFD Toolbox           |
|  \\    /   O peration     | Version:  2306                                  |
|   \\  /    A nd           | Website:  www.openfoam.com                      |
|    \\/     M anipulation  |                                                 |
\*---------------------------------------------------------------------------*/
FoamFile
{
    version     2.0;
    format      ascii;
    arch        "LSB;label=32;scalar=64";
    class       volScalarField;
    location    "0.055";
    object      G;
}
// * * * * * * * * * * * * * * * * * * * * * * * * * * * * * * * * * * * * * //

dimensions      [1 0 -3 0 0 0 0];

internalField   nonuniform List<scalar> 
100
(
9887.09
10906.3
11627.7
11995
12176.7
12176.7
11995
11627.7
10906.3
9887.1
10906.3
12159.2
13016.2
13458.8
13672.5
13672.5
13458.8
13016.2
12159.2
10906.3
11627.7
13016.2
13980.9
14487.3
14729.7
14729.7
14487.4
13980.9
13016.2
11627.7
11995
13458.8
14487.3
15035.1
15296.3
15296.3
15035.2
14487.4
13458.8
11995
12176.7
13672.5
14729.7
15296.3
15566.5
15566.5
15296.3
14729.7
13672.5
12176.7
12176.7
13672.5
14729.7
15296.3
15566.5
15566.5
15296.3
14729.7
13672.5
12176.7
11995
13458.8
14487.4
15035.2
15296.3
15296.3
15035.1
14487.3
13458.8
11995
11627.7
13016.2
13980.9
14487.4
14729.7
14729.7
14487.3
13980.9
13016.2
11627.7
10906.3
12159.2
13016.2
13458.8
13672.5
13672.5
13458.8
13016.2
12159.2
10906.3
9887.1
10906.3
11627.7
11995
12176.7
12176.7
11995
11627.7
10906.3
9887.09
)
;

boundaryField
{
    fixedWall_Bottom
    {
        type            calculated;
        value           nonuniform List<scalar> 10(8619.44 9403.94 10023.8 10343.2 10503.8 10503.8 10343.2 10023.8 9403.95 8619.45);
    }
    fixedWall_Right
    {
        type            calculated;
        value           nonuniform List<scalar> 10(8619.45 9403.95 10023.8 10343.2 10503.8 10503.8 10343.2 10023.8 9403.94 8619.44);
    }
    fixedWall_Left
    {
        type            calculated;
        value           nonuniform List<scalar> 10(8619.44 9403.94 10023.8 10343.2 10503.8 10503.8 10343.2 10023.8 9403.95 8619.45);
    }
    fixedWall_Top
    {
        type            calculated;
        value           nonuniform List<scalar> 10(8619.45 9403.95 10023.8 10343.2 10503.8 10503.8 10343.2 10023.8 9403.94 8619.44);
    }
    frontAndBack
    {
        type            empty;
    }
}


// ************************************************************************* //
