/*--------------------------------*- C++ -*----------------------------------*\
| =========                 |                                                 |
| \\      /  F ield         | OpenFOAM: The Open Source CFD Toolbox           |
|  \\    /   O peration     | Version:  2306                                  |
|   \\  /    A nd           | Website:  www.openfoam.com                      |
|    \\/     M anipulation  |                                                 |
\*---------------------------------------------------------------------------*/
FoamFile
{
    version     2.0;
    format      ascii;
    arch        "LSB;label=32;scalar=64";
    class       volScalarField;
    location    "0.055";
    object      ILambda_21_0;
}
// * * * * * * * * * * * * * * * * * * * * * * * * * * * * * * * * * * * * * //

dimensions      [1 0 -3 0 0 0 0];

internalField   nonuniform List<scalar> 
100
(
2493.12
2066.51
1844.89
1598.77
1368.58
1136.76
894.96
642.363
386.09
129.662
2517.35
2084.68
1850.35
1597.76
1365.79
1135.38
894.985
642.63
386.113
129.634
2529.2
2113.92
1868.05
1605.52
1366.07
1133.65
894.183
642.692
386.2
129.612
2491.01
2136.15
1893.07
1625.93
1375.24
1135.04
893.313
642.301
386.221
129.608
2342.33
2097.53
1891.65
1645.95
1394.75
1145.64
896.481
642.548
386.06
129.553
2049.02
1933.52
1801.71
1619.11
1401.76
1161.94
908.557
647.708
386.886
129.307
1640.04
1619.12
1568.67
1476.15
1335.37
1147.06
917.557
659.802
392.512
129.527
1182.37
1193.51
1191.75
1172.24
1120.26
1021.93
866.846
655.05
401.992
132.891
716.535
721.706
727.898
734.204
734.067
715.665
661.82
553.585
377.448
137.016
242.401
241.6
241.872
243.615
247.595
253.299
257.134
248.867
207.042
98.8269
)
;

boundaryField
{
    fixedWall_Bottom
    {
        type            greyDiffusiveRadiation;
        refValue        uniform 0;
        refGradient     uniform 0;
        valueFraction   uniform 0;
        source          uniform 0;
        value           nonuniform List<scalar> 10(2493.12 2066.51 1844.89 1598.77 1368.58 1136.76 894.96 642.363 386.09 129.662);
    }
    fixedWall_Right
    {
        type            greyDiffusiveRadiation;
        refValue        uniform 0;
        refGradient     uniform 0;
        valueFraction   uniform 1;
        source          uniform 0;
        value           uniform 0;
    }
    fixedWall_Left
    {
        type            greyDiffusiveRadiation;
        refValue        uniform 0;
        refGradient     uniform 0;
        valueFraction   uniform 0;
        source          uniform 0;
        value           nonuniform List<scalar> 10(2493.12 2517.35 2529.2 2491.01 2342.33 2049.02 1640.04 1182.37 716.535 242.401);
    }
    fixedWall_Top
    {
        type            greyDiffusiveRadiation;
        refValue        uniform 0;
        refGradient     uniform 0;
        valueFraction   uniform 1;
        source          uniform 0;
        value           uniform 0;
    }
    frontAndBack
    {
        type            empty;
    }
}


// ************************************************************************* //
