/*--------------------------------*- C++ -*----------------------------------*\
| =========                 |                                                 |
| \\      /  F ield         | OpenFOAM: The Open Source CFD Toolbox           |
|  \\    /   O peration     | Version:  2306                                  |
|   \\  /    A nd           | Website:  www.openfoam.com                      |
|    \\/     M anipulation  |                                                 |
\*---------------------------------------------------------------------------*/
FoamFile
{
    version     2.0;
    format      ascii;
    arch        "LSB;label=32;scalar=64";
    class       volScalarField;
    location    "1.5";
    object      Keff;
}
// * * * * * * * * * * * * * * * * * * * * * * * * * * * * * * * * * * * * * //

dimensions      [1 1 -3 -1 0 0 0];

internalField   nonuniform List<scalar> 
32768
(
67.2037
67.2018
67.198
67.1922
67.1845
67.1748
67.1632
67.1496
67.1341
67.1167
67.0973
67.076
67.0527
67.0275
67.0003
66.9711
66.9399
66.9067
66.8716
66.8344
66.7952
66.754
66.7108
66.6656
66.6184
66.5692
66.518
66.4648
66.4097
66.3527
66.2937
66.2329
66.1702
66.1056
66.0393
65.9712
65.9013
65.8297
65.7564
65.6812
65.6041
65.5251
65.4441
65.361
65.2758
65.1884
65.0989
65.0075
64.9143
64.8197
64.7238
64.6273
64.5303
64.4335
64.3373
64.2421
64.1484
64.0565
63.967
63.8801
63.7961
63.7153
63.638
63.5644
63.4947
63.429
63.3674
63.3102
63.2575
63.2092
63.1655
63.1265
63.0921
63.0626
63.0378
63.0178
63.0025
62.9921
62.9864
62.9854
62.9891
62.9974
63.0103
63.0276
63.0492
63.0751
63.1051
63.139
63.1768
63.2183
63.2633
63.3116
63.3631
63.4175
63.4748
63.5346
63.5968
63.6612
63.7276
63.7957
63.8655
63.9366
64.0089
64.0822
64.1563
64.231
64.3061
64.3815
64.457
64.5324
64.6076
64.6825
64.7568
64.8306
64.9036
64.9758
65.047
65.1172
65.1863
65.2542
65.3209
65.3862
65.4502
65.5128
65.5739
65.6336
65.6917
65.7484
65.8035
65.8571
65.9092
65.9597
66.0087
66.0562
66.1021
66.1466
66.1896
66.2312
66.2714
66.3101
66.3475
66.3835
66.4182
66.4517
66.4838
66.5148
66.5446
66.5732
66.6007
66.6271
66.6525
66.6768
66.7001
66.7225
66.744
66.7646
66.7843
66.8032
66.8213
66.8386
66.8552
66.8711
66.8862
66.9008
66.9146
66.9279
66.9406
66.9527
66.9643
66.9754
66.986
66.9961
67.0058
67.015
67.0238
67.0322
67.0402
67.0478
67.0551
67.0621
67.0688
67.0751
67.0812
67.0869
67.0924
67.0977
67.1027
67.1075
67.112
67.1164
67.1205
67.1244
67.1282
67.1318
67.1352
67.1385
67.1416
67.1445
67.1473
67.15
67.1526
67.155
67.1573
67.1596
67.1617
67.1637
67.1656
67.1674
67.1692
67.1708
67.1724
67.1739
67.1753
67.1767
67.178
67.1793
67.1804
67.1816
67.1826
67.1837
67.1846
67.1856
67.1865
67.1873
67.1881
67.1889
67.1896
67.1903
67.191
67.1916
67.1922
67.1928
67.1933
67.1938
67.1943
67.1948
67.1953
67.1957
67.1961
67.1965
67.1969
67.1973
67.1976
67.198
67.1983
67.1986
67.1989
67.1992
67.1994
67.1997
67.1999
67.2002
67.2004
67.2006
67.2008
67.2011
67.2037
67.2018
67.198
67.1922
67.1845
67.1748
67.1632
67.1496
67.1342
67.1167
67.0974
67.0761
67.0528
67.0275
67.0003
66.9711
66.9399
66.9068
66.8716
66.8344
66.7952
66.754
66.7108
66.6656
66.6183
66.5691
66.5179
66.4647
66.4095
66.3524
66.2934
66.2324
66.1697
66.1051
66.0386
65.9704
65.9005
65.8288
65.7553
65.6799
65.6028
65.5236
65.4425
65.3592
65.2738
65.1862
65.0966
65.005
64.9117
64.8169
64.7209
64.6241
64.5271
64.4301
64.3338
64.2385
64.1446
64.0527
63.963
63.876
63.7919
63.7111
63.6337
63.56
63.4902
63.4244
63.3629
63.3056
63.2528
63.2044
63.1607
63.1217
63.0873
63.0578
63.033
63.013
62.9978
62.9873
62.9817
62.9808
62.9845
62.9929
63.0058
63.0232
63.045
63.0709
63.1011
63.1351
63.1731
63.2147
63.2598
63.3083
63.3599
63.4146
63.472
63.532
63.5944
63.659
63.7255
63.7939
63.8638
63.9351
64.0076
64.0811
64.1553
64.2302
64.3055
64.381
64.4567
64.5323
64.6076
64.6826
64.7571
64.831
64.9041
64.9764
65.0477
65.118
65.1872
65.2551
65.3219
65.3873
65.4513
65.5139
65.5751
65.6348
65.693
65.7497
65.8048
65.8584
65.9105
65.961
66.01
66.0575
66.1035
66.148
66.191
66.2325
66.2726
66.3114
66.3487
66.3847
66.4194
66.4528
66.485
66.5159
66.5457
66.5742
66.6017
66.6281
66.6534
66.6777
66.7011
66.7234
66.7449
66.7654
66.7851
66.804
66.822
66.8393
66.8559
66.8717
66.8869
66.9014
66.9152
66.9285
66.9412
66.9533
66.9648
66.9759
66.9865
66.9965
67.0062
67.0154
67.0242
67.0325
67.0405
67.0482
67.0555
67.0624
67.0691
67.0754
67.0814
67.0872
67.0927
67.0979
67.1029
67.1077
67.1122
67.1166
67.1207
67.1246
67.1284
67.1319
67.1354
67.1386
67.1417
67.1447
67.1475
67.1501
67.1527
67.1551
67.1575
67.1597
67.1618
67.1638
67.1657
67.1675
67.1693
67.1709
67.1725
67.174
67.1754
67.1768
67.1781
67.1793
67.1805
67.1816
67.1827
67.1837
67.1847
67.1856
67.1865
67.1873
67.1881
67.1889
67.1896
67.1903
67.191
67.1916
67.1922
67.1928
67.1933
67.1939
67.1944
67.1948
67.1953
67.1957
67.1962
67.1965
67.1969
67.1973
67.1976
67.198
67.1983
67.1986
67.1989
67.1992
67.1994
67.1997
67.1999
67.2002
67.2004
67.2007
67.2008
67.2012
67.2037
67.2018
67.198
67.1922
67.1845
67.1748
67.1632
67.1497
67.1342
67.1168
67.0974
67.0761
67.0528
67.0276
67.0004
66.9712
66.94
66.9068
66.8716
66.8344
66.7952
66.754
66.7107
66.6655
66.6182
66.5689
66.5176
66.4643
66.409
66.3518
66.2927
66.2316
66.1687
66.1039
66.0373
65.9689
65.8988
65.8268
65.7531
65.6775
65.6
65.5206
65.4391
65.3556
65.2698
65.182
65.092
65.0001
64.9064
64.8113
64.715
64.6179
64.5206
64.4234
64.3267
64.2312
64.1371
64.0449
63.9551
63.8679
63.7836
63.7026
63.625
63.5512
63.4812
63.4153
63.3537
63.2963
63.2434
63.195
63.1512
63.1121
63.0777
63.0481
63.0233
63.0033
62.9882
62.9778
62.9723
62.9714
62.9753
62.9838
62.9969
63.0145
63.0364
63.0626
63.093
63.1273
63.1655
63.2074
63.2529
63.3017
63.3537
63.4086
63.4664
63.5268
63.5895
63.6545
63.7214
63.7901
63.8604
63.9321
64.005
64.0788
64.1534
64.2286
64.3043
64.3801
64.4561
64.532
64.6076
64.6829
64.7576
64.8317
64.9051
64.9776
65.0491
65.1196
65.1889
65.257
65.3239
65.3894
65.4536
65.5163
65.5775
65.6373
65.6956
65.7523
65.8075
65.8611
65.9132
65.9637
66.0127
66.0602
66.1062
66.1506
66.1936
66.2351
66.2752
66.3139
66.3512
66.3872
66.4218
66.4552
66.4873
66.5181
66.5478
66.5764
66.6038
66.6301
66.6554
66.6796
66.7029
66.7252
66.7466
66.7671
66.7867
66.8055
66.8235
66.8408
66.8573
66.8731
66.8882
66.9026
66.9164
66.9296
66.9423
66.9543
66.9659
66.9769
66.9874
66.9974
67.007
67.0162
67.0249
67.0333
67.0413
67.0489
67.0561
67.0631
67.0697
67.076
67.082
67.0877
67.0932
67.0984
67.1034
67.1081
67.1126
67.117
67.1211
67.125
67.1287
67.1323
67.1357
67.1389
67.142
67.1449
67.1477
67.1504
67.1529
67.1554
67.1577
67.1599
67.162
67.164
67.1659
67.1677
67.1694
67.1711
67.1726
67.1741
67.1755
67.1769
67.1782
67.1794
67.1806
67.1817
67.1828
67.1838
67.1848
67.1857
67.1866
67.1874
67.1882
67.189
67.1897
67.1904
67.191
67.1917
67.1923
67.1929
67.1934
67.1939
67.1944
67.1949
67.1953
67.1958
67.1962
67.1966
67.197
67.1973
67.1977
67.198
67.1983
67.1986
67.1989
67.1992
67.1995
67.1997
67.2
67.2002
67.2004
67.2007
67.2008
67.2012
67.2037
67.2018
67.198
67.1922
67.1845
67.1748
67.1632
67.1497
67.1343
67.1169
67.0975
67.0762
67.053
67.0277
67.0005
66.9713
66.9401
66.9069
66.8717
66.8345
66.7953
66.754
66.7107
66.6653
66.618
66.5686
66.5172
66.4638
66.4084
66.351
66.2917
66.2304
66.1673
66.1023
66.0354
65.9667
65.8962
65.8239
65.7498
65.6739
65.596
65.5161
65.4342
65.3501
65.2639
65.1755
65.0851
64.9927
64.8985
64.8029
64.7061
64.6086
64.5108
64.4132
64.3162
64.2202
64.1258
64.0333
63.9432
63.8557
63.7711
63.6898
63.612
63.538
63.4678
63.4017
63.3398
63.2823
63.2292
63.1807
63.1368
63.0977
63.0633
63.0336
63.0088
62.9889
62.9738
62.9635
62.9581
62.9574
62.9615
62.9702
62.9835
63.0014
63.0236
63.0502
63.0809
63.1156
63.1542
63.1966
63.2425
63.2917
63.3442
63.3997
63.458
63.5189
63.5822
63.6477
63.7152
63.7845
63.8554
63.9276
64.001
64.0754
64.1505
64.2263
64.3024
64.3788
64.4552
64.5315
64.6076
64.6832
64.7584
64.8329
64.9066
64.9794
65.0512
65.1219
65.1915
65.2599
65.327
65.3927
65.457
65.5198
65.5812
65.6411
65.6994
65.7562
65.8115
65.8651
65.9172
65.9678
66.0168
66.0643
66.1102
66.1546
66.1976
66.239
66.2791
66.3177
66.3549
66.3908
66.4254
66.4587
66.4907
66.5215
66.5511
66.5795
66.6069
66.6331
66.6583
66.6825
66.7056
66.7279
66.7492
66.7696
66.7891
66.8078
66.8258
66.8429
66.8594
66.8751
66.8901
66.9045
66.9182
66.9313
66.9439
66.9559
66.9674
66.9783
66.9888
66.9988
67.0083
67.0174
67.0261
67.0344
67.0423
67.0499
67.0571
67.064
67.0706
67.0768
67.0828
67.0885
67.0939
67.0991
67.1041
67.1088
67.1133
67.1176
67.1216
67.1255
67.1292
67.1328
67.1361
67.1394
67.1424
67.1453
67.1481
67.1508
67.1533
67.1557
67.158
67.1602
67.1623
67.1643
67.1661
67.1679
67.1697
67.1713
67.1729
67.1743
67.1758
67.1771
67.1784
67.1796
67.1808
67.1819
67.1829
67.1839
67.1849
67.1858
67.1867
67.1875
67.1883
67.1891
67.1898
67.1905
67.1911
67.1918
67.1924
67.1929
67.1935
67.194
67.1945
67.195
67.1954
67.1958
67.1962
67.1966
67.197
67.1974
67.1977
67.198
67.1984
67.1987
67.1989
67.1992
67.1995
67.1997
67.2
67.2002
67.2004
67.2007
67.2009
67.2012
67.2037
67.2018
67.198
67.1923
67.1845
67.1749
67.1633
67.1498
67.1344
67.117
67.0976
67.0764
67.0531
67.0279
67.0007
66.9715
66.9403
66.9071
66.8719
66.8346
66.7953
66.754
66.7106
66.6652
66.6177
66.5682
66.5167
66.4631
66.4075
66.3499
66.2904
66.2289
66.1654
66.1001
66.0328
65.9638
65.8929
65.8201
65.7455
65.6691
65.5906
65.5102
65.4276
65.3429
65.2561
65.167
65.0759
64.9828
64.8879
64.7917
64.6943
64.5962
64.4978
64.3996
64.3021
64.2057
64.1108
64.0179
63.9273
63.8394
63.7544
63.6728
63.5947
63.5203
63.4498
63.3835
63.3214
63.2636
63.2104
63.1617
63.1177
63.0784
63.0439
63.0143
62.9895
62.9696
62.9545
62.9444
62.9391
62.9386
62.9429
62.952
62.9656
62.9838
63.0065
63.0334
63.0646
63.0999
63.1391
63.182
63.2285
63.2784
63.3316
63.3878
63.4468
63.5084
63.5725
63.6387
63.707
63.777
63.8486
63.9216
63.9958
64.0709
64.1467
64.2231
64.3
64.377
64.454
64.531
64.6076
64.6838
64.7595
64.8344
64.9086
64.9818
65.054
65.1251
65.1951
65.2637
65.3311
65.397
65.4615
65.5246
65.5861
65.6461
65.7046
65.7615
65.8168
65.8705
65.9227
65.9732
66.0222
66.0697
66.1156
66.16
66.2029
66.2443
66.2842
66.3228
66.3599
66.3957
66.4302
66.4634
66.4953
66.526
66.5555
66.5838
66.611
66.6371
66.6622
66.6862
66.7093
66.7314
66.7526
66.7729
66.7923
66.8109
66.8287
66.8458
66.8621
66.8777
66.8927
66.9069
66.9206
66.9336
66.9461
66.958
66.9694
66.9803
66.9906
67.0006
67.01
67.0191
67.0277
67.0359
67.0438
67.0513
67.0584
67.0653
67.0718
67.078
67.0839
67.0896
67.0949
67.1001
67.105
67.1097
67.1141
67.1184
67.1224
67.1263
67.1299
67.1334
67.1368
67.14
67.143
67.1459
67.1486
67.1513
67.1538
67.1562
67.1584
67.1606
67.1627
67.1646
67.1665
67.1683
67.17
67.1716
67.1731
67.1746
67.176
67.1774
67.1786
67.1798
67.181
67.1821
67.1831
67.1841
67.1851
67.186
67.1869
67.1877
67.1885
67.1892
67.1899
67.1906
67.1913
67.1919
67.1925
67.193
67.1936
67.1941
67.1946
67.195
67.1955
67.1959
67.1963
67.1967
67.1971
67.1974
67.1978
67.1981
67.1984
67.1987
67.199
67.1993
67.1995
67.1998
67.2
67.2003
67.2005
67.2007
67.2009
67.2012
67.2037
67.2018
67.198
67.1923
67.1846
67.1749
67.1634
67.1499
67.1345
67.1171
67.0978
67.0766
67.0533
67.0281
67.0009
66.9717
66.9405
66.9073
66.8721
66.8348
66.7955
66.7541
66.7106
66.6651
66.6175
66.5678
66.5161
66.4623
66.4065
66.3487
66.2888
66.227
66.1631
66.0974
66.0297
65.9602
65.8887
65.8154
65.7402
65.6631
65.584
65.5028
65.4195
65.334
65.2463
65.1564
65.0644
64.9704
64.8748
64.7777
64.6795
64.5806
64.4815
64.3826
64.2845
64.1874
64.0919
63.9985
63.9073
63.8189
63.7335
63.6515
63.5729
63.4981
63.4273
63.3606
63.2982
63.2402
63.1867
63.1378
63.0936
63.0542
63.0197
62.99
62.9652
62.9453
62.9304
62.9204
62.9153
62.9151
62.9197
62.9291
62.9431
62.9618
62.9849
63.0125
63.0443
63.0802
63.12
63.1637
63.211
63.2618
63.3158
63.3728
63.4327
63.4953
63.5603
63.6275
63.6967
63.7677
63.8402
63.9141
63.9892
64.0652
64.142
64.2193
64.2969
64.3748
64.4526
64.5303
64.6077
64.6846
64.7609
64.8364
64.9111
64.9849
65.0576
65.1292
65.1995
65.2686
65.3362
65.4025
65.4673
65.5306
65.5923
65.6525
65.7111
65.7681
65.8235
65.8773
65.9295
65.9801
66.029
66.0765
66.1223
66.1667
66.2095
66.2508
66.2907
66.3291
66.3662
66.4019
66.4362
66.4693
66.501
66.5316
66.5609
66.5891
66.6162
66.6421
66.6671
66.691
66.7139
66.7358
66.7569
66.777
66.7963
66.8148
66.8325
66.8494
66.8656
66.8811
66.8959
66.91
66.9235
66.9365
66.9488
66.9606
66.9719
66.9827
66.993
67.0028
67.0122
67.0211
67.0296
67.0378
67.0456
67.053
67.0601
67.0668
67.0733
67.0794
67.0853
67.0909
67.0962
67.1013
67.1061
67.1107
67.1152
67.1193
67.1234
67.1272
67.1308
67.1343
67.1376
67.1407
67.1437
67.1466
67.1493
67.1519
67.1544
67.1567
67.159
67.1611
67.1632
67.1651
67.1669
67.1687
67.1704
67.172
67.1735
67.175
67.1764
67.1777
67.1789
67.1801
67.1813
67.1824
67.1834
67.1844
67.1853
67.1862
67.1871
67.1879
67.1887
67.1894
67.1901
67.1908
67.1914
67.192
67.1926
67.1932
67.1937
67.1942
67.1947
67.1951
67.1956
67.196
67.1964
67.1968
67.1972
67.1975
67.1978
67.1982
67.1985
67.1988
67.1991
67.1993
67.1996
67.1998
67.2001
67.2003
67.2005
67.2008
67.2009
67.2012
67.2037
67.2018
67.1981
67.1923
67.1846
67.175
67.1635
67.15
67.1346
67.1173
67.098
67.0768
67.0536
67.0284
67.0012
66.9721
66.9409
66.9076
66.8724
66.835
66.7956
66.7542
66.7106
66.665
66.6172
66.5674
66.5155
66.4615
66.4054
66.3472
66.287
66.2248
66.1605
66.0943
66.0261
65.9559
65.8839
65.8099
65.7339
65.656
65.5761
65.494
65.4097
65.3233
65.2346
65.1437
65.0506
64.9557
64.859
64.7609
64.6617
64.562
64.462
64.3623
64.2633
64.1655
64.0693
63.9751
63.8834
63.7944
63.7084
63.6258
63.5467
63.4715
63.4002
63.3331
63.2703
63.212
63.1582
63.109
63.0647
63.0251
62.9904
62.9607
62.9359
62.9161
62.9013
62.8914
62.8866
62.8867
62.8916
62.9014
62.916
62.9352
62.959
62.9872
63.0197
63.0564
63.0971
63.1417
63.1899
63.2417
63.2967
63.3548
63.4158
63.4794
63.5455
63.6139
63.6842
63.7564
63.8301
63.9052
63.9813
64.0585
64.1363
64.2147
64.2933
64.3722
64.451
64.5296
64.6078
64.6855
64.7626
64.8389
64.9143
64.9887
65.062
65.1341
65.205
65.2745
65.3425
65.4092
65.4743
65.5378
65.5998
65.6602
65.719
65.7761
65.8316
65.8855
65.9377
65.9883
66.0373
66.0847
66.1305
66.1747
66.2175
66.2587
66.2985
66.3368
66.3737
66.4092
66.4434
66.4763
66.5079
66.5383
66.5675
66.5955
66.6224
66.6482
66.6729
66.6966
66.7194
66.7411
66.762
66.782
66.8011
66.8194
66.8369
66.8537
66.8697
66.885
66.8997
66.9137
66.9271
66.9399
66.9521
66.9638
66.9749
66.9856
66.9957
67.0054
67.0147
67.0235
67.032
67.04
67.0477
67.055
67.062
67.0687
67.0751
67.0811
67.0869
67.0924
67.0977
67.1027
67.1075
67.1121
67.1164
67.1205
67.1245
67.1283
67.1318
67.1353
67.1385
67.1416
67.1446
67.1474
67.1501
67.1526
67.1551
67.1574
67.1596
67.1617
67.1637
67.1657
67.1675
67.1692
67.1709
67.1725
67.174
67.1754
67.1768
67.1781
67.1793
67.1805
67.1816
67.1827
67.1837
67.1847
67.1856
67.1865
67.1873
67.1881
67.1889
67.1896
67.1903
67.191
67.1916
67.1922
67.1928
67.1933
67.1938
67.1943
67.1948
67.1953
67.1957
67.1961
67.1965
67.1969
67.1973
67.1976
67.1979
67.1982
67.1986
67.1988
67.1991
67.1994
67.1996
67.1999
67.2001
67.2004
67.2006
67.2008
67.201
67.2013
67.2037
67.2018
67.1981
67.1923
67.1847
67.1751
67.1636
67.1502
67.1348
67.1175
67.0983
67.0771
67.0539
67.0288
67.0016
66.9725
66.9413
66.908
66.8727
66.8354
66.7959
66.7544
66.7107
66.6649
66.617
66.567
66.5148
66.4606
66.4041
66.3456
66.285
66.2223
66.1575
66.0907
66.0219
65.9511
65.8783
65.8035
65.7267
65.6479
65.5669
65.4838
65.3985
65.3109
65.221
65.1289
65.0347
64.9385
64.8406
64.7414
64.6411
64.5402
64.4392
64.3385
64.2385
64.1398
64.0428
63.9479
63.8553
63.7656
63.679
63.5957
63.5161
63.4403
63.3685
63.3009
63.2376
63.1789
63.1248
63.0753
63.0307
62.9909
62.9561
62.9263
62.9015
62.8818
62.8671
62.8575
62.8529
62.8533
62.8587
62.869
62.8841
62.904
62.9285
62.9575
62.9909
63.0285
63.0702
63.1158
63.1652
63.2181
63.2743
63.3336
63.3959
63.4609
63.5283
63.598
63.6697
63.7432
63.8183
63.8947
63.9722
64.0506
64.1297
64.2093
64.2892
64.3692
64.4491
64.5288
64.608
64.6867
64.7647
64.8419
64.9181
64.9933
65.0673
65.14
65.2114
65.2814
65.35
65.417
65.4825
65.5464
65.6087
65.6693
65.7282
65.7855
65.8411
65.8951
65.9473
65.9979
66.0469
66.0943
66.14
66.1842
66.2268
66.268
66.3076
66.3458
66.3825
66.4179
66.4519
66.4846
66.516
66.5462
66.5751
66.6029
66.6296
66.6552
66.6797
66.7032
66.7258
66.7473
66.768
66.7878
66.8067
66.8248
66.8421
66.8587
66.8745
66.8897
66.9042
66.918
66.9312
66.9438
66.9559
66.9674
66.9784
66.9889
66.999
67.0085
67.0177
67.0264
67.0347
67.0426
67.0502
67.0574
67.0643
67.0709
67.0772
67.0831
67.0888
67.0943
67.0994
67.1044
67.1091
67.1136
67.1178
67.1219
67.1258
67.1295
67.133
67.1364
67.1396
67.1427
67.1456
67.1484
67.151
67.1535
67.1559
67.1582
67.1604
67.1624
67.1644
67.1663
67.1681
67.1698
67.1714
67.173
67.1745
67.1759
67.1772
67.1785
67.1797
67.1809
67.182
67.183
67.184
67.185
67.1859
67.1868
67.1876
67.1884
67.1891
67.1899
67.1905
67.1912
67.1918
67.1924
67.193
67.1935
67.194
67.1945
67.195
67.1954
67.1958
67.1963
67.1966
67.197
67.1974
67.1977
67.198
67.1983
67.1986
67.1989
67.1992
67.1995
67.1997
67.2
67.2002
67.2004
67.2006
67.2009
67.201
67.2013
67.2037
67.2019
67.1981
67.1924
67.1847
67.1752
67.1637
67.1503
67.135
67.1178
67.0986
67.0775
67.0543
67.0292
67.0021
66.973
66.9418
66.9085
66.8732
66.8358
66.7963
66.7547
66.7109
66.665
66.6169
66.5667
66.5142
66.4596
66.4029
66.344
66.2829
66.2197
66.1543
66.0869
66.0174
65.9458
65.8721
65.7964
65.7186
65.6387
65.5567
65.4724
65.3858
65.2968
65.2056
65.1121
65.0165
64.9189
64.8197
64.7191
64.6175
64.5153
64.4131
64.3112
64.2102
64.1105
64.0125
63.9166
63.8232
63.7327
63.6452
63.5612
63.4809
63.4044
63.332
63.2639
63.2001
63.1409
63.0864
63.0366
62.9917
62.9517
62.9167
62.8868
62.862
62.8423
62.8278
62.8184
62.8141
62.8149
62.8208
62.8317
62.8474
62.8681
62.8934
62.9233
62.9577
62.9964
63.0392
63.0861
63.1367
63.1909
63.2486
63.3094
63.3731
63.4396
63.5086
63.5798
63.6531
63.7281
63.8048
63.8827
63.9618
64.0417
64.1223
64.2033
64.2846
64.3659
64.4471
64.528
64.6084
64.6882
64.7673
64.8454
64.9226
64.9986
65.0734
65.1468
65.2189
65.2895
65.3586
65.4261
65.492
65.5563
65.6189
65.6797
65.7389
65.7964
65.8521
65.9061
65.9584
66.0091
66.058
66.1053
66.151
66.1951
66.2376
66.2786
66.318
66.356
66.3926
66.4277
66.4615
66.494
66.5252
66.5552
66.5839
66.6115
66.6379
66.6632
66.6875
66.7108
66.7331
66.7544
66.7748
66.7944
66.8131
66.831
66.8481
66.8644
66.88
66.895
66.9093
66.9229
66.9359
66.9484
66.9603
66.9716
66.9824
66.9928
67.0026
67.0121
67.021
67.0296
67.0378
67.0456
67.053
67.0601
67.0669
67.0734
67.0795
67.0854
67.091
67.0963
67.1014
67.1063
67.1109
67.1153
67.1195
67.1235
67.1273
67.1309
67.1344
67.1377
67.1409
67.1439
67.1467
67.1494
67.152
67.1545
67.1568
67.1591
67.1612
67.1633
67.1652
67.167
67.1688
67.1705
67.1721
67.1736
67.175
67.1764
67.1777
67.179
67.1802
67.1813
67.1824
67.1834
67.1844
67.1854
67.1863
67.1871
67.1879
67.1887
67.1894
67.1901
67.1908
67.1914
67.192
67.1926
67.1932
67.1937
67.1942
67.1947
67.1952
67.1956
67.196
67.1964
67.1968
67.1972
67.1975
67.1978
67.1982
67.1985
67.1987
67.199
67.1993
67.1996
67.1998
67.2
67.2003
67.2005
67.2007
67.2009
67.2011
67.2014
67.2037
67.2019
67.1981
67.1924
67.1848
67.1753
67.1639
67.1506
67.1353
67.1181
67.099
67.0779
67.0548
67.0298
67.0027
66.9736
66.9424
66.9092
66.8739
66.8364
66.7969
66.7551
66.7113
66.6652
66.6169
66.5664
66.5137
66.4588
66.4016
66.3423
66.2807
66.2169
66.1509
66.0827
66.0124
65.94
65.8654
65.7887
65.7098
65.6287
65.5453
65.4596
65.3716
65.2812
65.1885
65.0934
64.9962
64.897
64.7962
64.694
64.5909
64.4873
64.3837
64.2806
64.1783
64.0774
63.9783
63.8813
63.7869
63.6954
63.6071
63.5223
63.4411
63.3639
63.2908
63.222
63.1577
63.0979
63.0429
62.9927
62.9475
62.9072
62.8721
62.8421
62.8172
62.7976
62.7832
62.7741
62.7702
62.7714
62.7778
62.7893
62.8059
62.8273
62.8536
62.8845
62.92
62.9599
63.0041
63.0523
63.1044
63.1602
63.2194
63.2818
63.3473
63.4155
63.4862
63.5592
63.6343
63.7111
63.7896
63.8693
63.9501
64.0317
64.1139
64.1966
64.2795
64.3623
64.445
64.5273
64.609
64.6901
64.7703
64.8496
64.9278
65.0048
65.0804
65.1547
65.2275
65.2988
65.3685
65.4366
65.5029
65.5676
65.6305
65.6917
65.7511
65.8087
65.8645
65.9187
65.971
66.0217
66.0706
66.1178
66.1634
66.2074
66.2497
66.2905
66.3298
66.3676
66.404
66.4389
66.4724
66.5047
66.5356
66.5653
66.5938
66.621
66.6472
66.6723
66.6963
66.7193
66.7413
66.7624
66.7825
66.8018
66.8202
66.8379
66.8547
66.8708
66.8862
66.9009
66.915
66.9284
66.9412
66.9534
66.9651
66.9763
66.9869
66.9971
67.0068
67.016
67.0248
67.0332
67.0413
67.0489
67.0562
67.0632
67.0698
67.0762
67.0822
67.0879
67.0934
67.0987
67.1036
67.1084
67.1129
67.1172
67.1213
67.1253
67.129
67.1326
67.1359
67.1392
67.1423
67.1452
67.148
67.1506
67.1532
67.1556
67.1579
67.1601
67.1622
67.1642
67.1661
67.1679
67.1696
67.1712
67.1728
67.1743
67.1757
67.177
67.1783
67.1796
67.1807
67.1818
67.1829
67.1839
67.1849
67.1858
67.1867
67.1875
67.1883
67.189
67.1898
67.1904
67.1911
67.1917
67.1923
67.1929
67.1934
67.1939
67.1944
67.1949
67.1954
67.1958
67.1962
67.1966
67.1969
67.1973
67.1976
67.198
67.1983
67.1986
67.1989
67.1991
67.1994
67.1997
67.1999
67.2001
67.2003
67.2006
67.2008
67.201
67.2011
67.2014
67.2037
67.2019
67.1982
67.1925
67.1849
67.1755
67.1641
67.1508
67.1356
67.1185
67.0995
67.0785
67.0554
67.0304
67.0034
66.9744
66.9432
66.91
66.8747
66.8372
66.7976
66.7558
66.7118
66.6656
66.6171
66.5663
66.5133
66.4581
66.4005
66.3406
66.2785
66.2141
66.1474
66.0784
66.0072
65.9338
65.8582
65.7803
65.7002
65.6177
65.5329
65.4458
65.3561
65.2641
65.1696
65.0727
64.9737
64.8728
64.7702
64.6663
64.5615
64.4563
64.3511
64.2464
64.1428
64.0405
63.9401
63.842
63.7465
63.6539
63.5646
63.4788
63.3967
63.3186
63.2448
63.1752
63.1102
63.0499
62.9943
62.9437
62.898
62.8575
62.8221
62.792
62.7671
62.7476
62.7333
62.7245
62.7209
62.7227
62.7297
62.7419
62.7592
62.7816
62.8089
62.841
62.8778
62.9191
62.9647
63.0145
63.0683
63.1257
63.1867
63.251
63.3184
63.3885
63.4613
63.5363
63.6134
63.6922
63.7726
63.8543
63.9371
64.0206
64.1048
64.1893
64.2739
64.3585
64.4428
64.5266
64.6099
64.6924
64.7739
64.8545
64.9338
65.0118
65.0885
65.1637
65.2373
65.3094
65.3797
65.4483
65.5152
65.5803
65.6436
65.7051
65.7647
65.8225
65.8785
65.9327
65.9851
66.0358
66.0847
66.1318
66.1773
66.2211
66.2633
66.3039
66.343
66.3806
66.4166
66.4513
66.4846
66.5165
66.5472
66.5766
66.6047
66.6317
66.6576
66.6823
66.706
66.7287
66.7504
66.7712
66.791
66.81
66.8282
66.8455
66.8621
66.8779
66.8931
66.9075
66.9213
66.9345
66.947
66.9591
66.9705
66.9814
66.9919
67.0018
67.0113
67.0204
67.029
67.0372
67.0451
67.0526
67.0597
67.0665
67.073
67.0792
67.0851
67.0908
67.0961
67.1012
67.1061
67.1107
67.1152
67.1194
67.1234
67.1272
67.1309
67.1343
67.1376
67.1408
67.1438
67.1467
67.1494
67.152
67.1545
67.1568
67.1591
67.1612
67.1632
67.1652
67.167
67.1688
67.1705
67.1721
67.1736
67.175
67.1764
67.1777
67.179
67.1802
67.1813
67.1824
67.1834
67.1844
67.1854
67.1862
67.1871
67.1879
67.1887
67.1894
67.1901
67.1908
67.1914
67.192
67.1926
67.1932
67.1937
67.1942
67.1947
67.1951
67.1956
67.196
67.1964
67.1968
67.1971
67.1975
67.1978
67.1981
67.1984
67.1987
67.199
67.1993
67.1995
67.1998
67.2
67.2002
67.2004
67.2006
67.2008
67.2011
67.2012
67.2015
67.2037
67.2019
67.1982
67.1926
67.185
67.1756
67.1643
67.1511
67.136
67.119
67.1
67.0791
67.0562
67.0313
67.0043
66.9753
66.9442
66.911
66.8757
66.8382
66.7986
66.7567
66.7126
66.6662
66.6175
66.5665
66.5132
66.4575
66.3995
66.3391
66.2764
66.2113
66.1438
66.074
66.0018
65.9274
65.8506
65.7714
65.6899
65.606
65.5197
65.4308
65.3394
65.2455
65.149
65.0502
64.9492
64.8463
64.7417
64.6358
64.5291
64.4221
64.3152
64.2089
64.1036
63.9999
63.8981
63.7986
63.7018
63.608
63.5175
63.4306
63.3476
63.2686
63.1938
63.1234
63.0577
62.9966
62.9405
62.8893
62.8432
62.8023
62.7667
62.7364
62.7115
62.692
62.6779
62.6694
62.6662
62.6685
62.6762
62.6892
62.7074
62.7308
62.7593
62.7927
62.8309
62.8737
62.921
62.9725
63.0281
63.0875
63.1505
63.2169
63.2864
63.3587
63.4336
63.5109
63.5902
63.6713
63.754
63.8379
63.9229
64.0086
64.0948
64.1813
64.268
64.3544
64.4406
64.5262
64.6111
64.6951
64.7782
64.8601
64.9407
65.0199
65.0977
65.1738
65.2484
65.3212
65.3923
65.4616
65.529
65.5946
65.6582
65.72
65.78
65.838
65.8941
65.9484
66.0008
66.0514
66.1003
66.1473
66.1927
66.2363
66.2783
66.3187
66.3576
66.3948
66.4307
66.465
66.498
66.5296
66.5599
66.589
66.6168
66.6435
66.669
66.6934
66.7167
66.7391
66.7604
66.7809
66.8004
66.8191
66.8369
66.8539
66.8702
66.8857
66.9006
66.9147
66.9282
66.9411
66.9534
66.9652
66.9764
66.9871
66.9973
67.007
67.0163
67.0251
67.0336
67.0416
67.0493
67.0566
67.0636
67.0702
67.0766
67.0826
67.0883
67.0938
67.099
67.104
67.1088
67.1133
67.1176
67.1217
67.1256
67.1293
67.1329
67.1363
67.1395
67.1426
67.1455
67.1483
67.1509
67.1534
67.1558
67.1581
67.1603
67.1624
67.1644
67.1663
67.1681
67.1698
67.1714
67.173
67.1744
67.1759
67.1772
67.1785
67.1797
67.1809
67.182
67.183
67.184
67.185
67.1859
67.1868
67.1876
67.1884
67.1891
67.1898
67.1905
67.1912
67.1918
67.1924
67.1929
67.1935
67.194
67.1945
67.1949
67.1954
67.1958
67.1962
67.1966
67.197
67.1973
67.1977
67.198
67.1983
67.1986
67.1989
67.1991
67.1994
67.1996
67.1999
67.2001
67.2003
67.2005
67.2007
67.2009
67.2011
67.2013
67.2016
67.2037
67.2019
67.1982
67.1926
67.1852
67.1758
67.1646
67.1515
67.1365
67.1196
67.1007
67.0798
67.057
67.0322
67.0054
66.9764
66.9454
66.9123
66.877
66.8395
66.7998
66.7579
66.7136
66.6671
66.6182
66.5669
66.5133
66.4572
66.3987
66.3378
66.2744
66.2086
66.1403
66.0696
65.9964
65.9208
65.8427
65.7622
65.6792
65.5936
65.5055
65.4148
65.3214
65.2255
65.1269
65.0259
64.9227
64.8175
64.7107
64.6027
64.4939
64.3849
64.276
64.1678
64.0608
63.9554
63.852
63.751
63.6528
63.5577
63.4659
63.3778
63.2936
63.2136
63.1378
63.0665
62.9999
62.9381
62.8812
62.8295
62.7829
62.7416
62.7057
62.6752
62.6502
62.6308
62.6169
62.6086
62.6059
62.6088
62.6172
62.631
62.6503
62.6748
62.7046
62.7394
62.7791
62.8236
62.8727
62.9262
62.9838
63.0453
63.1106
63.1793
63.2511
63.3259
63.4033
63.483
63.5649
63.6485
63.7336
63.82
63.9074
63.9955
64.0841
64.1729
64.2617
64.3502
64.4384
64.5259
64.6127
64.6984
64.7831
64.8665
64.9485
65.029
65.108
65.1852
65.2608
65.3345
65.4063
65.4763
65.5443
65.6104
65.6745
65.7366
65.7968
65.855
65.9113
65.9657
66.0181
66.0687
66.1175
66.1644
66.2096
66.253
66.2948
66.335
66.3735
66.4105
66.446
66.48
66.5127
66.5439
66.5739
66.6026
66.63
66.6563
66.6814
66.7054
66.7284
66.7504
66.7714
66.7914
66.8106
66.8289
66.8464
66.8631
66.879
66.8942
66.9087
66.9226
66.9358
66.9484
66.9604
66.9719
66.9828
66.9932
67.0032
67.0127
67.0217
67.0303
67.0385
67.0464
67.0538
67.061
67.0677
67.0742
67.0804
67.0862
67.0918
67.0971
67.1022
67.1071
67.1117
67.1161
67.1202
67.1242
67.128
67.1316
67.1351
67.1384
67.1415
67.1445
67.1473
67.15
67.1526
67.155
67.1574
67.1596
67.1617
67.1637
67.1656
67.1675
67.1692
67.1709
67.1724
67.1739
67.1754
67.1767
67.178
67.1793
67.1805
67.1816
67.1827
67.1837
67.1847
67.1856
67.1865
67.1873
67.1881
67.1889
67.1896
67.1903
67.1909
67.1916
67.1922
67.1927
67.1933
67.1938
67.1943
67.1948
67.1952
67.1957
67.1961
67.1965
67.1968
67.1972
67.1975
67.1979
67.1982
67.1985
67.1988
67.199
67.1993
67.1995
67.1998
67.2
67.2002
67.2004
67.2006
67.2008
67.201
67.2012
67.2014
67.2016
67.2037
67.2019
67.1983
67.1927
67.1853
67.1761
67.1649
67.1519
67.137
67.1202
67.1014
67.0807
67.058
67.0333
67.0066
66.9778
66.9469
66.9138
66.8785
66.8411
66.8014
66.7594
66.715
66.6683
66.6193
66.5677
66.5138
66.4573
66.3983
66.3368
66.2727
66.2061
66.137
66.0652
65.9909
65.9141
65.8347
65.7527
65.668
65.5807
65.4907
65.398
65.3024
65.2042
65.1033
64.9999
64.8942
64.7866
64.6774
64.567
64.4559
64.3446
64.2336
64.1233
64.0144
63.9071
63.8019
63.6993
63.5995
63.5029
63.4097
63.3203
63.2348
63.1535
63.0767
63.0043
62.9368
62.8741
62.8165
62.7641
62.7169
62.6752
62.6389
62.6082
62.5832
62.5637
62.5501
62.5421
62.5398
62.5433
62.5525
62.5672
62.5876
62.6134
62.6445
62.6809
62.7224
62.7687
62.8198
62.8754
62.9353
62.9992
63.0669
63.1381
63.2126
63.29
63.3701
63.4527
63.5373
63.6237
63.7116
63.8007
63.8907
63.9815
64.0726
64.1639
64.2551
64.346
64.4364
64.526
64.6147
64.7024
64.7888
64.8738
64.9574
65.0393
65.1195
65.198
65.2745
65.3492
65.4219
65.4926
65.5612
65.6278
65.6924
65.7549
65.8154
65.8738
65.9302
65.9846
66.0371
66.0876
66.1363
66.1831
66.2281
66.2713
66.3128
66.3527
66.3909
66.4276
66.4627
66.4964
66.5286
66.5595
66.589
66.6173
66.6443
66.6702
66.6949
66.7185
66.741
66.7626
66.7832
66.8028
66.8216
66.8395
66.8566
66.8729
66.8885
66.9033
66.9175
66.931
66.9439
66.9562
66.9679
66.9791
66.9897
66.9999
67.0095
67.0187
67.0275
67.0359
67.0439
67.0515
67.0587
67.0656
67.0722
67.0785
67.0845
67.0901
67.0956
67.1007
67.1056
67.1103
67.1148
67.119
67.1231
67.1269
67.1306
67.1341
67.1374
67.1406
67.1436
67.1465
67.1492
67.1519
67.1543
67.1567
67.159
67.1611
67.1632
67.1651
67.167
67.1687
67.1704
67.172
67.1735
67.175
67.1764
67.1777
67.179
67.1801
67.1813
67.1824
67.1834
67.1844
67.1853
67.1862
67.1871
67.1879
67.1887
67.1894
67.1901
67.1908
67.1914
67.192
67.1926
67.1931
67.1937
67.1942
67.1946
67.1951
67.1955
67.1959
67.1963
67.1967
67.1971
67.1974
67.1978
67.1981
67.1984
67.1987
67.1989
67.1992
67.1994
67.1997
67.1999
67.2001
67.2004
67.2006
67.2008
67.2009
67.2011
67.2013
67.2015
67.2017
67.2037
67.2019
67.1983
67.1928
67.1855
67.1763
67.1653
67.1524
67.1376
67.1209
67.1023
67.0818
67.0592
67.0347
67.0081
66.9794
66.9486
66.9156
66.8804
66.843
66.8033
66.7613
66.7169
66.6701
66.6208
66.569
66.5147
66.4578
66.3983
66.3362
66.2715
66.204
66.1339
66.0611
65.9857
65.9075
65.8266
65.743
65.6566
65.5674
65.4753
65.3803
65.2825
65.1818
65.0783
64.9723
64.8639
64.7536
64.6417
64.5287
64.415
64.3012
64.1878
64.0753
63.9642
63.8549
63.7478
63.6433
63.5418
63.4435
63.3488
63.2579
63.171
63.0884
63.0103
62.9368
62.8682
62.8046
62.7462
62.693
62.6452
62.6029
62.5663
62.5353
62.5101
62.4907
62.4772
62.4696
62.4678
62.4719
62.4819
62.4977
62.5192
62.5463
62.579
62.6171
62.6604
62.7088
62.7621
62.82
62.8823
62.9488
63.0192
63.0933
63.1706
63.251
63.3342
63.4197
63.5074
63.5968
63.6878
63.7799
63.8729
63.9665