/*--------------------------------*- C++ -*----------------------------------*\
| =========                 |                                                 |
| \\      /  F ield         | OpenFOAM: The Open Source CFD Toolbox           |
|  \\    /   O peration     | Version:  2306                                  |
|   \\  /    A nd           | Website:  www.openfoam.com                      |
|    \\/     M anipulation  |                                                 |
\*---------------------------------------------------------------------------*/
FoamFile
{
    version     2.0;
    format      ascii;
    arch        "LSB;label=32;scalar=64";
    class       volScalarField;
    location    "1.5";
    object      p;
}
// * * * * * * * * * * * * * * * * * * * * * * * * * * * * * * * * * * * * * //

dimensions      [0 2 -2 0 0 0 0];

internalField   nonuniform List<scalar> 
32768
(
0.284298
0.284173
0.2839
0.283469
0.282882
0.282141
0.281246
0.280195
0.278987
0.27762
0.276093
0.274404
0.272551
0.270532
0.268345
0.265988
0.263459
0.260755
0.257875
0.254816
0.251575
0.248151
0.244542
0.240745
0.23676
0.232584
0.228215
0.223654
0.2189
0.213951
0.208808
0.203472
0.197944
0.192224
0.186316
0.180222
0.173945
0.167489
0.16086
0.15406
0.147098
0.139978
0.132707
0.125292
0.117742
0.110062
0.102263
0.0943529
0.0863416
0.0782399
0.0700596
0.0618133
0.0535151
0.0451802
0.036825
0.0284669
0.0201243
0.0118165
0.00356353
-0.00461437
-0.0126965
-0.0206623
-0.0284912
-0.036163
-0.0436579
-0.050957
-0.0580418
-0.064895
-0.0715002
-0.0778421
-0.0839065
-0.0896805
-0.0951527
-0.100313
-0.105152
-0.109663
-0.113841
-0.11768
-0.121177
-0.124333
-0.127146
-0.129618
-0.131753
-0.133554
-0.135027
-0.136179
-0.137019
-0.137555
-0.137797
-0.137757
-0.137447
-0.136879
-0.136066
-0.135023
-0.133763
-0.1323
-0.130651
-0.128828
-0.126847
-0.124722
-0.122469
-0.1201
-0.11763
-0.115073
-0.11244
-0.109745
-0.107
-0.104215
-0.101402
-0.0985703
-0.0957295
-0.0928883
-0.0900548
-0.0872366
-0.0844405
-0.0816726
-0.0789386
-0.0762436
-0.0735918
-0.0709874
-0.0684337
-0.0659336
-0.0634896
-0.0611039
-0.058778
-0.0565133
-0.0543108
-0.0521711
-0.0500946
-0.0480815
-0.0461315
-0.0442445
-0.0424199
-0.040657
-0.0389551
-0.0373131
-0.0357301
-0.0342049
-0.0327362
-0.0313229
-0.0299634
-0.0286566
-0.0274008
-0.0261948
-0.0250369
-0.0239259
-0.0228601
-0.0218381
-0.0208585
-0.0199198
-0.0190207
-0.0181596
-0.0173353
-0.0165463
-0.0157913
-0.0150691
-0.0143784
-0.013718
-0.0130866
-0.0124832
-0.0119065
-0.0113555
-0.0108291
-0.0103264
-0.00984625
-0.0093878
-0.00895011
-0.0085323
-0.00813349
-0.00775289
-0.00738969
-0.00704313
-0.0067125
-0.00639707
-0.00609619
-0.0058092
-0.00553549
-0.00527446
-0.00502553
-0.00478817
-0.00456186
-0.00434608
-0.00414036
-0.00394425
-0.0037573
-0.00357909
-0.00340922
-0.00324731
-0.00309298
-0.00294589
-0.00280571
-0.0026721
-0.00254477
-0.00242343
-0.00230778
-0.00219757
-0.00209255
-0.00199246
-0.00189707
-0.00180617
-0.00171954
-0.00163699
-0.0015583
-0.00148332
-0.00141184
-0.00134372
-0.00127879
-0.0012169
-0.00115789
-0.00110165
-0.00104802
-0.00099688
-0.000948117
-0.000901611
-0.000857254
-0.000814939
-0.000774566
-0.00073604
-0.000699269
-0.000664166
-0.000630648
-0.000598635
-0.000568052
-0.000538824
-0.000510883
-0.000484162
-0.000458598
-0.00043413
-0.000410699
-0.000388249
-0.000366727
-0.000346083
-0.000326265
-0.000307228
-0.000288925
-0.000271313
-0.00025435
-0.000237996
-0.000222211
-0.000206957
-0.000192199
-0.0001779
-0.000164027
-0.000150547
-0.000137427
-0.000124637
-0.000112144
-9.99206e-05
-8.79335e-05
-7.61654e-05
-6.45591e-05
-5.31589e-05
-4.17602e-05
-3.07648e-05
-1.90414e-05
-8.92459e-06
0.28445
0.284325
0.284052
0.283621
0.283035
0.282294
0.2814
0.28035
0.279142
0.277776
0.27625
0.274561
0.272709
0.270691
0.268505
0.266149
0.26362
0.260918
0.258038
0.254979
0.251738
0.248315
0.244705
0.240908
0.236922
0.232744
0.228375
0.223812
0.219055
0.214103
0.208957
0.203617
0.198085
0.19236
0.186447
0.180346
0.174062
0.167599
0.160961
0.154153
0.14718
0.14005
0.132768
0.125342
0.117778
0.110086
0.102273
0.0943494
0.0863237
0.0782074
0.0700121
0.0617506
0.0534371
0.0450868
0.0367161
0.0283425
0.0199846
0.0116617
0.00339376
-0.00479876
-0.0128952
-0.0208749
-0.0287171
-0.0364018
-0.043909
-0.0512198
-0.0583156
-0.0651791
-0.0717938
-0.0781445
-0.0842168
-0.0899979
-0.0954763
-0.100642
-0.105485
-0.11
-0.11418
-0.118021
-0.121519
-0.124674
-0.127486
-0.129956
-0.132088
-0.133885
-0.135354
-0.136501
-0.137334
-0.137863
-0.138098
-0.13805
-0.137731
-0.137153
-0.136331
-0.135277
-0.134006
-0.132533
-0.130872
-0.129038
-0.127045
-0.124909
-0.122644
-0.120264
-0.117783
-0.115214
-0.11257
-0.109864
-0.107108
-0.104313
-0.10149
-0.0986486
-0.0957985
-0.0929484
-0.0901065
-0.0872803
-0.0844766
-0.0817015
-0.0789608
-0.0762594
-0.0736019
-0.070992
-0.0684332
-0.0659285
-0.0634804
-0.0610908
-0.0587614
-0.0564936
-0.0542883
-0.0521461
-0.0500675
-0.0480524
-0.0461008
-0.0442124
-0.0423866
-0.0406228
-0.0389201
-0.0372776
-0.0356942
-0.0341687
-0.0327
-0.0312867
-0.0299274
-0.0286208
-0.0273654
-0.0261597
-0.0250024
-0.0238919
-0.0228267
-0.0218054
-0.0208265
-0.0198886
-0.0189902
-0.0181299
-0.0173063
-0.0165181
-0.015764
-0.0150426
-0.0143528
-0.0136931
-0.0130626
-0.0124599
-0.011884
-0.0113338
-0.0108082
-0.0103062
-0.00982685
-0.00936913
-0.00893215
-0.00851502
-0.00811689
-0.00773693
-0.00737437
-0.00702843
-0.00669839
-0.00638354
-0.00608321
-0.00579676
-0.00552357
-0.00526304
-0.0050146
-0.00477771
-0.00455185
-0.0043365
-0.0041312
-0.00393549
-0.00374892
-0.00357108
-0.00340156
-0.00323999
-0.00308599
-0.00293922
-0.00279933
-0.00266602
-0.00253896
-0.00241788
-0.00230249
-0.00219252
-0.00208773
-0.00198786
-0.00189269
-0.00180199
-0.00171556
-0.00163318
-0.00155468
-0.00147986
-0.00140855
-0.00134058
-0.0012758
-0.00121405
-0.00115518
-0.00109906
-0.00104555
-0.000994537
-0.000945887
-0.000899489
-0.000855234
-0.000813017
-0.000772738
-0.000734302
-0.000697617
-0.000662596
-0.000629157
-0.000597219
-0.000566707
-0.000537548
-0.000509672
-0.000483014
-0.000457511
-0.0004331
-0.000409724
-0.000387327
-0.000365857
-0.000345261
-0.00032549
-0.000306498
-0.000288238
-0.000270668
-0.000253746
-0.00023743
-0.000221682
-0.000206465
-0.000191742
-0.000177477
-0.000163637
-0.000150189
-0.0001371
-0.00012434
-0.000111877
-9.96828e-05
-8.7724e-05
-7.59843e-05
-6.44047e-05
-5.30331e-05
-4.16558e-05
-3.06951e-05
-1.89695e-05
-8.9459e-06
0.284754
0.284629
0.284357
0.283927
0.283341
0.282602
0.281708
0.280659
0.279453
0.278089
0.276564
0.274877
0.273027
0.27101
0.268826
0.266471
0.263944
0.261243
0.258364
0.255306
0.252066
0.248642
0.245032
0.241234
0.237246
0.233067
0.228694
0.224128
0.219366
0.214409
0.209257
0.203909
0.198368
0.192633
0.186708
0.180595
0.174298
0.167819
0.161164
0.154338
0.147346
0.140195
0.132891
0.125441
0.117853
0.110134
0.102295
0.0943426
0.0862882
0.0781424
0.069917
0.061625
0.0532807
0.0448993
0.0364976
0.028093
0.0197044
0.011351
0.00305314
-0.00516877
-0.0132939
-0.0213014
-0.0291706
-0.0368811
-0.044413
-0.0517472
-0.0588651
-0.0657493
-0.0723832
-0.0787513
-0.0848396
-0.0906349
-0.0961258
-0.101302
-0.106154
-0.110676
-0.114861
-0.118705
-0.122205
-0.12536
-0.128169
-0.130635
-0.132761
-0.134551
-0.13601
-0.137146
-0.137967
-0.138482
-0.138702
-0.138637
-0.1383
-0.137704
-0.136861
-0.135787
-0.134495
-0.133
-0.131316
-0.129459
-0.127444
-0.125284
-0.122996
-0.120592
-0.118088
-0.115496
-0.11283
-0.110103
-0.107325
-0.10451
-0.101666
-0.0988054
-0.0959367
-0.0930688
-0.09021
-0.0873677
-0.0845487
-0.0817593
-0.0790051
-0.0762911
-0.0736218
-0.071001
-0.0684322
-0.0659182
-0.0634616
-0.0610643
-0.058728
-0.0564539
-0.054243
-0.0520959
-0.0500128
-0.047994
-0.0460391
-0.0441479
-0.0423198
-0.0405541
-0.03885
-0.0372063
-0.0356222
-0.0340962
-0.0326273
-0.0312141
-0.0298551
-0.028549
-0.0272942
-0.0260895
-0.0249331
-0.0238237
-0.0227598
-0.0217398
-0.0207623
-0.0198259
-0.018929
-0.0180703
-0.0172483
-0.0164618
-0.0157093
-0.0149895
-0.0143013
-0.0136433
-0.0130144
-0.0124133
-0.011839
-0.0112904
-0.0107664
-0.0102659
-0.00978799
-0.00933172
-0.00889615
-0.00848041
-0.00808362
-0.00770497
-0.00734368
-0.00699897
-0.00667012
-0.00635643
-0.00605722
-0.00577186
-0.00549971
-0.00524018
-0.00499272
-0.00475676
-0.00453179
-0.00431732
-0.00411285
-0.00391794
-0.00373214
-0.00355504
-0.00338624
-0.00322535
-0.003072
-0.00292585
-0.00278657
-0.00265383
-0.00252733
-0.00240678
-0.00229189
-0.00218241
-0.00207808
-0.00197866
-0.00188391
-0.00179362
-0.00170757
-0.00162557
-0.00154742
-0.00147294
-0.00140196
-0.0013343
-0.00126981
-0.00120834
-0.00114975
-0.00109389
-0.00104063
-0.000989846
-0.000941421
-0.000895239
-0.00085119
-0.00080917
-0.000769079
-0.000730822
-0.000694309
-0.000659453
-0.00062617
-0.000594382
-0.000564014
-0.000534992
-0.000507248
-0.000480716
-0.000455333
-0.000431037
-0.000407772
-0.000385482
-0.000364113
-0.000343614
-0.000323938
-0.000305036
-0.000286863
-0.000269377
-0.000252534
-0.000236296
-0.000220624
-0.000205479
-0.000190826
-0.000176629
-0.000162855
-0.000149471
-0.000136445
-0.000123746
-0.000111342
-9.92063e-05
-8.73045e-05
-7.56208e-05
-6.40962e-05
-5.2779e-05
-4.14548e-05
-3.05479e-05
-1.88767e-05
-8.91552e-06
0.285211
0.285086
0.284814
0.284384
0.2838
0.283062
0.28217
0.281123
0.279919
0.278557
0.277035
0.275351
0.273503
0.271489
0.269307
0.266955
0.26443
0.26173
0.258853
0.255796
0.252557
0.249134
0.245523
0.241724
0.237734
0.233551
0.229174
0.224602
0.219834
0.214869
0.209707
0.204348
0.198793
0.193044
0.187102
0.180971
0.174652
0.168151
0.161471
0.154617
0.147596
0.140413
0.133076
0.12559
0.117965
0.110208
0.102327
0.0943329
0.0862351
0.0780448
0.0697741
0.0614362
0.0530454
0.0446173
0.0361688
0.0277175
0.0192825
0.0108834
0.00254031
-0.00572585
-0.0138942
-0.0219436
-0.0298533
-0.0376027
-0.0451718
-0.0525413
-0.0596925
-0.0666077
-0.0732704
-0.079665
-0.0857772
-0.0915939
-0.0971035
-0.102296
-0.107161
-0.111694
-0.115886
-0.119735
-0.123237
-0.126391
-0.129197
-0.131657
-0.133774
-0.135552
-0.136998
-0.138117
-0.138919
-0.139413
-0.13961
-0.13952
-0.139156
-0.138532
-0.13766
-0.136554
-0.13523
-0.133701
-0.131984
-0.130092
-0.128042
-0.125848
-0.123524
-0.121086
-0.118547
-0.115921
-0.113221
-0.11046
-0.107651
-0.104804
-0.10193
-0.0990403
-0.0961436
-0.093249
-0.0903647
-0.0874981
-0.0846563
-0.0818453
-0.0790708
-0.0763379
-0.0736509
-0.0710138
-0.0684299
-0.0659021
-0.0634328
-0.061024
-0.0586772
-0.0563938
-0.0541745
-0.0520199
-0.0499303
-0.0479058
-0.0459461
-0.0440508
-0.0422193
-0.0404508
-0.0387444
-0.0370991
-0.0355138
-0.0339872
-0.0325181
-0.0311049
-0.0297464
-0.0284411
-0.0271874
-0.025984
-0.0248291
-0.0237215
-0.0226594
-0.0216414
-0.0206661
-0.0197318
-0.0188372
-0.0179809
-0.0171613
-0.0163772
-0.0156272
-0.0149099
-0.0142242
-0.0135686
-0.0129422
-0.0123435
-0.0117716
-0.0112253
-0.0107036
-0.0102054
-0.00972975
-0.00927566
-0.00884222
-0.00842855
-0.00803378
-0.0076571
-0.00729771
-0.00695485
-0.00662779
-0.00631583
-0.0060183
-0.00573455
-0.00546396
-0.00520595
-0.00495994
-0.00472538
-0.00450177
-0.00428859
-0.00408537
-0.00389166
-0.00370702
-0.00353103
-0.00336329
-0.00320342
-0.00305105
-0.00290585
-0.00276746
-0.00263559
-0.00250991
-0.00239015
-0.00227602
-0.00216727
-0.00206363
-0.00196487
-0.00187076
-0.00178108
-0.00169562
-0.00161417
-0.00153656
-0.00146258
-0.00139209
-0.00132489
-0.00126085
-0.00119981
-0.00114162
-0.00108614
-0.00103325
-0.000982824
-0.000934737
-0.000888878
-0.000845137
-0.000803412
-0.000763602
-0.000725615
-0.000689359
-0.000654748
-0.0006217
-0.000590137
-0.000559984
-0.000531167
-0.00050362
-0.000477277
-0.000452074
-0.000427951
-0.000404851
-0.00038272
-0.000361503
-0.000341151
-0.000321615
-0.000302848
-0.000284805
-0.000267443
-0.000250722
-0.0002346
-0.00021904
-0.000204003
-0.000189455
-0.00017536
-0.000161685
-0.000148397
-0.000135465
-0.000122856
-0.000110542
-9.84931e-05
-8.66768e-05
-7.5077e-05
-6.36351e-05
-5.23992e-05
-4.11562e-05
-3.03286e-05
-1.87416e-05
-8.85349e-06
0.285818
0.285694
0.285422
0.284994
0.284411
0.283675
0.282786
0.281742
0.280541
0.279182
0.277662
0.275982
0.274137
0.272127
0.269949
0.2676
0.265078
0.262381
0.259506
0.256451
0.253213
0.24979
0.246179
0.242378
0.238385
0.234199
0.229816
0.225237
0.22046
0.215484
0.210309
0.204935
0.199363
0.193594
0.18763
0.181473
0.175127
0.168595
0.161882
0.154992
0.147931
0.140707
0.133324
0.125791
0.118116
0.110306
0.102371
0.0943206
0.0861647
0.0779148
0.0695832
0.0611836
0.0527304
0.0442396
0.0357282
0.0272144
0.0187171
0.0102564
0.00185281
-0.00647274
-0.014699
-0.0228047
-0.0307687
-0.0385703
-0.0461893
-0.053606
-0.0608017
-0.0677586
-0.0744598
-0.0808898
-0.087034
-0.0928792
-0.0984139
-0.103627
-0.108511
-0.113057
-0.11726
-0.121115
-0.12462
-0.127773
-0.130575
-0.133026
-0.135131
-0.136894
-0.13832
-0.139418
-0.140195
-0.140661
-0.140826
-0.140703
-0.140303
-0.13964
-0.138728
-0.137581
-0.136213
-0.13464
-0.132877
-0.130939
-0.128842
-0.1266
-0.12423
-0.121744
-0.119159
-0.116487
-0.113742
-0.110937
-0.108085
-0.105196
-0.102282
-0.099353
-0.0964189
-0.0934884
-0.09057
-0.0876711
-0.0847986
-0.0819588
-0.0791573
-0.076399
-0.0736885
-0.0710296
-0.0684256
-0.0658793
-0.0633931
-0.0609689
-0.0586083
-0.0563124
-0.054082
-0.0519175
-0.0498193
-0.0477873
-0.0458211
-0.0439204
-0.0420843
-0.0403122
-0.038603
-0.0369556
-0.0353688
-0.0338414
-0.0323719
-0.030959
-0.0296012
-0.0282969
-0.0270447
-0.025843
-0.0246903
-0.0235849
-0.0225253
-0.0215101
-0.0205375
-0.0196063
-0.0187148
-0.0178616
-0.0170453
-0.0162644
-0.0155177
-0.0148038
-0.0141213
-0.0134691
-0.0128459
-0.0122505
-0.0116818
-0.0111387
-0.01062
-0.0101249
-0.00965219
-0.00920101
-0.00877041
-0.0083595
-0.00796742
-0.00759335
-0.0072365
-0.00689611
-0.00657143
-0.00626178
-0.00596649
-0.0056849
-0.0054164
-0.00516039
-0.00491632
-0.00468363
-0.00446181
-0.00425036
-0.00404881
-0.0038567
-0.00367359
-0.00349908
-0.00333276
-0.00317425
-0.00302319
-0.00287923
-0.00274205
-0.00261132
-0.00248675
-0.00236804
-0.00225492
-0.00214713
-0.00204442
-0.00194655
-0.00185328
-0.00176441
-0.00167972
-0.00159902
-0.00152211
-0.00144881
-0.00137896
-0.00131239
-0.00124893
-0.00118845
-0.0011308
-0.00107584
-0.00102345
-0.000973487
-0.000925849
-0.000880419
-0.000837088
-0.000795755
-0.00075632
-0.00071869
-0.000682776
-0.000648492
-0.000615757
-0.000584493
-0.000554625
-0.000526082
-0.000498797
-0.000472703
-0.00044774
-0.000423847
-0.000400968
-0.000379047
-0.000358033
-0.000337875
-0.000318526
-0.000299938
-0.000282068
-0.000264873
-0.000248312
-0.000232345
-0.000216933
-0.000202041
-0.000187633
-0.000173673
-0.00016013
-0.000146969
-0.000134161
-0.000121674
-0.000109478
-9.7545e-05
-8.58423e-05
-7.43541e-05
-6.30223e-05
-5.18945e-05
-4.07598e-05
-3.00368e-05
-1.85612e-05
-8.76855e-06
0.286577
0.286453
0.286182
0.285756
0.285175
0.284441
0.283555
0.282514
0.281317
0.279962
0.278447
0.276771
0.274931
0.272925
0.270751
0.268407
0.265889
0.263196
0.260324
0.257271
0.254035
0.250612
0.247001
0.243198
0.239202
0.23501
0.230621
0.226033
0.221245
0.216256
0.211065
0.205673
0.200079
0.194286
0.188294
0.182106
0.175725
0.169155
0.162399
0.155464
0.148355
0.141077
0.133638
0.126046
0.118308
0.110432
0.102428
0.0943065
0.0860772
0.0777522
0.069344
0.0608665
0.0523347
0.0437648
0.0351742
0.0265813
0.0180056
0.00946734
0.000987344
-0.00741304
-0.0157123
-0.0238888
-0.0319212
-0.0397885
-0.0474702
-0.0549464
-0.0621981
-0.0692074
-0.0759571
-0.0824314
-0.0886158
-0.0944969
-0.100063
-0.105303
-0.110209
-0.114773
-0.118989
-0.122852
-0.12636
-0.129512
-0.132307
-0.134748
-0.136838
-0.138581
-0.139984
-0.141053
-0.141798
-0.142229
-0.142355
-0.142189
-0.141744
-0.141033
-0.14007
-0.13887
-0.137448
-0.135819
-0.133998
-0.132002
-0.129846
-0.127545
-0.125115
-0.12257
-0.119926
-0.117196
-0.114395
-0.111534
-0.108627
-0.105686
-0.102721
-0.099743
-0.0967618
-0.0937864
-0.0908251
-0.0878856
-0.0849747
-0.0820987
-0.0792633
-0.0764734
-0.0737335
-0.0710473
-0.0684181
-0.0658487
-0.0633415
-0.0608982
-0.0585202
-0.0562088
-0.0539645
-0.0517879
-0.0496789
-0.0476376
-0.0456635
-0.043756
-0.0419144
-0.0401378
-0.038425
-0.0367751
-0.0351866
-0.0336581
-0.0321884
-0.0307759
-0.0294189
-0.0281161
-0.0268658
-0.0256664
-0.0245163
-0.0234138
-0.0223575
-0.0213456
-0.0203767
-0.0194492
-0.0185616
-0.0177124
-0.0169002
-0.0161235
-0.0153809
-0.0146711
-0.0139928
-0.0133447
-0.0127256
-0.0121343
-0.0115696
-0.0110304
-0.0105157
-0.0100243
-0.00955537
-0.00910782
-0.00868078
-0.00827333
-0.00788462
-0.00751382
-0.00716014
-0.00682283
-0.00650114
-0.00619437
-0.00590187
-0.00562297
-0.00535707
-0.00510358
-0.00486192
-0.00463157
-0.00441199
-0.0042027
-0.00400323
-0.00381311
-0.00363193
-0.00345925
-0.0032947
-0.00313788
-0.00298845
-0.00284606
-0.00271037
-0.00258107
-0.00245787
-0.00234048
-0.00222862
-0.00212204
-0.00202048
-0.00192371
-0.0018315
-0.00174364
-0.00165991
-0.00158013
-0.0015041
-0.00143165
-0.00136261
-0.0012968
-0.00123409
-0.00117431
-0.00111733
-0.00106301
-0.00101123
-0.000961855
-0.000914777
-0.000869881
-0.000827061
-0.000786216
-0.000747248
-0.000710063
-0.000674575
-0.000640699
-0.000608353
-0.000577461
-0.000547949
-0.000519747
-0.000492788
-0.000467006
-0.000442342
-0.000418735
-0.00039613
-0.000374473
-0.000353711
-0.000333795
-0.000314679
-0.000296315
-0.00027866
-0.000261672
-0.00024531
-0.000229535
-0.00021431
-0.000199598
-0.000185363
-0.000171572
-0.000158192
-0.000145191
-0.000132537
-0.000120201
-0.000108152
-9.63641e-05
-8.4803e-05
-7.34538e-05
-6.22591e-05
-5.12661e-05
-4.02662e-05
-2.9673e-05
-1.83364e-05
-8.66241e-06
0.287486
0.287363
0.287093
0.286669
0.28609
0.28536
0.284477
0.28344
0.282248
0.280897
0.279388
0.277717
0.275883
0.273883
0.271715
0.269375
0.266863
0.264174
0.261306
0.258257
0.255023
0.251601
0.247989
0.244185
0.240185
0.235988
0.231591
0.226993
0.222192
0.217187
0.211978
0.206563
0.200944
0.195121
0.189096
0.182871
0.176449
0.169832
0.163027
0.156037
0.148868
0.141527
0.13402
0.126356
0.118541
0.110586
0.102499
0.0942914
0.0859733
0.0775571
0.0690559
0.0604841
0.0518569
0.043191
0.0345043
0.0258156
0.0171447
0.00851237
-6.02075e-05
-0.00855129
-0.016939
-0.0252013
-0.0333166
-0.0412634
-0.0490209
-0.056569
-0.0638885
-0.0709609
-0.0777691
-0.0842971
-0.09053
-0.0964544
-0.102058
-0.107331
-0.112264
-0.116848
-0.12108
-0.124953
-0.128465
-0.131614
-0.134402
-0.13683
-0.138901
-0.140621
-0.141994
-0.14303
-0.143736
-0.144123
-0.144202
-0.143985
-0.143485
-0.142715
-0.141691
-0.140427
-0.138938
-0.13724
-0.13535
-0.133283
-0.131055
-0.128683
-0.12618
-0.123564
-0.120849
-0.118049
-0.115179
-0.112251
-0.109279
-0.106273
-0.103247
-0.10021
-0.0971717
-0.094142
-0.0911291
-0.0881405
-0.0851834
-0.0822639
-0.0793877
-0.0765597
-0.0737844
-0.0710654
-0.0684061
-0.065809
-0.0632765
-0.0608103
-0.0584117
-0.0560817
-0.053821
-0.0516297
-0.0495081
-0.0474557
-0.0454721
-0.0435567
-0.0417086
-0.0399267
-0.0382099
-0.036557
-0.0349665
-0.033437
-0.0319671
-0.0305551
-0.0291994
-0.0278984
-0.0266504
-0.0254538
-0.0243069
-0.0232081
-0.0221556
-0.021148
-0.0201835
-0.0192606
-0.0183777
-0.0175333
-0.016726
-0.0159543
-0.0152167
-0.014512
-0.0138387
-0.0131956
-0.0125814
-0.011995
-0.0114351
-0.0109007
-0.0103906
-0.00990386
-0.00943937
-0.00899621
-0.00857342
-0.00817013
-0.00778546
-0.00741859
-0.00706873
-0.00673511
-0.00641699
-0.00611369
-0.00582453
-0.00554887
-0.00528609
-0.0050356
-0.00479685
-0.00456929
-0.0043524
-0.0041457
-0.00394871
-0.00376099
-0.00358209
-0.00341163
-0.00324919
-0.0030944
-0.00294692
-0.00280639
-0.00267249
-0.00254491
-0.00242336
-0.00230754
-0.00219718
-0.00209204
-0.00199186
-0.00189641
-0.00180546
-0.00171881
-0.00163624
-0.00155756
-0.00148258
-0.00141114
-0.00134306
-0.00127818
-0.00121634
-0.0011574
-0.00110123
-0.00104768
-0.000996626
-0.000947954
-0.000901545
-0.000857289
-0.00081508
-0.000774818
-0.000736407
-0.000699755
-0.000664777
-0.000631387
-0.000599506
-0.000569059
-0.000539973
-0.000512178
-0.000485608
-0.000460199
-0.000435892
-0.000412627
-0.00039035
-0.000369007
-0.000348547
-0.000328921
-0.000310082
-0.000291985
-0.000274587
-0.000257847
-0.000241723
-0.000226179
-0.000211175
-0.000196678
-0.000182651
-0.000169062
-0.000155877
-0.000143066
-0.000130597
-0.000118442
-0.000106569
-9.49532e-05
-8.35613e-05
-7.23782e-05
-6.13473e-05
-5.05152e-05
-3.96764e-05
-2.92384e-05
-1.80678e-05
-8.53548e-06
0.288545
0.288422
0.288155
0.287732
0.287157
0.28643
0.285552
0.28452
0.283333
0.281988
0.280485
0.278821
0.276994
0.275
0.272839
0.270507
0.268
0.265317
0.262455
0.259409
0.256178
0.252758
0.249146
0.24534
0.241337
0.237134
0.232729
0.228119
0.223304
0.218281
0.21305
0.20761
0.201961
0.196105
0.190041
0.183772
0.177301
0.170632
0.163767
0.156713
0.149475
0.142059
0.134473
0.126724
0.11882
0.110771
0.102586
0.0942762
0.0858532
0.0773295
0.0687186
0.0600352
0.0512953
0.0425161
0.0337157
0.0249138
0.0161305
0.007387
-0.0012949
-0.00989305
-0.0183851
-0.0267486
-0.0349615
-0.043002
-0.0508489
-0.0584817
-0.0658808
-0.0730277
-0.0799047
-0.0864956
-0.0927855
-0.0987607
-0.104409
-0.10972
-0.114683
-0.119293
-0.123542
-0.127426
-0.130942
-0.13409
-0.136869
-0.139281
-0.141331
-0.143022
-0.144361
-0.145356
-0.146017
-0.146352
-0.146375
-0.146097
-0.145531
-0.144693
-0.143595
-0.142255
-0.140688
-0.13891
-0.136937
-0.134787
-0.132474
-0.130016
-0.127429
-0.124728
-0.12193
-0.119047
-0.116095
-0.113088
-0.110038
-0.106958
-0.103859
-0.100753
-0.0976477
-0.0945542
-0.0914806
-0.0884346
-0.0854232
-0.0824527
-0.0795287
-0.0766562
-0.0738395
-0.0710824
-0.0683878
-0.0657585
-0.0631966
-0.0607037
-0.0582811
-0.0559297
-0.0536498
-0.0514418
-0.0493054
-0.0472403
-0.0452459
-0.0433214
-0.0414658
-0.039678
-0.0379567
-0.0363004
-0.0347079
-0.0331773
-0.0317073
-0.0302961
-0.0289419
-0.0276432
-0.0263981
-0.0252049
-0.0240619
-0.0229674
-0.0219196
-0.0209169
-0.0199576
-0.0190401
-0.0181629
-0.0173242
-0.0165227
-0.0157568
-0.0150252
-0.0143263
-0.0136589
-0.0130217
-0.0124134
-0.0118327
-0.0112785
-0.0107496
-0.010245
-0.00976357
-0.00930432
-0.00886626
-0.00844847
-0.00805003
-0.00767008
-0.0073078
-0.00696238
-0.00663306
-0.00631912
-0.00601986
-0.0057346
-0.0054627
-0.00520356
-0.00495658
-0.0047212
-0.00449689
-0.00428313
-0.00407944
-0.00388535
-0.00370041
-0.00352419
-0.00335629
-0.00319631
-0.00304389
-0.00289867
-0.00276031
-0.00262849
-0.00250291
-0.00238326
-0.00226927
-0.00216067
-0.0020572
-0.00195862
-0.00186471
-0.00177523
-0.00168997
-0.00160874
-0.00153135
-0.0014576
-0.00138733
-0.00132036
-0.00125655
-0.00119574
-0.00113778
-0.00108253
-0.00102987
-0.000979675
-0.000931816
-0.000886184
-0.00084267
-0.00080117
-0.000761585
-0.000723822
-0.000687789
-0.000653402
-0.000620577
-0.000589237
-0.000559306
-0.000530714
-0.000503391
-0.000477274
-0.000452298
-0.000428405
-0.000405538
-0.000383641
-0.000362662
-0.000342552
-0.000323262
-0.000304746
-0.000286959
-0.00026986
-0.000253407
-0.00023756
-0.000222283
-0.000207537
-0.000193289
-0.000179503
-0.000166148
-0.00015319
-0.0001406
-0.000128346
-0.000116399
-0.000104731
-9.33156e-05
-8.21201e-05
-7.11298e-05
-6.02891e-05
-4.96438e-05
-3.89919e-05
-2.8734e-05
-1.77562e-05
-8.38809e-06
0.289754
0.289632
0.289366
0.288946
0.288374
0.287651
0.286778
0.285752
0.284571
0.283234
0.281738
0.280082
0.278263
0.276278
0.274125
0.2718
0.269302
0.266626
0.263769
0.260729
0.257502
0.254085
0.250474
0.246666
0.24266
0.23845
0.234036
0.229414
0.224583
0.21954
0.214285
0.208816
0.203134
0.197239
0.191132
0.184814
0.178288
0.171557
0.164625
0.157497
0.15018
0.142678
0.134999
0.127152
0.119145
0.110987
0.102689
0.0942621
0.0857178
0.0770694
0.0683312
0.0595186
0.0506479
0.0417372
0.0328051
0.0238718
0.0149581
0.00608584
-0.00272274
-0.0114449
-0.0200578
-0.0285385
-0.0368643
-0.0450131
-0.0529633
-0.0606939
-0.0681849
-0.0754176
-0.0823739
-0.0890374
-0.0953929
-0.101426
-0.107126
-0.11248
-0.11748
-0.122117
-0.126387
-0.130283
-0.133805
-0.136949
-0.139718
-0.142112
-0.144135
-0.145793
-0.147093
-0.148041
-0.148648
-0.148924
-0.148882
-0.148533
-0.147891
-0.146972
-0.145791
-0.144362
-0.142704
-0.140832
-0.138764
-0.136516
-0.134106
-0.131549
-0.128864
-0.126065
-0.123169
-0.120191
-0.117145
-0.114046
-0.110907
-0.10774
-0.104558
-0.10137
-0.0981886
-0.0950217
-0.0918782
-0.0887661
-0.0856923
-0.0826633
-0.0796845
-0.076761
-0.073897
-0.071096
-0.0683613
-0.0656952
-0.0630998
-0.0605766
-0.0581267
-0.0557509
-0.0534494
-0.0512223
-0.0490693
-0.04699
-0.0449834
-0.0430488
-0.041185
-0.0393906
-0.0376643
-0.0360046
-0.0344098
-0.0328783
-0.0314083
-0.0299982
-0.028646
-0.02735
-0.0261084
-0.0249193
-0.0237809
-0.0226915
-0.0216491
-0.0206522
-0.019699
-0.0187879
-0.0179171
-0.017085
-0.0162902
-0.0155311
-0.0148063
-0.0141143
-0.0134537
-0.0128232
-0.0122215
-0.0116474
-0.0110997
-0.0105772
-0.0100789
-0.00960358
-0.00915033
-0.00871813
-0.00830604
-0.00791316
-0.00753861
-0.00718156
-0.00684123
-0.00651684
-0.00620767
-0.00591301
-0.0056322
-0.00536461
-0.00510961
-0.00486663
-0.0046351
-0.0044145
-0.00420431
-0.00400406
-0.00381326
-0.00363149
-0.00345832
-0.00329334
-0.00313616
-0.00298643
-0.00284379
-0.00270791
-0.00257846
-0.00245515
-0.00233767
-0.00222576
-0.00211915
-0.00201759
-0.00192084
-0.00182866
-0.00174085
-0.00165719
-0.00157749
-0.00150155
-0.0014292
-0.00136026
-0.00129457
-0.00123197
-0.00117232
-0.00111547
-0.00106129
-0.00100964
-0.000960411
-0.000913477
-0.000868728
-0.000826058
-0.000785364
-0.00074655
-0.000709522
-0.000674192
-0.000640477
-0.000608294
-0.000577568
-0.000548224
-0.000520194
-0.000493408
-0.000467805
-0.000443321
-0.000419899
-0.000397483
-0.000376018
-0.000355454
-0.000335742
-0.000316834
-0.000298684
-0.00028125
-0.00026449
-0.000248363
-0.000232831
-0.000217856
-0.000203404
-0.000189439
-0.000175927
-0.000162837
-0.000150138
-0.000137798
-0.000125788
-0.000114079
-0.000102644
-9.14553e-05
-8.04828e-05
-6.97116e-05
-5.9087e-05
-4.86539e-05
-3.82144e-05
-2.8161e-05
-1.74021e-05
-8.22063e-06
0.29111
0.290989
0.290725
0.290308
0.28974
0.289023
0.288155
0.287136
0.285963
0.284634
0.283148
0.281501
0.279691
0.277716
0.275572
0.273257
0.270768
0.2681
0.265252
0.262218
0.258996
0.255582
0.251973
0.248165
0.244155
0.23994
0.235516
0.230881
0.226032
0.220968
0.215686
0.210187
0.204468
0.19853
0.192373
0.186
0.179412
0.172612
0.165604
0.158394
0.150986
0.143387
0.135604
0.127646
0.119521
0.111239
0.102812
0.0942507
0.0855677
0.0767769
0.0678932
0.0589326
0.0499125
0.0408512
0.0317685
0.0226849
0.0136221
0.00460259
-0.00435078
-0.0132146
-0.0219654
-0.0305798
-0.0390345
-0.0473067
-0.0553745
-0.0632164
-0.0708121
-0.0781422
-0.0851886
-0.0919346
-0.0983645
-0.104464
-0.110221
-0.115625
-0.120665
-0.125334
-0.129627
-0.133538
-0.137064
-0.140205
-0.14296
-0.145334
-0.147328
-0.148948
-0.150201
-0.151096
-0.151642
-0.15185
-0.151732
-0.151302
-0.150574
-0.149562
-0.148284
-0.146755
-0.144992
-0.143013
-0.140836
-0.138477
-0.135954
-0.133285
-0.130486
-0.127576
-0.124569
-0.121481
-0.118329
-0.115125
-0.111884
-0.108619
-0.105341
-0.102062
-0.0987932
-0.0955428
-0.0923202
-0.0891331
-0.0859888
-0.0828935
-0.0798529
-0.0768717
-0.0739543
-0.0711041
-0.0683241
-0.0656167
-0.0629838
-0.0604267
-0.0579463
-0.0555433
-0.0532177
-0.0509695
-0.0487982
-0.046703
-0.0446832
-0.0427375
-0.0408646
-0.0390632
-0.0373316
-0.0356682
-0.0340713
-0.032539
-0.0310694
-0.0296608
-0.0283111
-0.0270184
-0.0257809
-0.0245966
-0.0234636
-0.02238
-0.021344
-0.0203538
-0.0194076
-0.0185036
-0.0176402
-0.0168157
-0.0160286
-0.0152772
-0.0145601
-0.0138758
-0.0132229
-0.0126
-0.0120059
-0.0114393
-0.0108989
-0.0103837
-0.00989241
-0.00942405
-0.00897756
-0.00855196
-0.0081463
-0.00775967
-0.0073912
-0.00704006
-0.00670544
-0.00638659
-0.00608278
-0.0057933
-0.0055175
-0.00525473
-0.00500439
-0.0047659
-0.0045387
-0.00432226
-0.00411608
-0.00391967
-0.00373258
-0.00355436
-0.0033846
-0.0032229
-0.00306887
-0.00292215
-0.0027824
-0.00264929
-0.00252249
-0.00240172
-0.00228668
-0.0021771
-0.00207272
-0.00197329
-0.00187858
-0.00178836
-0.00170242
-0.00162054
-0.00154255
-0.00146824
-0.00139745
-0.00133
-0.00126573
-0.0012045
-0.00114614
-0.00109054
-0.00103754
-0.000987027
-0.000938878
-0.000892978
-0.000849217
-0.00080749
-0.000767698
-0.000729745
-0.00069354
-0.000658996
-0.000626032
-0.000594567
-0.000564527
-0.00053584
-0.000508437
-0.000482252
-0.000457223
-0.000433289
-0.000410393
-0.000388481
-0.0003675
-0.0003474
-0.000328132
-0.00030965
-0.00029191
-0.00027487
-0.000258488
-0.000242726
-0.000227546
-0.00021291
-0.000198785
-0.000185137
-0.000171932
-0.000159139
-0.000146727
-0.000134667
-0.000122929
-0.000111487
-0.000100311
-8.93767e-05
-7.86535e-05
-6.81269e-05
-5.77438e-05
-4.75478e-05
-3.73456e-05
-2.75207e-05
-1.70065e-05
-8.03349e-06
0.292614
0.292494
0.292232
0.291819
0.291255
0.290544
0.289683
0.288672
0.287508
0.286188
0.284712
0.283076
0.281277
0.279314
0.277182
0.274878
0.272399
0.269742
0.266903
0.263877
0.260662
0.257253
0.253647
0.249839
0.245827
0.241605
0.237172
0.232523
0.227656
0.222569
0.217259
0.211725
0.205966
0.199981
0.193771
0.187336
0.180679
0.173803
0.166711
0.159408
0.151899
0.14419
0.13629
0.128207
0.11995
0.11153
0.102956
0.0942435
0.0854038
0.0764519
0.0674036
0.0582757
0.0490862
0.0398546
0.0306012
0.0213475
0.0121161
0.00292993
-0.00618714
-0.0152111
-0.0241177
-0.0328829
-0.0414829
-0.0498943
-0.0580946
-0.0660618
-0.0737751
-0.0812149
-0.0883625
-0.0952009
-0.101714
-0.107888
-0.11371
-0.119168
-0.124254
-0.128959
-0.133277
-0.137203
-0.140734
-0.143871
-0.146612
-0.148961
-0.150921
-0.152498
-0.153699
-0.154533
-0.155009
-0.15514
-0.154937
-0.154415
-0.153588
-0.152473
-0.151085
-0.149441
-0.147561
-0.14546
-0.143158
-0.140673
-0.138023
-0.135227
-0.132301
-0.129264
-0.126132
-0.122921
-0.119647
-0.116326
-0.11297
-0.109594
-0.106209
-0.102827
-0.0994599
-0.0961159
-0.0928045
-0.0895335
-0.0863102
-0.0831409
-0.0800311
-0.0769858
-0.0740089
-0.071104
-0.0682738
-0.0655206
-0.0628461
-0.0602515
-0.0577375
-0.0553046
-0.0529526
-0.0506812
-0.0484899
-0.0463776
-0.0443434