/*--------------------------------*- C++ -*----------------------------------*\
| =========                 |                                                 |
| \\      /  F ield         | OpenFOAM: The Open Source CFD Toolbox           |
|  \\    /   O peration     | Version:  2306                                  |
|   \\  /    A nd           | Website:  www.openfoam.com                      |
|    \\/     M anipulation  |                                                 |
\*---------------------------------------------------------------------------*/
FoamFile
{
    version     2.0;
    format      ascii;
    arch        "LSB;label=32;scalar=64";
    class       surfaceScalarField;
    location    "1.5";
    object      phi;
}
// * * * * * * * * * * * * * * * * * * * * * * * * * * * * * * * * * * * * * //

dimensions      [0 3 -1 0 0 0 0];

oriented        oriented;

internalField   nonuniform List<scalar> 
65152
(
0.00625047
-4.74759e-07
0.0062519
-1.42308e-06
0.00625427
-2.36865e-06
0.00625758
-3.3123e-06
0.00626183
-4.25541e-06
0.00626703
-5.19878e-06
0.00627318
-6.14286e-06
0.00628026
-7.08814e-06
0.0062883
-8.03516e-06
0.00629728
-8.98443e-06
0.00630722
-9.93637e-06
0.00631811
-1.08913e-05
0.00632996
-1.18495e-05
0.00634277
-1.28111e-05
0.00635655
-1.37761e-05
0.00637129
-1.47445e-05
0.00638701
-1.57162e-05
0.0064037
-1.66909e-05
0.00642137
-1.76681e-05
0.00644001
-1.86473e-05
0.00645964
-1.96278e-05
0.00648025
-2.06088e-05
0.00650184
-2.15893e-05
0.00652441
-2.25683e-05
0.00654795
-2.35444e-05
0.00657247
-2.45164e-05
0.00659795
-2.54827e-05
0.00662439
-2.64418e-05
0.00665179
-2.73922e-05
0.00668012
-2.83322e-05
0.00670938
-2.92602e-05
0.00673955
-3.01746e-05
0.00677063
-3.10744e-05
0.00680259
-3.19592e-05
0.00683542
-3.28302e-05
0.00686911
-3.36907e-05
0.00690365
-3.45466e-05
0.00693906
-3.54061e-05
0.00697534
-3.62793e-05
0.00701252
-3.71766e-05
0.00705062
-3.81069e-05
0.0070897
-3.90751e-05
0.00712978
-4.00799e-05
0.00717089
-4.11127e-05
0.00721305
-4.21567e-05
0.00725623
-4.31871e-05
0.00730041
-4.41734e-05
0.00734549
-4.50811e-05
0.00739136
-4.58749e-05
0.00743789
-4.65212e-05
0.00748488
-4.69909e-05
0.00753214
-4.72609e-05
0.00757945
-4.73154e-05
0.0076266
-4.71463e-05
0.00767335
-4.67525e-05
0.00771949
-4.61392e-05
0.00776481
-4.53167e-05
0.00780911
-4.42986e-05
0.00785221
-4.31012e-05
0.00789395
-4.17413e-05
0.00793418
-4.02363e-05
0.00797279
-3.86026e-05
0.00800964
-3.68556e-05
0.00804465
-3.50092e-05
0.00807773
-3.3076e-05
0.0081088
-3.10671e-05
0.00813779
-2.89924e-05
0.00816465
-2.68606e-05
0.00818933
-2.46797e-05
0.00821179
-2.24569e-05
0.00823198
-2.0199e-05
0.0082499
-1.79123e-05
0.0082655
-1.56033e-05
0.00827878
-1.3278e-05
0.00828972
-1.09426e-05
0.00829832
-8.60315e-06
0.00830459
-6.26586e-06
0.00830853
-3.93696e-06
0.00831015
-1.62268e-06
0.00830948
6.7065e-07
0.00830654
2.93675e-06
0.00830137
5.16938e-06
0.00829401
7.36233e-06
0.0082845
9.5095e-06
0.0082729
1.16049e-05
0.00825925
1.36429e-05
0.00824363
1.56178e-05
0.00822611
1.75244e-05
0.00820675
1.93577e-05
0.00818564
2.11132e-05
0.00816285
2.27865e-05
0.00813848
2.43739e-05
0.00811261
2.58721e-05
0.00808533
2.72781e-05
0.00805674
2.85896e-05
0.00802693
2.98046e-05
0.00799601
3.09217e-05
0.00796407
3.19401e-05
0.00793121
3.28595e-05
0.00789753
3.36799e-05
0.00786313
3.44019e-05
0.0078281
3.50266e-05
0.00779255
3.55556e-05
0.00775656
3.59908e-05
0.00772022
3.63345e-05
0.00768363
3.65894e-05
0.00764688
3.67584e-05
0.00761003
3.68449e-05
0.00757318
3.68523e-05
0.00753639
3.67844e-05
0.00749975
3.66451e-05
0.00746331
3.64384e-05
0.00742714
3.61684e-05
0.0073913
3.58393e-05
0.00735585
3.54554e-05
0.00732083
3.50208e-05
0.00728629
3.45399e-05
0.00725227
3.40166e-05
0.00721882
3.34552e-05
0.00718596
3.28596e-05
0.00715372
3.22336e-05
0.00712214
3.15811e-05
0.00709124
3.09055e-05
0.00706103
3.02104e-05
0.00703153
2.94991e-05
0.00700275
2.87746e-05
0.00697471
2.804e-05
0.00694741
2.72979e-05
0.00692086
2.6551e-05
0.00689506
2.58018e-05
0.00687001
2.50523e-05
0.0068457
2.43048e-05
0.00682214
2.35611e-05
0.00679932
2.28229e-05
0.00677723
2.20919e-05
0.00675586
2.13694e-05
0.0067352
2.06567e-05
0.00671525
1.9955e-05
0.00669598
1.92653e-05
0.00667739
1.85884e-05
0.00665947
1.79251e-05
0.00664219
1.7276e-05
0.00662555
1.66418e-05
0.00660953
1.60228e-05
0.00659411
1.54193e-05
0.00657928
1.48318e-05
0.00656502
1.42603e-05
0.00655131
1.3705e-05
0.00653815
1.3166e-05
0.0065255
1.26432e-05
0.00651337
1.21366e-05
0.00650172
1.16461e-05
0.00649055
1.11716e-05
0.00647983
1.07129e-05
0.00646956
1.02698e-05
0.00645972
9.84205e-06
0.00645029
9.42936e-06
0.00644126
9.03147e-06
0.00643261
8.64807e-06
0.00642434
8.27884e-06
0.00641641
7.92344e-06
0.00640883
7.58153e-06
0.00640158
7.25276e-06
0.00639464
6.93676e-06
0.00638801
6.63318e-06
0.00638167
6.34165e-06
0.0063756
6.0618e-06
0.00636981
5.79326e-06
0.00636428
5.53568e-06
0.00635899
5.28869e-06
0.00635393
5.05194e-06
0.00634911
4.82506e-06
0.0063445
4.60772e-06
0.0063401
4.39958e-06
0.0063359
4.20029e-06
0.00633189
4.00954e-06
0.00632807
3.82699e-06
0.00632441
3.65235e-06
0.00632093
3.48531e-06
0.0063176
3.32556e-06
0.00631443
3.17283e-06
0.0063114
3.02683e-06
0.00630852
2.88729e-06
0.00630576
2.75396e-06
0.00630313
2.62657e-06
0.00630063
2.50488e-06
0.00629824
2.38866e-06
0.00629596
2.27767e-06
0.00629379
2.1717e-06
0.00629172
2.07053e-06
0.00628975
1.97396e-06
0.00628787
1.88179e-06
0.00628607
1.79383e-06
0.00628436
1.70989e-06
0.00628273
1.62981e-06
0.00628118
1.55341e-06
0.0062797
1.48053e-06
0.00627829
1.41102e-06
0.00627694
1.34472e-06
0.00627566
1.28149e-06
0.00627444
1.2212e-06
0.00627328
1.16371e-06
0.00627217
1.10891e-06
0.00627111
1.05666e-06
0.0062701
1.00685e-06
0.00626914
9.5937e-07
0.00626823
9.14118e-07
0.00626736
8.70991e-07
0.00626653
8.29891e-07
0.00626574
7.90726e-07
0.00626498
7.53407e-07
0.00626427
7.17849e-07
0.00626358
6.83973e-07
0.00626293
6.517e-07
0.00626231
6.20957e-07
0.00626172
5.91674e-07
0.00626115
5.63783e-07
0.00626062
5.37219e-07
0.00626011
5.11923e-07
0.00625962
4.87835e-07
0.00625915
4.64899e-07
0.00625871
4.43062e-07
0.00625829
4.22274e-07
0.00625789
4.02486e-07
0.0062575
3.83652e-07
0.00625714
3.65728e-07
0.00625679
3.48673e-07
0.00625645
3.32445e-07
0.00625614
3.17007e-07
0.00625584
3.02324e-07
0.00625555
2.8836e-07
0.00625527
2.75082e-07
0.00625501
2.62459e-07
0.00625476
2.50462e-07
0.00625452
2.39062e-07
0.00625429
2.28233e-07
0.00625407
2.17948e-07
0.00625387
2.08183e-07
0.00625367
1.98916e-07
0.00625348
1.90124e-07
0.00625329
1.81786e-07
0.00625312
1.73883e-07
0.00625295
1.66396e-07
0.0062528
1.59306e-07
0.00625264
1.52598e-07
0.0062525
1.46255e-07
0.00625236
1.40262e-07
0.00625222
1.34606e-07
0.00625209
1.2927e-07
0.00625197
1.24246e-07
0.00625185
1.19517e-07
0.00625173
1.15071e-07
0.00625162
1.10915e-07
0.00625152
1.0692e-07
0.00625141
1.03545e-07
9.9073e-08
0.00625048
-9.50042e-07
0.0062519
-2.84461e-06
0.00625426
-4.73491e-06
0.00625757
-6.62231e-06
0.00626183
-8.50834e-06
0.00626702
-1.03945e-05
0.00627316
-1.22821e-05
0.00628025
-1.41723e-05
0.00628828
-1.6066e-05
0.00629726
-1.79643e-05
0.00630719
-1.9868e-05
0.00631807
-2.17778e-05
0.00632992
-2.36942e-05
0.00634272
-2.56175e-05
0.0063565
-2.75478e-05
0.00637124
-2.94851e-05
0.00638695
-3.14291e-05
0.00640364
-3.33791e-05
0.0064213
-3.53343e-05
0.00643995
-3.72938e-05
0.00645958
-3.9256e-05
0.00648019
-4.12195e-05
0.00650178
-4.31821e-05
0.00652436
-4.51419e-05
0.00654791
-4.70961e-05
0.00657243
-4.90422e-05
0.00659793
-5.09772e-05
0.00662438
-5.28981e-05
0.00665179
-5.48017e-05
0.00668015
-5.66848e-05
0.00670943
-5.85439e-05
0.00673963
-6.03762e-05
0.00677074
-6.21792e-05
0.00680273
-6.39524e-05
0.0068356
-6.56982e-05
0.00686933
-6.74231e-05
0.00690392
-6.91387e-05
0.00693938
-7.08615e-05
0.00697571
-7.26116e-05
0.00701294
-7.44098e-05
0.00705111
-7.62737e-05
0.00709025
-7.8213e-05
0.00713039
-8.02253e-05
0.00717157
-8.22932e-05
0.0072138
-8.43827e-05
0.00725706
-8.64449e-05
0.0073013
-8.84183e-05
0.00734646
-9.02343e-05
0.0073924
-9.1822e-05
0.007439
-9.31145e-05
0.00748606
-9.40535e-05
0.00753339
-9.45929e-05
0.00758078
-9.47013e-05
0.00762799
-9.43624e-05
0.00767481
-9.3574e-05
0.00772102
-9.23465e-05
0.00776641
-9.07003e-05
0.00781077
-8.8663e-05
0.00785394
-8.62666e-05
0.00789574
-8.35452e-05
0.00793604
-8.05333e-05
0.0079747
-7.72637e-05
0.00801161
-7.37671e-05
0.00804667
-7.00716e-05
0.0080798
-6.62022e-05
0.00811091
-6.2181e-05
0.00813995
-5.80278e-05
0.00816685
-5.37602e-05
0.00819156
-4.9394e-05
0.00821405
-4.49438e-05
0.00823427
-4.0423e-05
0.0082522
-3.58447e-05
0.00826782
-3.12213e-05
0.00828111
-2.65651e-05
0.00829205
-2.18885e-05
0.00830066
-1.72037e-05
0.00830691
-1.25231e-05
0.00831084
-7.85917e-06
0.00831244
-3.22434e-06
0.00831174
1.36845e-06
0.00830877
5.90686e-06
0.00830356
1.03783e-05
0.00829615
1.47702e-05
0.00828659
1.90705e-05
0.00827493
2.32672e-05
0.00826122
2.73486e-05
0.00824554
3.13036e-05
0.00822794
3.51218e-05
0.0082085
3.8793e-05
0.00818731
4.23081e-05
0.00816444
4.56586e-05
0.00813997
4.88368e-05
0.00811401
5.1836e-05
0.00808664
5.46504e-05
0.00805795
5.72752e-05
0.00802805
5.97066e-05
0.00799703
6.19418e-05
0.00796499
6.3979e-05
0.00793203
6.58176e-05
0.00789826
6.74578e-05
0.00786376
6.89008e-05
0.00782863
7.01488e-05
0.00779299
7.12049e-05
0.0077569
7.20729e-05
0.00772048
7.27576e-05
0.00768381
7.32644e-05
0.00764696
7.35992e-05
0.00761004
7.37686e-05
0.00757311
7.37798e-05
0.00753626
7.36401e-05
0.00749955
7.33574e-05
0.00746304
7.29399e-05
0.00742682
7.23957e-05
0.00739092
7.17334e-05
0.00735542
7.09613e-05
0.00732035
7.0088e-05
0.00728577
6.9122e-05
0.00725171
6.80714e-05
0.00721822
6.69446e-05
0.00718533
6.57495e-05
0.00715307
6.44938e-05
0.00712147
6.31851e-05
0.00709054
6.18306e-05
0.00706032
6.04372e-05
0.0070308
5.90114e-05
0.00700202
5.75595e-05
0.00697397
5.60874e-05
0.00694667
5.46007e-05
0.00692012
5.31045e-05
0.00689431
5.16037e-05
0.00686926
5.01028e-05
0.00684496
4.86058e-05
0.00682141
4.71167e-05
0.00679859
4.56387e-05
0.00677651
4.41752e-05
0.00675515
4.2729e-05
0.0067345
4.13025e-05
0.00671456
3.98981e-05
0.00669531
3.85177e-05
0.00667673
3.71632e-05
0.00665882
3.5836e-05
0.00664156
3.45373e-05
0.00662493
3.32684e-05
0.00660893
3.203e-05
0.00659352
3.08229e-05
0.00657871
2.96476e-05
0.00656446
2.85045e-05
0.00655077
2.73938e-05
0.00653762
2.63157e-05
0.006525
2.52702e-05
0.00651288
2.42571e-05
0.00650125
2.32763e-05
0.00649009
2.23275e-05
0.00647939
2.14103e-05
0.00646914
2.05243e-05
0.00645931
1.9669e-05
0.0064499
1.8844e-05
0.00644088
1.80485e-05
0.00643225
1.7282e-05
0.00642398
1.65439e-05
0.00641607
1.58334e-05
0.0064085
1.515e-05
0.00640126
1.44928e-05
0.00639434
1.38611e-05
0.00638772
1.32543e-05
0.00638139
1.26716e-05
0.00637534
1.21123e-05
0.00636955
1.15756e-05
0.00636403
1.10608e-05
0.00635875
1.05672e-05
0.00635371
1.0094e-05
0.00634889
9.64061e-06
0.00634429
9.20627e-06
0.0063399
8.79031e-06
0.00633571
8.39207e-06
0.00633171
8.01088e-06
0.00632789
7.6461e-06
0.00632425
7.29712e-06
0.00632077
6.96333e-06
0.00631745
6.64412e-06
0.00631428
6.33893e-06
0.00631126
6.04721e-06
0.00630838
5.7684e-06
0.00630563
5.50198e-06
0.00630301
5.24745e-06
0.00630051
5.00431e-06
0.00629813
4.7721e-06
0.00629586
4.55034e-06
0.00629369
4.33861e-06
0.00629162
4.13648e-06
0.00628966
3.94354e-06
0.00628778
3.75938e-06
0.00628599
3.58364e-06
0.00628428
3.41595e-06
0.00628266
3.25595e-06
0.00628111
3.10331e-06
0.00627963
2.9577e-06
0.00627822
2.81882e-06
0.00627688
2.68637e-06
0.0062756
2.56005e-06
0.00627438
2.4396e-06
0.00627322
2.32476e-06
0.00627211
2.21526e-06
0.00627106
2.11088e-06
0.00627006
2.01137e-06
0.0062691
1.91652e-06
0.00626819
1.82612e-06
0.00626732
1.73996e-06
0.00626649
1.65785e-06
0.0062657
1.57961e-06
0.00626495
1.50506e-06
0.00626423
1.43402e-06
0.00626355
1.36635e-06
0.0062629
1.30188e-06
0.00626228
1.24046e-06
0.00626169
1.18196e-06
0.00626113
1.12624e-06
0.00626059
1.07318e-06
0.00626008
1.02264e-06
0.0062596
9.74521e-07
0.00625913
9.28702e-07
0.00625869
8.8508e-07
0.00625827
8.43552e-07
0.00625787
8.04022e-07
0.00625748
7.66398e-07
0.00625712
7.30592e-07
0.00625677
6.9652e-07
0.00625644
6.64103e-07
0.00625612
6.33264e-07
0.00625582
6.03931e-07
0.00625553
5.76035e-07
0.00625526
5.49511e-07
0.006255
5.24296e-07
0.00625475
5.0033e-07
0.00625451
4.77557e-07
0.00625428
4.55923e-07
0.00625406
4.35378e-07
0.00625386
4.15871e-07
0.00625366
3.97359e-07
0.00625347
3.79795e-07
0.00625329
3.63139e-07
0.00625311
3.47352e-07
0.00625295
3.32395e-07
0.00625279
3.18233e-07
0.00625264
3.04833e-07
0.00625249
2.92162e-07
0.00625235
2.80191e-07
0.00625222
2.6889e-07
0.00625209
2.58234e-07
0.00625196
2.48192e-07
0.00625184
2.38759e-07
0.00625173
2.29852e-07
0.00625162
2.21629e-07
0.00625151
2.13524e-07
0.00625141
2.07195e-07
1.97602e-07
0.00625047
-1.4242e-06
0.00625189
-4.26435e-06
0.00625426
-7.09818e-06
0.00625756
-9.92794e-06
0.00626181
-1.27558e-05
0.006267
-1.55838e-05
0.00627313
-1.8414e-05
0.00628021
-2.12482e-05
0.00628823
-2.4088e-05
0.0062972
-2.69348e-05
0.00630712
-2.97899e-05
0.006318
-3.26544e-05
0.00632983
-3.55291e-05
0.00634263
-3.84145e-05
0.00635639
-4.13107e-05
0.00637113
-4.42177e-05
0.00638683
-4.7135e-05
0.00640351
-5.00618e-05
0.00642118
-5.29968e-05
0.00643982
-5.59386e-05
0.00645945
-5.88851e-05
0.00648006
-6.18337e-05
0.00650166
-6.47818e-05
0.00652425
-6.77259e-05
0.00654781
-7.06623e-05
0.00657236
-7.3587e-05
0.00659788
-7.64956e-05
0.00662436
-7.93835e-05
0.00665181
-8.22459e-05
0.0066802
-8.5078e-05
0.00670953
-8.78747e-05
0.00673979
-9.06315e-05
0.00677095
-9.33449e-05
0.00680301
-9.60139e-05
0.00683596
-9.8642e-05
0.00686977
-0.000101239
0.00690446
-0.000103822
0.00694001
-0.000106416
0.00697645
-0.00010905
0.0070138
-0.000111756
0.00705208
-0.000114561
0.00709135
-0.000117477
0.00713162
-0.000120502
0.00717294
-0.000123609
0.00721531
-0.000126748
0.00725871
-0.000129845
0.00730309
-0.000132807
0.00734839
-0.000135532
0.00739448
-0.000137914
0.00744122
-0.000139852
0.00748843
-0.00014126
0.0075359
-0.000142068
0.00758343
-0.000142229
0.00763079
-0.000141719
0.00767775
-0.000140534
0.00772409
-0.00013869
0.00776961
-0.000136218
0.00781411
-0.000133159
0.0078574
-0.000129561
0.00789933
-0.000125475
0.00793975
-0.000120952
0.00797853
-0.000116042
0.00801555
-0.000110791
0.00805072
-0.000105241
0.00808394
-9.94286e-05
0.00811515
-9.33883e-05
0.00814427
-8.71492e-05
0.00817125
-8.07377e-05
0.00819603
-7.41776e-05
0.00821858
-6.74907e-05
0.00823886
-6.06973e-05
0.00825683
-5.3817e-05
0.00827248
-4.68684e-05
0.00828578
-3.98703e-05
0.00829673
-3.2841e-05
0.00830533
-2.5799e-05
0.00831157
-1.87629e-05
0.00831546
-1.17516e-05
0.00831702
-4.78372e-06
0.00831627
2.12092e-06
0.00831323
8.94412e-06
0.00830794
1.56667e-05
0.00830044
2.22698e-05
0.00829078
2.87351e-05
0.008279
3.50444e-05
0.00826517
4.11804e-05
0.00824935
4.71261e-05
0.0082316
5.28657e-05
0.00821201
5.83841e-05
0.00819065
6.36672e-05
0.00816761
6.87025e-05
0.00814297
7.34782e-05
0.00811682
7.79842e-05
0.00808926
8.22118e-05
0.00806038
8.61537e-05
0.00803028
8.98042e-05
0.00799906
9.31592e-05
0.00796683
9.6216e-05
0.00793367
9.89735e-05
0.0078997
0.000101432
0.007865
0.000103594
0.00782969
0.000105462
0.00779385
0.000107042
0.00775759
0.000108338
0.00772099
0.000109358
0.00768414
0.000110111
0.00764713
0.000110605
0.00761005
0.00011085
0.00757298
0.000110858
0.00753598
0.000110638
0.00749913
0.000110204
0.0074625
0.000109568
0.00742616
0.000108741
0.00739015
0.000107737
0.00735455
0.000106568
0.00731939
0.000105248
0.00728472
0.000103788
0.00725059
0.000102202
0.00721703
0.000100502
0.00718408
9.86999e-05
0.00715177
9.68071e-05
0.00712012
9.4835e-05
0.00708915
9.27946e-05
0.00705889
9.06963e-05
0.00702936
8.85498e-05
0.00700055
8.63646e-05
0.00697249
8.41496e-05
0.00694518
8.1913e-05
0.00691862
7.96627e-05
0.00689282
7.74059e-05
0.00686777
7.51493e-05
0.00684348
7.28992e-05
0.00681993
7.06611e-05
0.00679713
6.84403e-05
0.00677506
6.62415e-05
0.00675372
6.40689e-05
0.0067331
6.19263e-05
0.00671318
5.98172e-05
0.00669395
5.77445e-05
0.00667541
5.57108e-05
0.00665752
5.37183e-05
0.00664029
5.1769e-05
0.0066237
4.98645e-05
0.00660772
4.8006e-05
0.00659235
4.61947e-05
0.00657757
4.44312e-05
0.00656335
4.27162e-05
0.0065497
4.10501e-05
0.00653658
3.9433e-05
0.00652399
3.78648e-05
0.0065119
3.63454e-05
0.0065003
3.48746e-05
0.00648917
3.34518e-05
0.00647851
3.20765e-05
0.00646828
3.07481e-05
0.00645849
2.94659e-05
0.0064491
2.8229e-05
0.00644011
2.70365e-05
0.00643151
2.58876e-05
0.00642327
2.47813e-05
0.00641539
2.37164e-05
0.00640785
2.26921e-05
0.00640063
2.17072e-05
0.00639373
2.07607e-05
0.00638714
1.98514e-05
0.00638083
1.89783e-05
0.0063748
1.81402e-05
0.00636904
1.73361e-05
0.00636354
1.65648e-05
0.00635828
1.58252e-05
0.00635326
1.51164e-05
0.00634846
1.44371e-05
0.00634388
1.37865e-05
0.00633951
1.31634e-05
0.00633533
1.25668e-05
0.00633135
1.19958e-05
0.00632754
1.14494e-05
0.00632391
1.09267e-05
0.00632045
1.04268e-05
0.00631715
9.94869e-06
0.00631399
9.4916e-06
0.00631099
9.05468e-06
0.00630812
8.63712e-06
0.00630538
8.23813e-06
0.00630277
7.85695e-06
0.00630028
7.49283e-06
0.00629791
7.14508e-06
0.00629565
6.81301e-06
0.00629349
6.49594e-06
0.00629143
6.19326e-06
0.00628947
5.90433e-06
0.0062876
5.62857e-06
0.00628582
5.36542e-06
0.00628412
5.11431e-06
0.0062825
4.87474e-06
0.00628096
4.64618e-06
0.00627949
4.42816e-06
0.00627809
4.22021e-06
0.00627675
4.02189e-06
0.00627548
3.83276e-06
0.00627427
3.65241e-06
0.00627311
3.48046e-06
0.00627201
3.31652e-06
0.00627096
3.16023e-06
0.00626996
3.01124e-06
0.00626901
2.86923e-06
0.0062681
2.73388e-06
0.00626724
2.60489e-06
0.00626641
2.48196e-06
0.00626563
2.36481e-06
0.00626488
2.25319e-06
0.00626417
2.14685e-06
0.00626349
2.04552e-06
0.00626284
1.949e-06
0.00626222
1.85705e-06
0.00626164
1.76947e-06
0.00626108
1.68605e-06
0.00626054
1.60661e-06
0.00626003
1.53095e-06
0.00625955
1.45891e-06
0.00625909
1.39031e-06
0.00625865
1.32501e-06
0.00625823
1.26284e-06
0.00625783
1.20366e-06
0.00625745
1.14733e-06
0.00625709
1.09373e-06
0.00625674
1.04272e-06
0.00625641
9.94186e-07
0.00625609
9.48018e-07
0.00625579
9.04105e-07
0.00625551
8.62343e-07
0.00625523
8.22634e-07
0.00625497
7.84885e-07
0.00625473
7.49007e-07
0.00625449
7.14915e-07
0.00625426
6.82528e-07
0.00625404
6.51771e-07
0.00625384
6.22569e-07
0.00625364
5.94854e-07
0.00625345
5.68561e-07
0.00625327
5.43626e-07
0.0062531
5.19992e-07
0.00625293
4.97601e-07
0.00625278
4.764e-07
0.00625262
4.56339e-07
0.00625248
4.37371e-07
0.00625234
4.1945e-07
0.00625221
4.02532e-07
0.00625208
3.86581e-07
0.00625195
3.71547e-07
0.00625184
3.5743e-07
0.00625172
3.4409e-07
0.00625161
3.31804e-07
0.0062515
3.19644e-07
0.0062514
3.1022e-07
2.95779e-07
0.00625047
-1.89738e-06
0.00625189
-5.68124e-06
0.00625425
-9.45673e-06
0.00625755
-1.3227e-05
0.00626179
-1.69949e-05
0.00626697
-2.07633e-05
0.00627309
-2.45347e-05
0.00628015
-2.83117e-05
0.00628816
-3.20965e-05
0.00629712
-3.5891e-05
0.00630702
-3.96971e-05
0.00631788
-4.35161e-05
0.0063297
-4.73491e-05
0.00634249
-5.11969e-05
0.00635624
-5.50599e-05
0.00637096
-5.89377e-05
0.00638665
-6.28301e-05
0.00640332
-6.67358e-05
0.00642098
-7.06533e-05
0.00643962
-7.45805e-05
0.00645925
-7.85148e-05
0.00647987
-8.2453e-05
0.00650148
-8.63912e-05
0.00652408
-9.0325e-05
0.00654767
-9.42497e-05
0.00657224
-9.81596e-05
0.00659779
-0.000102049
0.00662432
-0.000105912
0.00665182
-0.000109742
0.00668027
-0.000113532
0.00670967
-0.000117276
0.00674001
-0.000120967
0.00677127
-0.000124602
0.00680343
-0.000128177
0.00683649
-0.000131699
0.00687043
-0.00013518
0.00690525
-0.000138642
0.00694095
-0.000142118
0.00697755
-0.000145648
0.00701506
-0.000149273
0.00705353
-0.000153028
0.00709298
-0.000156931
0.00713346
-0.000160976
0.00717498
-0.00016513
0.00721755
-0.000169323
0.00726117
-0.000173458
0.00730577
-0.000177412
0.00735129
-0.000181048
0.0073976
-0.000184224
0.00744455
-0.000186808
0.00749198
-0.000188684
0.00753967
-0.000189758
0.00758741
-0.00018997
0.00763498
-0.000189286
0.00768215
-0.000187703
0.0077287
-0.00018524
0.00777442
-0.000181939
0.00781911
-0.000177854
0.0078626
-0.000173049
0.00790472
-0.000167593
0.00794532
-0.000161554
0.00798427
-0.000154997
0.00802147
-0.000147984
0.0080568
-0.00014057
0.00809017
-0.000132806
0.00812152
-0.000124737
0.00815077
-0.0001164
0.00817787
-0.000107833
0.00820276
-9.90658e-05
0.0082254
-9.01283e-05
0.00824575
-8.10476e-05
0.00826378
-7.18497e-05
0.00827947
-6.25599e-05
0.0082928
-5.32029e-05
0.00830376
-4.38035e-05
0.00831235
-3.43864e-05
0.00831857
-2.49767e-05
0.00832241
-1.55996e-05
0.00832391
-6.27995e-06
0.00832308
2.95549e-06
0.00831994
1.20822e-05
0.00831453
2.10745e-05
0.00830689
2.99072e-05
0.00829707
3.85554e-05
0.00828512
4.69948e-05
0.0082711
5.5202e-05
0.00825507
6.31543e-05
0.00823711
7.08303e-05
0.00821728
7.82097e-05
0.00819568
8.52737e-05
0.00817237
9.20051e-05
0.00814746
9.83884e-05
0.00812104
0.00010441
0.00809319
0.000110058
0.00806402
0.000115323
0.00803363
0.000120197
0.00800211
0.000124674
0.00796958
0.000128751
0.00793612
0.000132427
0.00790185
0.000135703
0.00786687
0.00013858
0.00783127
0.000141064
0.00779515
0.00014316
0.00775861
0.000144878
0.00772174
0.000146226
0.00768464
0.000147215
0.00764738
0.000147859
0.00761006
0.000148169
0.00757276
0.000148162
0.00753555
0.000147851
0.0074985
0.000147254
0.00746168
0.000146385
0.00742516
0.000145263
0.00738899
0.000143905
0.00735323
0.000142327
0.00731793
0.000140547
0.00728314
0.000138581
0.00724889
0.000136448
0.00721523
0.000134162
0.00718219
0.000131741
0.0071498
0.0001292
0.00711808
0.000126553
0.00708706
0.000123817
0.00705675
0.000121003
0.00702717
0.000118127
0.00699834
0.0001152
0.00697026
0.000112233
0.00694293
0.000109239
0.00691636
0.000106228
0.00689056
0.000103208
0.00686552
0.00010019
0.00684124
9.71805e-05
0.00681771
9.41883e-05
0.00679493
9.12199e-05
0.00677289
8.82816e-05
0.00675158
8.53789e-05
0.00673099
8.25169e-05
0.00671111
7.97e-05
0.00669192
7.69324e-05
0.00667342
7.42172e-05
0.00665558
7.15576e-05
0.00663839
6.8956e-05
0.00662184
6.64146e-05
0.00660591
6.3935e-05
0.00659059
6.15186e-05
0.00657585
5.91665e-05
0.00656169
5.68793e-05
0.00654808
5.46575e-05
0.00653501
5.25013e-05
0.00652247
5.04106e-05
0.00651043
4.83853e-05
0.00649888
4.64248e-05
0.0064878
4.45286e-05
0.00647718
4.26959e-05
0.006467
4.09259e-05
0.00645725
3.92174e-05
0.00644791
3.75696e-05
0.00643897
3.59811e-05
0.0064304
3.44507e-05
0.00642221
3.29771e-05
0.00641437
3.1559e-05
0.00640686
3.01949e-05
0.00639969
2.88834e-05
0.00639282
2.76231e-05
0.00638626
2.64124e-05
0.00637999
2.52499e-05
0.006374
2.41342e-05
0.00636827
2.30637e-05
0.0063628
2.2037e-05
0.00635757
2.10526e-05
0.00635258
2.01091e-05
0.00634781
1.92051e-05
0.00634326
1.83391e-05
0.00633891
1.75099e-05
0.00633476
1.6716e-05
0.0063308
1.59562e-05
0.00632702
1.52291e-05
0.00632341
1.45336e-05
0.00631997
1.38684e-05
0.00631669
1.32323e-05
0.00631356
1.26241e-05
0.00631057
1.20428e-05
0.00630772
1.14873e-05
0.006305
1.09565e-05
0.00630241
1.04494e-05
0.00629994
9.96501e-06
0.00629758
9.50241e-06
0.00629533
9.06067e-06
0.00629319
8.63891e-06
0.00629114
8.23628e-06
0.0062892
7.85196e-06
0.00628734
7.48517e-06
0.00628557
7.13515e-06
0.00628388
6.80116e-06
0.00628228
6.48251e-06
0.00628074
6.17853e-06
0.00627928
5.88856e-06
0.00627789
5.61199e-06
0.00627656
5.34822e-06
0.0062753
5.09669e-06
0.0062741
4.85684e-06
0.00627295
4.62815e-06
0.00627185
4.41013e-06
0.00627081
4.20228e-06
0.00626982
4.00415e-06
0.00626887
3.81529e-06
0.00626797
3.6353e-06
0.00626711
3.46375e-06
0.0062663
3.30028e-06
0.00626552
3.1445e-06
0.00626477
2.99607e-06
0.00626406
2.85464e-06
0.00626339
2.71991e-06
0.00626275
2.59155e-06
0.00626214
2.46928e-06
0.00626155
2.35282e-06
0.006261
2.2419e-06
0.00626047
2.13626e-06
0.00625996
2.03565e-06
0.00625948
1.93986e-06
0.00625902
1.84864e-06
0.00625859
1.7618e-06
0.00625817
1.67913e-06
0.00625777
1.60044e-06
0.00625739
1.52554e-06
0.00625703
1.45427e-06
0.00625669
1.38644e-06
0.00625636
1.32191e-06
0.00625605
1.26052e-06
0.00625575
1.20213e-06
0.00625547
1.1466e-06
0.0062552
1.0938e-06
0.00625494
1.04361e-06
0.00625469
9.95901e-07
0.00625446
9.5057e-07
0.00625423
9.07507e-07
0.00625402
8.6661e-07
0.00625381
8.27782e-07
0.00625361
7.90931e-07
0.00625343
7.5597e-07
0.00625325
7.22816e-07
0.00625308
6.9139e-07
0.00625291
6.61618e-07
0.00625276
6.33429e-07
0.00625261
6.06756e-07
0.00625246
5.81535e-07
0.00625232
5.57706e-07
0.00625219
5.35212e-07
0.00625206
5.14004e-07
0.00625194
4.94014e-07
0.00625182
4.75245e-07
0.00625171
4.57507e-07
0.0062516
4.4118e-07
0.00625149
4.24999e-07
0.00625139
4.12487e-07
3.93265e-07
0.00625047
-2.36926e-06
0.00625188
-7.09424e-06
0.00625424
-1.18089e-05
0.00625753
-1.65172e-05
0.00626176
-2.12228e-05
0.00626692
-2.59294e-05
0.00627303
-3.06402e-05
0.00628007
-3.53583e-05
0.00628806
-4.00867e-05
0.006297
-4.48278e-05
0.00630689
-4.95841e-05
0.00631773
-5.43572e-05
0.00632953
-5.91487e-05
0.00634229
-6.39595e-05
0.00635602
-6.87902e-05
0.00637072
-7.36405e-05
0.0063864
-7.851e-05
0.00640307
-8.33974e-05
0.00642071
-8.83008e-05
0.00643935
-9.32176e-05
0.00645898
-9.81446e-05
0.0064796
-0.000103078
0.00650123
-0.000108013
0.00652384
-0.000112943
0.00654746
-0.000117864
0.00657207
-0.000122768
0.00659767
-0.000127648
0.00662425
-0.000132496
0.00665182
-0.000137305
0.00668035
-0.000142065
0.00670984
-0.000146769
0.00674028
-0.000151409
0.00677166
-0.000155979
0.00680396
-0.000160476
0.00683717
-0.000164907
0.00687128
-0.000169287
0.00690628
-0.000173644
0.00694218
-0.000178018
0.00697899
-0.000182459
0.00701673
-0.000187018
0.00705544
-0.000191736
0.00709515
-0.000196638
0.00713589
-0.000201715
0.00717768
-0.000206924
0.00722054
-0.000212179
0.00726443
-0.000217357
0.00730933
-0.000222307
0.00735514
-0.000226855
0.00740174
-0.000230827
0.00744899
-0.000234057
0.0074967
-0.000236398
0.00754468
-0.000237738
0.00759271
-0.000237998
0.00764056
-0.000237138
0.00768801
-0.000235151
0.00773484
-0.000232066
0.00778083
-0.000227931
0.00782579
-0.000222815
0.00786954
-0.000216798
0.00791191
-0.000209965
0.00795276
-0.000202402
0.00799195
-0.000194189
0.00802937
-0.000185404
0.00806492
-0.000176116
0.0080985
-0.000166388
0.00813004
-0.000156275
0.00815946
-0.000145826
0.00818671
-0.000135086
0.00821174
-0.000124095
0.0082345
-0.000112888
0.00825496
-0.0001015
0.00827307
-8.99642e-05
0.00828882
-7.83114e-05
0.00830219
-6.6573e-05
0.00831317
-5.47803e-05
0.00832175
-4.29642e-05
0.00832793
-3.11564e-05
0.00833172
-1.93884e-05
0.00833313
-7.69202e-06
0.00833218
3.89959e-06
0.00832891
1.53551e-05
0.00832334
2.66422e-05
0.00831552
3.77291e-05
0.00830549
4.85843e-05
0.00829331
5.91772e-05
0.00827903
6.94781e-05
0.00826273
7.94584e-05
0.00824447
8.90909e-05
0.00822433
9.835e-05
0.00820239
0.000107212
0.00817874
0.000115655
0.00815347
0.00012366
0.00812667
0.000131208
0.00809844
0.000138286
0.00806888
0.000144882
0.0080381
0.000150984
0.00800618
0.000156588
0.00797325
0.000161687
0.00793939
0.000166281
0.00790473
0.00017037
0.00786935
0.000173959
0.00783336
0.000177052
0.00779686
0.000179658
0.00775995
0.000181787
0.00772273
0.000183451
0.00768528
0.000184665
0.00764769
0.000185445
0.00761006
0.000185806
0.00757245
0.000185768
0.00753495
0.000185351
0.00749763
0.000184573
0.00746056
0.000183456
0.0074238
0.000182022
0.00738741
0.000180292
0.00735145
0.000178288
0.00731597
0.00017603
0.00728101
0.000173542
0.00724661
0.000170844
0.00721282
0.000167957
0.00717966
0.000164902
0.00714716
0.000161697
0.00711535
0.000158362
0.00708425
0.000154915
0.00705388
0.000151374
0.00702425
0.000147755
0.00699538
0.000144074
0.00696727
0.000140345
0.00693992
0.000136583
0.00691335
0.0001328
0.00688755
0.000129009
0.00686252
0.000125221
0.00683825
0.000121445
0.00681475
0.000117692
0.006792
0.00011397
0.00676999
0.000110286
0.00674872
0.000106648
0.00672818
0.000103062
0.00670835
9.95339e-05
0.00668921
9.60678e-05
0.00667076
9.26683e-05
0.00665298
8.9339e-05
0.00663585
8.6083e-05
0.00661936
8.29029e-05
0.0066035
7.98009e-05
0.00658824
7.67784e-05
0.00657357
7.38368e-05
0.00655947
7.0977e-05
0.00654593
6.81993e-05
0.00653292
6.55041e-05
0.00652044
6.28912e-05
0.00650847
6.03603e-05
0.00649698
5.79108e-05
0.00648597
5.55419e-05
0.00647541
5.32527e-05
0.0064653
5.1042e-05
0.0064556
4.89085e-05
0.00644632
4.68509e-05
0.00643744
4.48676e-05
0.00642893
4.2957e-05
0.00642079
4.11176e-05
0.006413
3.93476e-05
0.00640555
3.76451e-05
0.00639843
3.60084e-05
0.00639161
3.44358e-05
0.0063851
3.29252e-05
0.00637888
3.14749e-05
0.00637293
3.00829e-05
0.00636724
2.87476e-05
0.00636181
2.74669e-05
0.00635663
2.62391e-05
0.00635167
2.50624e-05
0.00634694
2.3935e-05
0.00634243
2.28551e-05
0.00633812
2.1821e-05
0.006334
2.08312e-05
0.00633007
1.98838e-05
0.00632633
1.89773e-05
0.00632275
1.81102e-05
0.00631934
1.72809e-05
0.00631608
1.64879e-05
0.00631298
1.57298e-05
0.00631001
1.50052e-05
0.00630719
1.43128e-05
0.00630449
1.36511e-05
0.00630192
1.30191e-05
0.00629947
1.24154e-05
0.00629714
1.18389e-05
0.00629491
1.12884e-05
0.00629278
1.07627e-05
0.00629076
1.0261e-05
0.00628883
9.78208e-06
0.00628699
9.32501e-06
0.00628524
8.88885e-06
0.00628356
8.47268e-06
0.00628197
8.07563e-06
0.00628045
7.69686e-06
0.00627901
7.33556e-06
0.00627763
6.99097e-06
0.00627631
6.66233e-06
0.00627506
6.34894e-06
0.00627387
6.05011e-06
0.00627273
5.76519e-06
0.00627165
5.49356e-06
0.00627062
5.23461e-06
0.00626963
4.98778e-06
0.00626869
4.7525e-06
0.0062678
4.52826e-06
0.00626695
4.31456e-06
0.00626614
4.1109e-06
0.00626537
3.91684e-06
0.00626463
3.73193e-06
0.00626393
3.55576e-06
0.00626326
3.38792e-06
0.00626263
3.22802e-06
0.00626202
3.07571e-06
0.00626144
2.93064e-06
0.00626089
2.79246e-06
0.00626037
2.66087e-06
0.00625987
2.53555e-06
0.00625939
2.41622e-06
0.00625894
2.3026e-06
0.0062585
2.19443e-06
0.00625809
2.09145e-06
0.0062577
1.99343e-06
0.00625732
1.90014e-06
0.00625697
1.81136e-06
0.00625663
1.72687e-06
0.0062563
1.64649e-06
0.00625599
1.57003e-06
0.0062557
1.4973e-06
0.00625542
1.42813e-06
0.00625515
1.36236e-06
0.00625489
1.29984e-06
0.00625465
1.24042e-06
0.00625441
1.18396e-06
0.00625419
1.13032e-06
0.00625398
1.07938e-06