/*--------------------------------*- C++ -*----------------------------------*\
| =========                 |                                                 |
| \\      /  F ield         | OpenFOAM: The Open Source CFD Toolbox           |
|  \\    /   O peration     | Version:  2306                                  |
|   \\  /    A nd           | Website:  www.openfoam.com                      |
|    \\/     M anipulation  |                                                 |
\*---------------------------------------------------------------------------*/
FoamFile
{
    version     2.0;
    format      ascii;
    arch        "LSB;label=32;scalar=64";
    class       volScalarField;
    location    "1.5";
    object      T;
}
// * * * * * * * * * * * * * * * * * * * * * * * * * * * * * * * * * * * * * //

dimensions      [0 0 0 1 0 0 0];

internalField   nonuniform List<scalar> 
32768
(
299.995
299.991
299.985
299.977
299.965
299.949
299.926
299.895
299.853
299.798
299.725
299.631
299.509
299.354
299.157
298.911
298.606
298.23
297.77
297.213
296.542
295.742
294.794
293.68
292.378
290.868
289.13
287.141
284.882
282.333
279.474
276.289
272.762
268.883
264.64
260.029
255.047
249.696
243.983
237.917
231.512
224.789
217.768
210.477
202.944
195.202
187.285
179.229
171.07
162.848
154.598
146.36
138.169
130.061
122.07
114.228
106.565
99.1085
91.884
84.9136
78.2166
71.8093
65.7052
59.9145
54.4444
49.2994
44.4807
39.9873
35.8152
31.9584
28.4088
25.1562
22.1892
19.4947
17.0587
14.8665
12.9028
11.1517
9.59763
8.22484
7.01793
5.96193
5.04241
4.24563
3.55859
2.96909
2.46581
2.0383
1.67698
1.37317
1.11902
0.907512
0.73241
0.588205
0.470071
0.373805
0.295778
0.23287
0.182424
0.142188
0.110269
0.0850836
0.0653191
0.0498923
0.0379163
0.0286694
0.0215683
0.0161442
0.0120235
0.00890963
0.00656922
0.00481948
0.00351826
0.00255569
0.00184735
0.00132882
0.000951197
0.000677603
0.000480391
0.000338957
0.000238034
0.000166377
0.000115752
8.01592e-05
5.52574e-05
3.79189e-05
2.5904e-05
1.76174e-05
1.19288e-05
8.04179e-06
5.39791e-06
3.60773e-06
2.40102e-06
1.59122e-06
1.05016e-06
6.90219e-07
4.51798e-07
2.94541e-07
1.91253e-07
1.23694e-07
7.96869e-08
5.11371e-08
3.26901e-08
2.08181e-08
1.32078e-08
8.34828e-09
5.25725e-09
3.29861e-09
2.06219e-09
1.2846e-09
7.97375e-10
4.93205e-10
3.04003e-10
1.86735e-10
1.14311e-10
6.97391e-11
4.24038e-11
2.56972e-11
1.55214e-11
9.34453e-12
5.60755e-12
3.35422e-12
1.99998e-12
1.18874e-12
7.04343e-13
4.16037e-13
2.44985e-13
1.4382e-13
8.41745e-14
4.91173e-14
2.85753e-14
1.65752e-14
9.58628e-15
5.52807e-15
3.17862e-15
1.82245e-15
1.04191e-15
5.93976e-16
3.37648e-16
1.91364e-16
1.08068e-16
6.06596e-17
3.34976e-17
1.74064e-17
6.63115e-18
-3.26581e-18
-1.73797e-17
-4.42708e-17
-1.01216e-16
-2.25105e-16
-4.95678e-16
-1.08534e-15
-2.36565e-15
-5.13438e-15
-1.10974e-14
-2.38877e-14
-5.12115e-14
-1.0935e-13
-2.32566e-13
-4.92691e-13
-1.03973e-12
-2.18581e-12
-4.57795e-12
-9.55262e-12
-1.98606e-11
-4.11442e-11
-8.49377e-11
-1.74742e-10
-3.58286e-10
-7.32199e-10
-1.49152e-09
-3.02876e-09
-6.13154e-09
-1.2376e-08
-2.49076e-08
-4.99877e-08
-1.00049e-07
-1.99717e-07
-3.97661e-07
-7.89848e-07
-1.56511e-06
-3.09428e-06
-6.10413e-06
-1.20164e-05
-2.36078e-05
-4.62913e-05
-9.06037e-05
-0.000177024
-0.000345295
-0.000672446
-0.00130758
-0.00253893
-0.00492312
-0.00953381
-0.0184398
-0.0356237
-0.0687449
-0.132521
-0.255208
-0.491015
-0.943853
-1.81278
-3.47882
-6.67094
-12.7827
-24.477
-46.8389
-89.5736
-171.196
-327.006
-624.283
-1191.18
-2271.74
-4330.42
-8250.9
-15713.8
299.995
299.991
299.985
299.977
299.965
299.949
299.926
299.895
299.853
299.798
299.725
299.631
299.509
299.354
299.157
298.911
298.606
298.229
297.77
297.212
296.542
295.742
294.794
293.679
292.377
290.867
289.128
287.139
284.88
282.33
279.471
276.286
272.759
268.879
264.636
260.025
255.043
249.692
243.978
237.912
231.508
224.784
217.764
210.473
202.94
195.199
187.282
179.226
171.069
162.846
154.598
146.36
138.17
130.062
122.072
114.231
106.569
99.1135
91.8898
84.9201
78.2237
71.817
65.7134
59.9231
54.4534
49.3085
44.49
39.9966
35.8245
31.9676
28.4178
25.1649
22.1975
19.5027
17.0663
14.8736
12.9093
11.1578
9.60321
8.22991
7.02251
5.96603
5.04606
4.24885
3.5614
2.97154
2.46792
2.04011
1.67852
1.37447
1.1201
0.908415
0.733155
0.588816
0.470568
0.374207
0.2961
0.233126
0.182626
0.142347
0.110393
0.0851794
0.0653927
0.0499485
0.0379589
0.0287014
0.0215921
0.0161619
0.0120365
0.00891919
0.00657617
0.0048245
0.00352186
0.00255825
0.00184917
0.0013301
0.000952088
0.000678221
0.000480817
0.000339249
0.000238233
0.000166512
0.000115842
8.02195e-05
5.52974e-05
3.79453e-05
2.59213e-05
1.76286e-05
1.19361e-05
8.04647e-06
5.4009e-06
3.60963e-06
2.40222e-06
1.59197e-06
1.05062e-06
6.90507e-07
4.51975e-07
2.94649e-07
1.91318e-07
1.23733e-07
7.971e-08
5.11508e-08
3.2698e-08
2.08227e-08
1.32104e-08
8.34974e-09
5.25806e-09
3.29905e-09
2.06242e-09
1.28472e-09
7.97433e-10
4.93232e-10
3.04013e-10
1.86738e-10
1.14311e-10
6.97379e-11
4.24023e-11
2.56959e-11
1.55204e-11
9.34375e-12
5.607e-12
3.35385e-12
1.99973e-12
1.18857e-12
7.04235e-13
4.15968e-13
2.44941e-13
1.43792e-13
8.41573e-14
4.91066e-14
2.85687e-14
1.65712e-14
9.58387e-15
5.52662e-15
3.17775e-15
1.82193e-15
1.0416e-15
5.93795e-16
3.37543e-16
1.91302e-16
1.08032e-16
6.06387e-17
3.34855e-17
1.73995e-17
6.62703e-18
-3.26839e-18
-1.73816e-17
-4.42728e-17
-1.01219e-16
-2.2511e-16
-4.95688e-16
-1.08535e-15
-2.36568e-15
-5.13445e-15
-1.10975e-14
-2.3888e-14
-5.12119e-14
-1.09351e-13
-2.32568e-13
-4.92693e-13
-1.03974e-12
-2.18582e-12
-4.57796e-12
-9.55263e-12
-1.98606e-11
-4.11443e-11
-8.49377e-11
-1.74742e-10
-3.58285e-10
-7.32198e-10
-1.49152e-09
-3.02875e-09
-6.13153e-09
-1.2376e-08
-2.49076e-08
-4.99876e-08
-1.00048e-07
-1.99717e-07
-3.9766e-07
-7.89845e-07
-1.56511e-06
-3.09427e-06
-6.1041e-06
-1.20164e-05
-2.36077e-05
-4.62911e-05
-9.06033e-05
-0.000177023
-0.000345293
-0.000672442
-0.00130757
-0.00253891
-0.00492309
-0.00953374
-0.0184397
-0.0356235
-0.0687443
-0.13252
-0.255206
-0.491011
-0.943845
-1.81276
-3.47879
-6.67087
-12.7826
-24.4768
-46.8384
-89.5727
-171.194
-327.003
-624.277
-1191.17
-2271.72
-4330.38
-8250.83
-15713.6
299.995
299.991
299.985
299.977
299.965
299.949
299.926
299.895
299.853
299.798
299.725
299.631
299.509
299.353
299.157
298.911
298.605
298.229
297.769
297.212
296.541
295.741
294.792
293.677
292.375
290.864
289.125
287.136
284.877
282.326
279.467
276.281
272.754
268.873
264.63
260.018
255.036
249.685
243.971
237.905
231.501
224.777
217.758
210.467
202.935
195.195
187.279
179.224
171.068
162.847
154.6
146.363
138.175
130.069
122.08
114.241
106.58
99.1265
91.9042
84.9358
78.2406
71.835
65.7322
59.9426
54.4735
49.329
44.5107
40.0172
35.8449
31.9876
28.4373
25.1838
22.2156
19.5198
17.0824
14.8887
12.9234
11.1708
9.61506
8.24068
7.03221
5.97471
5.05377
4.25564
3.56735
2.97671
2.47238
2.04393
1.68177
1.37721
1.1224
0.910327
0.734735
0.590111
0.471622
0.375059
0.296784
0.233672
0.183058
0.142686
0.110657
0.0853846
0.0655506
0.0500692
0.0380505
0.0287705
0.0216439
0.0162004
0.012065
0.00894007
0.00659139
0.00483553
0.0035298
0.00256393
0.0018532
0.00133295
0.000954091
0.000679619
0.000481787
0.000339917
0.000238691
0.000166824
0.000116053
8.0362e-05
5.53929e-05
3.80089e-05
2.59634e-05
1.76564e-05
1.19543e-05
8.05833e-06
5.40859e-06
3.61459e-06
2.4054e-06
1.594e-06
1.05191e-06
6.91322e-07
4.52487e-07
2.94969e-07
1.91518e-07
1.23857e-07
7.97862e-08
5.11975e-08
3.27266e-08
2.084e-08
1.32209e-08
8.35606e-09
5.26184e-09
3.3013e-09
2.06376e-09
1.28551e-09
7.97897e-10
4.93503e-10
3.04171e-10
1.8683e-10
1.14364e-10
6.9768e-11
4.24195e-11
2.57056e-11
1.55259e-11
9.34683e-12
5.60871e-12
3.35479e-12
2.00025e-12
1.18885e-12
7.04388e-13
4.1605e-13
2.44985e-13
1.43815e-13
8.41692e-14
4.91127e-14
2.85718e-14
1.65727e-14
9.58459e-15
5.52695e-15
3.17789e-15
1.82198e-15
1.04162e-15
5.93797e-16
3.37539e-16
1.91298e-16
1.08028e-16
6.06357e-17
3.34833e-17
1.73977e-17
6.6253e-18
-3.27076e-18
-1.73857e-17
-4.4281e-17
-1.01236e-16
-2.25144e-16
-4.9576e-16
-1.0855e-15
-2.36599e-15
-5.13506e-15
-1.10988e-14
-2.38905e-14
-5.1217e-14
-1.09361e-13
-2.32588e-13
-4.92734e-13
-1.03982e-12
-2.18598e-12
-4.57828e-12
-9.55327e-12
-1.98619e-11
-4.11467e-11
-8.49424e-11
-1.74751e-10
-3.58303e-10
-7.32232e-10
-1.49158e-09
-3.02888e-09
-6.13177e-09
-1.23764e-08
-2.49084e-08
-4.99892e-08
-1.00051e-07
-1.99722e-07
-3.9767e-07
-7.89864e-07
-1.56514e-06
-3.09433e-06
-6.10422e-06
-1.20166e-05
-2.36081e-05
-4.62918e-05
-9.06045e-05
-0.000177025
-0.000345296
-0.000672448
-0.00130758
-0.00253893
-0.00492312
-0.00953378
-0.0184398
-0.0356235
-0.0687444
-0.13252
-0.255206
-0.49101
-0.943842
-1.81275
-3.47878
-6.67084
-12.7825
-24.4766
-46.8381
-89.5721
-171.193
-327
-624.271
-1191.16
-2271.7
-4330.35
-8250.77
-15713.5
299.995
299.991
299.985
299.977
299.965
299.949
299.926
299.895
299.853
299.798
299.725
299.63
299.509
299.353
299.157
298.911
298.605
298.228
297.768
297.211
296.54
295.739
294.791
293.675
292.372
290.861
289.122
287.132
284.872
282.321
279.461
276.274
272.746
268.865
264.622
260.009
255.027
249.675
243.961
237.895
231.491
224.769
217.749
210.46
202.929
195.19
187.276
179.223
171.068
162.849
154.604
146.37
138.184
130.08
122.094
114.257
106.599
99.1471
91.9269
84.9604
78.2669
71.8628
65.7614
59.9729
54.5045
49.3605
44.5423
40.0488
35.8762
32.0183
28.4671
25.2126
22.2432
19.546
17.1071
14.9118
12.9449
11.1905
9.63315
8.2571
7.04702
5.98796
5.06553
4.26602
3.57643
2.9846
2.47919
2.04976
1.68673
1.38139
1.12591
0.913248
0.737148
0.592091
0.473235
0.376363
0.297831
0.234507
0.183719
0.143206
0.111063
0.0856992
0.0657928
0.0502543
0.0381911
0.0288766
0.0217234
0.0162596
0.0121087
0.00897222
0.00661486
0.00485255
0.00354206
0.00257271
0.00185945
0.00133737
0.000957197
0.000681789
0.000483294
0.000340958
0.000239406
0.000167312
0.000116384
8.05854e-05
5.55428e-05
3.8109e-05
2.60299e-05
1.77003e-05
1.19831e-05
8.07717e-06
5.42084e-06
3.62251e-06
2.4105e-06
1.59727e-06
1.054e-06
6.92644e-07
4.53322e-07
2.95494e-07
1.91846e-07
1.24061e-07
7.9913e-08
5.12758e-08
3.27747e-08
2.08695e-08
1.32388e-08
8.36694e-09
5.26842e-09
3.30526e-09
2.06613e-09
1.28692e-09
7.98737e-10
4.94e-10
3.04465e-10
1.87002e-10
1.14464e-10
6.98267e-11
4.24535e-11
2.57253e-11
1.55372e-11
9.35333e-12
5.61243e-12
3.35691e-12
2.00145e-12
1.18953e-12
7.0477e-13
4.16264e-13
2.45104e-13
1.43882e-13
8.42059e-14
4.9133e-14
2.85829e-14
1.65788e-14
9.5879e-15
5.52875e-15
3.17886e-15
1.82251e-15
1.0419e-15
5.93945e-16
3.37617e-16
1.91339e-16
1.0805e-16
6.06468e-17
3.34887e-17
1.73999e-17
6.62509e-18
-3.27366e-18
-1.73931e-17
-4.42971e-17
-1.0127e-16
-2.25216e-16
-4.95909e-16
-1.08581e-15
-2.36662e-15
-5.13637e-15
-1.11015e-14
-2.3896e-14
-5.12282e-14
-1.09383e-13
-2.32634e-13
-4.92825e-13
-1.04e-12
-2.18634e-12
-4.579e-12
-9.55468e-12
-1.98647e-11
-4.11522e-11
-8.49531e-11
-1.74772e-10
-3.58343e-10
-7.3231e-10
-1.49174e-09
-3.02917e-09
-6.13232e-09
-1.23775e-08
-2.49104e-08
-4.9993e-08
-1.00059e-07
-1.99736e-07
-3.97695e-07
-7.89912e-07
-1.56523e-06
-3.0945e-06
-6.10452e-06
-1.20172e-05
-2.36091e-05
-4.62937e-05
-9.06079e-05
-0.000177031
-0.000345307
-0.000672467
-0.00130761
-0.00253899
-0.00492323
-0.00953397
-0.0184401
-0.0356241
-0.0687454
-0.132521
-0.255209
-0.491014
-0.943849
-1.81276
-3.47879
-6.67085
-12.7825
-24.4766
-46.838
-89.5718
-171.192
-326.999
-624.268
-1191.16
-2271.69
-4330.32
-8250.71
-15713.4
299.995
299.991
299.985
299.977
299.965
299.949
299.926
299.895
299.853
299.798
299.725
299.63
299.508
299.353
299.156
298.91
298.604
298.228
297.767
297.209
296.538
295.737
294.788
293.672
292.369
290.857
289.117
287.127
284.866
282.314
279.453
276.265
272.737
268.855
264.61
259.998
255.014
249.663
243.949
237.883
231.479
224.757
217.739
210.45
202.921
195.184
187.271
179.221
171.068
162.852
154.61
146.379
138.196
130.096
122.112
114.278
106.623
99.1745
91.9571
84.9932
78.3021
71.9
65.8004
60.0132
54.5458
49.4025
44.5847
40.0911
35.918
32.0593
28.507
25.2511
22.2801
19.5811
17.1402
14.9428
12.9736
11.2171
9.65743
8.27916
7.0669
6.00575
5.08135
4.27997
3.58865
2.99522
2.48836
2.05761
1.6934
1.38703
1.13064
0.917182
0.740399
0.594759
0.475408
0.378121
0.299243
0.235633
0.184611
0.143907
0.111611
0.0861237
0.0661198
0.0505044
0.0383811
0.02902
0.0218308
0.0163396
0.0121679
0.0090157
0.0066466
0.00487557
0.00355866
0.0025846
0.00186792
0.00134336
0.000961408
0.000684732
0.00048534
0.000342371
0.000240376
0.000167975
0.000116835
8.08894e-05
5.5747e-05
3.82454e-05
2.61205e-05
1.77602e-05
1.20225e-05
8.10295e-06
5.43762e-06
3.63338e-06
2.41751e-06
1.60177e-06
1.05687e-06
6.94468e-07
4.54476e-07
2.96221e-07
1.92302e-07
1.24346e-07
8.00897e-08
5.13851e-08
3.2842e-08
2.09108e-08
1.32641e-08
8.3823e-09
5.27773e-09
3.31088e-09
2.06951e-09
1.28895e-09
7.99946e-10
4.94719e-10
3.0489e-10
1.87253e-10
1.14612e-10
6.99132e-11
4.25041e-11
2.57547e-11
1.55543e-11
9.36318e-12
5.6181e-12
3.36016e-12
2.00331e-12
1.19059e-12
7.05372e-13
4.16605e-13
2.45297e-13
1.4399e-13
8.42667e-14
4.9167e-14
2.86019e-14
1.65893e-14
9.59373e-15
5.53197e-15
3.18064e-15
1.82348e-15
1.04243e-15
5.94235e-16
3.37775e-16
1.91424e-16
1.08096e-16
6.06714e-17
3.35015e-17
1.74058e-17
6.62626e-18
-3.27724e-18
-1.74039e-17
-4.43217e-17
-1.01323e-16
-2.25327e-16
-4.9614e-16
-1.08629e-15
-2.36762e-15
-5.13842e-15
-1.11057e-14
-2.39045e-14
-5.12456e-14
-1.09419e-13
-2.32705e-13
-4.92968e-13
-1.04029e-12
-2.18692e-12
-4.58014e-12
-9.55694e-12
-1.98691e-11
-4.11609e-11
-8.49702e-11
-1.74805e-10
-3.58408e-10
-7.32436e-10
-1.49198e-09
-3.02964e-09
-6.13322e-09
-1.23792e-08
-2.49137e-08
-4.99992e-08
-1.0007e-07
-1.99758e-07
-3.97737e-07
-7.89989e-07
-1.56538e-06
-3.09477e-06
-6.10502e-06
-1.20181e-05
-2.36108e-05
-4.62968e-05
-9.06136e-05
-0.000177041
-0.000345326
-0.000672502
-0.00130767
-0.0025391
-0.00492342
-0.00953433
-0.0184407
-0.0356252
-0.0687473
-0.132525
-0.255214
-0.491024
-0.943865
-1.81279
-3.47883
-6.67092
-12.7827
-24.4768
-46.8382
-89.5721
-171.192
-326.999
-624.267
-1191.15
-2271.68
-4330.3
-8250.66
-15713.3
299.995
299.991
299.985
299.977
299.965
299.948
299.926
299.895
299.853
299.798
299.725
299.63
299.508
299.353
299.156
298.91
298.604
298.227
297.766
297.208
296.536
295.735
294.786
293.669
292.365
290.853
289.111
287.12
284.858
282.305
279.443
276.254
272.725
268.842
264.596
259.983
254.999
249.647
243.933
237.867
231.464
224.742
217.725
210.438
202.911
195.175
187.265
179.217
171.068
162.855
154.616
146.389
138.209
130.113
122.134
114.304
106.653
99.2077
91.9938
85.0332
78.3451
71.9457
65.8482
60.0629
54.5969
49.4545
44.6371
40.1435
35.9699
32.1103
28.5567
25.2991
22.3261
19.6249
17.1816
14.9815
13.0096
11.2502
9.68782
8.30678
7.09182
6.02807
5.10118
4.29747
3.60398
3.00856
2.49987
2.06748
1.7018
1.39413
1.13659
0.922135
0.744494
0.598119
0.478146
0.380337
0.301023
0.237052
0.185735
0.144791
0.112301
0.0866592
0.0665322
0.0508199
0.0386208
0.0292008
0.0219664
0.0164405
0.0122426
0.00907055
0.00668665
0.00490462
0.0035796
0.0025996
0.0018786
0.00135091
0.000966722
0.000688448
0.000487921
0.000344155
0.000241601
0.000168812
0.000117403
8.12734e-05
5.6005e-05
3.84178e-05
2.62351e-05
1.7836e-05
1.20724e-05
8.13558e-06
5.45887e-06
3.64716e-06
2.42639e-06
1.60747e-06
1.06051e-06
6.96785e-07
4.55943e-07
2.97145e-07
1.92881e-07
1.24708e-07
8.0315e-08
5.15246e-08
3.29281e-08
2.09637e-08
1.32964e-08
8.40201e-09
5.28969e-09
3.31811e-09
2.07387e-09
1.29156e-09
8.01509e-10
4.9565e-10
3.05443e-10
1.8758e-10
1.14805e-10
7.00264e-11
4.25703e-11
2.57933e-11
1.55767e-11
9.3762e-12
5.62562e-12
3.36449e-12
2.00579e-12
1.19202e-12
7.06184e-13
4.17067e-13
2.45559e-13
1.44138e-13
8.43502e-14
4.92139e-14
2.86281e-14
1.6604e-14
9.60192e-15
5.53651e-15
3.18316e-15
1.82487e-15
1.0432e-15
5.94657e-16
3.38006e-16
1.91551e-16
1.08165e-16
6.07085e-17
3.35211e-17
1.74151e-17
6.62865e-18
-3.28161e-18
-1.74183e-17
-4.43548e-17
-1.01394e-16
-2.25476e-16
-4.96453e-16
-1.08694e-15
-2.36896e-15
-5.1412e-15
-1.11114e-14
-2.39162e-14
-5.12693e-14
-1.09467e-13
-2.32802e-13
-4.93164e-13
-1.04068e-12
-2.1877e-12
-4.5817e-12
-9.56002e-12
-1.98752e-11
-4.11729e-11
-8.49937e-11
-1.74851e-10
-3.58497e-10
-7.32609e-10
-1.49231e-09
-3.03028e-09
-6.13445e-09
-1.23815e-08
-2.49182e-08
-5.00077e-08
-1.00087e-07
-1.99788e-07
-3.97794e-07
-7.90097e-07
-1.56558e-06
-3.09514e-06
-6.10572e-06
-1.20194e-05
-2.36132e-05
-4.63012e-05
-9.06217e-05
-0.000177056
-0.000345353
-0.000672551
-0.00130776
-0.00253926
-0.00492371
-0.00953484
-0.0184416
-0.0356268
-0.0687501
-0.13253
-0.255223
-0.491039
-0.943891
-1.81283
-3.47891
-6.67104
-12.7829
-24.4771
-46.8387
-89.5728
-171.193
-327
-624.268
-1191.15
-2271.67
-4330.28
-8250.62
-15713.2
299.995
299.991
299.985
299.977
299.965
299.948
299.926
299.895
299.853
299.798
299.725
299.63
299.508
299.352
299.156
298.909
298.603
298.226
297.765
297.206
296.534
295.732
294.782
293.665
292.36
290.847
289.104
287.112
284.849
282.295
279.431
276.241
272.71
268.826
264.579
259.964
254.98
249.627
243.912
237.846
231.444
224.723
217.707
210.421
202.896
195.163
187.256
179.211
171.065
162.856
154.622
146.399
138.224
130.132
122.158
114.332
106.686
99.2453
92.0358
85.0792
78.3948
71.9987
65.904
60.121
54.6568
49.5156
44.6989
40.2053
36.0313
32.1707
28.6157
25.3562
22.3809
19.677
17.2308
15.0278
13.0526
11.29
9.72422
8.33989
7.12172
6.05486
5.12502
4.31852
3.62243
3.02461
2.51374
2.07937
1.71192
1.40268
1.14376
0.928113
0.749436
0.602176
0.481453
0.383013
0.303173
0.238767
0.187094
0.14586
0.113136
0.0873065
0.0670307
0.0512012
0.0389105
0.0294194
0.0221302
0.0165625
0.0123328
0.00913684
0.00673505
0.00493973
0.0036049
0.00261772
0.00189149
0.00136004
0.000973139
0.000692933
0.000491038
0.000346308
0.00024308
0.000169822
0.000118089
8.17368e-05
5.63163e-05
3.86258e-05
2.63734e-05
1.79274e-05
1.21325e-05
8.17495e-06
5.48451e-06
3.66378e-06
2.43711e-06
1.61435e-06
1.06491e-06
6.99581e-07
4.57713e-07
2.98261e-07
1.93582e-07
1.25146e-07
8.05872e-08
5.16933e-08
3.30322e-08
2.10276e-08
1.33356e-08
8.42589e-09
5.30419e-09
3.32689e-09
2.07916e-09
1.29474e-09
8.03409e-10
4.96783e-10
3.06116e-10
1.87979e-10
1.1504e-10
7.01646e-11
4.26513e-11
2.58406e-11
1.56043e-11
9.39219e-12
5.63487e-12
3.36983e-12
2.00886e-12
1.19377e-12
7.07189e-13
4.17639e-13
2.45884e-13
1.44323e-13
8.44544e-14
4.92726e-14
2.86611e-14
1.66225e-14
9.61225e-15
5.54227e-15
3.18636e-15
1.82664e-15
1.04418e-15
5.95198e-16
3.38304e-16
1.91714e-16
1.08254e-16
6.07569e-17
3.35467e-17
1.74275e-17
6.63203e-18
-3.28688e-18
-1.74362e-17
-4.43962e-17
-1.01483e-16
-2.25665e-16
-4.96847e-16
-1.08776e-15
-2.37066e-15
-5.1447e-15
-1.11186e-14
-2.39309e-14
-5.12993e-14
-1.09528e-13
-2.32925e-13
-4.93411e-13
-1.04118e-12
-2.18869e-12
-4.58367e-12
-9.56392e-12
-1.98829e-11
-4.1188e-11
-8.50234e-11
-1.74909e-10
-3.5861e-10
-7.32828e-10
-1.49274e-09
-3.03109e-09
-6.13601e-09
-1.23845e-08
-2.49239e-08
-5.00186e-08
-1.00107e-07
-1.99827e-07
-3.97867e-07
-7.90234e-07
-1.56584e-06
-3.09562e-06
-6.10661e-06
-1.2021e-05
-2.36162e-05
-4.63068e-05
-9.0632e-05
-0.000177075
-0.000345388
-0.000672614
-0.00130788
-0.00253947
-0.00492408
-0.00953551
-0.0184428
-0.035629
-0.0687539
-0.132536
-0.255235
-0.491059
-0.943926
-1.81289
-3.47901
-6.67122
-12.7831
-24.4776
-46.8395
-89.574
-171.195
-327.002
-624.271
-1191.16
-2271.67
-4330.27
-8250.58
-15713.1
299.995
299.991
299.985
299.977
299.965
299.948
299.926
299.895
299.853
299.797
299.725
299.63
299.508
299.352
299.155
298.908
298.602
298.224
297.763
297.204
296.532
295.729
294.778
293.66
292.354
290.84
289.096
287.102
284.837
282.282
279.416
276.225
272.692
268.806
264.558
259.942
254.956
249.602
243.887
237.821
231.418
224.698
217.683
210.399
202.876
195.145
187.242
179.2
171.059
162.854
154.624
146.406
138.237
130.151
122.182
114.362
106.721
99.2857
92.0813
85.1296
78.4497
72.0576
65.9664
60.1863
54.7244
49.5848
44.769
40.2758
36.1014
32.2399
28.6833
25.4218
22.444
19.7372
17.2878
15.0812
13.1025
11.336
9.7665
8.37839
7.15651
6.08607
5.15281
4.34308
3.64398
3.04337
2.52995
2.09328
1.72377
1.4127
1.15217
0.93512
0.755233
0.606937
0.485334
0.386154
0.305697
0.240781
0.188689
0.147115
0.114116
0.0880667
0.0676162
0.0516491
0.0392507
0.0296761
0.0223226
0.0167057
0.0124387
0.00921464
0.00679183
0.0049809
0.00363457
0.00263897
0.00190661
0.00137073
0.000980657
0.000698186
0.000494688
0.000348829
0.000244811
0.000171003
0.000118892
8.22787e-05
5.66802e-05
3.88689e-05
2.65349e-05
1.80342e-05
1.22027e-05
8.22091e-06
5.51444e-06
3.68317e-06
2.44962e-06
1.62237e-06
1.07003e-06
7.02841e-07
4.59777e-07
2.99562e-07
1.94398e-07
1.25656e-07
8.09045e-08
5.18899e-08
3.31535e-08
2.11022e-08
1.33812e-08
8.45371e-09
5.32109e-09
3.33711e-09
2.08532e-09
1.29844e-09
8.05625e-10
4.98104e-10
3.06901e-10
1.88444e-10
1.15314e-10
7.0326e-11
4.27459e-11
2.58959e-11
1.56365e-11
9.41089e-12
5.6457e-12
3.37608e-12
2.01246e-12
1.19584e-12
7.08369e-13
4.18312e-13
2.46267e-13
1.44539e-13
8.4577e-14
4.93417e-14
2.87e-14
1.66443e-14
9.62446e-15
5.54908e-15
3.19015e-15
1.82875e-15
1.04534e-15
5.95841e-16
3.38658e-16
1.91909e-16
1.0836e-16
6.08148e-17
3.35774e-17
1.74423e-17
6.63612e-18
-3.29317e-18
-1.74577e-17
-4.4446e-17
-1.0159e-16
-2.25891e-16
-4.97321e-16
-1.08875e-15
-2.37271e-15
-5.14891e-15
-1.11272e-14
-2.39486e-14
-5.13354e-14
-1.09601e-13
-2.33073e-13
-4.93709e-13
-1.04177e-12
-2.18988e-12
-4.58604e-12
-9.56863e-12
-1.98922e-11
-4.12063e-11
-8.50593e-11
-1.74979e-10
-3.58747e-10
-7.33092e-10
-1.49325e-09
-3.03208e-09
-6.13791e-09
-1.23882e-08
-2.49308e-08
-5.00317e-08
-1.00132e-07
-1.99874e-07
-3.97956e-07
-7.90401e-07
-1.56615e-06
-3.0962e-06
-6.10769e-06
-1.2023e-05
-2.362e-05
-4.63137e-05
-9.06446e-05
-0.000177098
-0.00034543
-0.000672691
-0.00130802
-0.00253972
-0.00492454
-0.00953633
-0.0184443
-0.0356316
-0.0687586
-0.132545
-0.255249
-0.491085
-0.943971
-1.81297
-3.47914
-6.67144
-12.7835
-24.4782
-46.8405
-89.5756
-171.197
-327.006
-624.276
-1191.16
-2271.68
-4330.27
-8250.54
-15713
299.995
299.991
299.985
299.977
299.965
299.948
299.926
299.895
299.853
299.797
299.724
299.63
299.507
299.351
299.154
298.907
298.601
298.223
297.761
297.202
296.529
295.725
294.773
293.654
292.347
290.831
289.086
287.091
284.824
282.266
279.399
276.205
272.671
268.783
264.532
259.915
254.927
249.572
243.856
237.789
231.386
224.667
217.653
210.37
202.849
195.121
187.221
179.184
171.046
162.847
154.622
146.41
138.246
130.166
122.204
114.39
106.756
99.3269
92.1286
85.1827
78.508
72.1208
66.0339
60.2574
54.7983
49.6609
44.8465
40.3539
36.1794
32.317
28.7589
25.4953
22.5149
19.805
17.3521
15.1417
13.1589
11.3883
9.81449
8.42215
7.19611
6.12163
5.1845
4.37112
3.66859
3.06482
2.54851
2.10922
1.73736
1.42419
1.16182
0.943164
0.76189
0.612405
0.489794
0.389765
0.308599
0.243097
0.190524
0.148558
0.115243
0.0889411
0.0682897
0.0521642
0.039642
0.0299713
0.0225438
0.0168703
0.0125603
0.009304
0.00685703
0.00502818
0.00366863
0.00266334
0.00192395
0.00138299
0.000989272
0.000704204
0.000498866
0.000351713
0.000246791
0.000172355
0.000119809
8.28977e-05
5.70958e-05
3.91464e-05
2.67192e-05
1.8156e-05
1.22828e-05
8.27327e-06
5.54852e-06
3.70524e-06
2.46385e-06
1.6315e-06
1.07586e-06
7.06547e-07
4.62122e-07
3.01039e-07
1.95325e-07
1.26234e-07
8.12644e-08
5.21128e-08
3.3291e-08
2.11867e-08
1.34329e-08
8.48521e-09
5.34022e-09
3.34868e-09
2.09229e-09
1.30263e-09
8.0813e-10
4.99598e-10
3.07788e-10
1.88969e-10
1.15624e-10
7.05083e-11
4.28528e-11
2.59584e-11
1.56729e-11
9.432e-12
5.65792e-12
3.38313e-12
2.01651e-12
1.19816e-12
7.09699e-13
4.19071e-13
2.46698e-13
1.44784e-13
8.47154e-14
4.94198e-14
2.87439e-14
1.6669e-14
9.63824e-15
5.55677e-15
3.19443e-15
1.83113e-15
1.04666e-15
5.96569e-16
3.39059e-16
1.92129e-16
1.08481e-16
6.08803e-17
3.36122e-17
1.74591e-17
6.64059e-18
-3.30065e-18
-1.74828e-17
-4.45041e-17
-1.01715e-16
-2.26155e-16
-4.97873e-16
-1.0899e-15
-2.37509e-15
-5.15383e-15
-1.11373e-14
-2.39693e-14
-5.13776e-14
-1.09686e-13
-2.33246e-13
-4.94057e-13
-1.04247e-12
-2.19128e-12
-4.58882e-12
-9.57414e-12
-1.99031e-11
-4.12277e-11
-8.51012e-11
-1.75061e-10
-3.58906e-10
-7.33402e-10
-1.49384e-09
-3.03323e-09
-6.14012e-09
-1.23924e-08
-2.49389e-08
-5.00471e-08
-1.00161e-07
-1.99929e-07
-3.9806e-07
-7.90596e-07
-1.56651e-06
-3.09688e-06
-6.10896e-06
-1.20254e-05
-2.36243e-05
-4.63217e-05
-9.06595e-05
-0.000177125
-0.00034548
-0.000672782
-0.00130818
-0.00254002
-0.00492508
-0.00953731
-0.018446
-0.0356347
-0.0687642
-0.132555
-0.255267
-0.491115
-0.944024
-1.81306
-3.4793
-6.67171
-12.784
-24.479
-46.8417
-89.5776
-171.201
-327.011
-624.283
-1191.17
-2271.68
-4330.27
-8250.52
-15712.9
299.995
299.991
299.985
299.977
299.965
299.948
299.926
299.895
299.853
299.797
299.724
299.629
299.507
299.351
299.154
298.907
298.599
298.221
297.759
297.199
296.525
295.721
294.768
293.647
292.339
290.822
289.075
287.077
284.809
282.248
279.379
276.182
272.645
268.754
264.502
259.882
254.892
249.535
243.817
237.75
231.347
224.627
217.614
210.333
202.814
195.089
187.192
179.158
171.026
162.831
154.613
146.406
138.25
130.177
122.221
114.415
106.788
99.3666
92.1754
85.2362
78.5678
72.1863
66.1045
60.3324
54.877
49.7423
44.9299
40.4384
36.2641
32.4012
28.8417
25.576
22.5929
19.8798
17.4231
15.2087
13.2215
11.4464
9.86799
8.471
7.24038
6.16145
5.22003
4.40259
3.69625
3.08895
2.5694
2.12717
1.75267
1.43715
1.17272
0.952251
0.769413
0.618588
0.494838
0.39385
0.311883
0.245718
0.192601
0.150192
0.11652
0.0899311
0.0690521
0.0527472
0.0400847
0.0303052
0.0227939
0.0170564
0.0126979
0.009405
0.0069307
0.00508156
0.00370707
0.00269085
0.00194351
0.00139681
0.000998978
0.00071098
0.000503569
0.000354958
0.000249017
0.000173873
0.000120839
8.35924e-05
5.75619e-05
3.94574e-05
2.69257e-05
1.82923e-05
1.23724e-05
8.33182e-06
5.58661e-06
3.72989e-06
2.47973e-06
1.64168e-06
1.08236e-06
7.10674e-07
4.64732e-07
3.02682e-07
1.96355e-07
1.26877e-07
8.16641e-08
5.23602e-08
3.34434e-08
2.12803e-08
1.34901e-08
8.52008e-09
5.36137e-09
3.36147e-09
2.09999e-09
1.30725e-09
8.10893e-10
5.01244e-10
3.08765e-10
1.89547e-10
1.15965e-10
7.07087e-11
4.29701e-11
2.60269e-11
1.57127e-11
9.45514e-12
5.6713e-12
3.39085e-12
2.02095e-12
1.20071e-12
7.11153e-13
4.19899e-13
2.47169e-13
1.45051e-13
8.48662e-14
4.95048e-14
2.87917e-14
1.66958e-14
9.65322e-15
5.56513e-15
3.19908e-15
1.83371e-15
1.04809e-15
5.97357e-16
3.39493e-16
1.92367e-16
1.08611e-16
6.09512e-17
3.36497e-17
1.74771e-17
6.64505e-18
-3.30952e-18
-1.75115e-17
-4.45704e-17
-1.01858e-16
-2.26456e-16
-4.98503e-16
-1.09121e-15
-2.37781e-15
-5.15944e-15
-1.11489e-14
-2.39929e-14
-5.14256e-14
-1.09784e-13
-2.33443e-13
-4.94455e-13
-1.04327e-12
-2.19287e-12
-4.59199e-12
-9.58042e-12
-1.99155e-11
-4.12521e-11
-8.51491e-11
-1.75155e-10
-3.59088e-10
-7.33755e-10
-1.49453e-09
-3.03455e-09
-6.14265e-09
-1.23972e-08
-2.49481e-08
-5.00646e-08
-1.00194e-07
-1.99992e-07
-3.98178e-07
-7.90818e-07
-1.56693e-06
-3.09766e-06
-6.11041e-06
-1.20281e-05
-2.36293e-05
-4.6331e-05
-9.06764e-05
-0.000177156
-0.000345537
-0.000672886
-0.00130837
-0.00254037
-0.00492571
-0.00953843
-0.0184481
-0.0356383
-0.0687706
-0.132566
-0.255287
-0.491151
-0.944086
-1.81317
-3.47949
-6.67203
-12.7845
-24.4799
-46.8432
-89.58
-171.204
-327.016
-624.291
-1191.18
-2271.7
-4330.27
-8250.49
-15712.8
299.995
299.991
299.985
299.977
299.965
299.948
299.926
299.894
299.853
299.797
299.724
299.629
299.507
299.35
299.153
298.905
298.598
298.219
297.757
297.196
296.521
295.716
294.762
293.64
292.329
290.81
289.062
287.062
284.79
282.227
279.355
276.155
272.615
268.721
264.465
259.842
254.85
249.49
243.771
237.701
231.297
224.577
217.564
210.285
202.768
195.045
187.151
179.122
170.995
162.806
154.593
146.394
138.244
130.179
122.232
114.434
106.815
99.4021
92.219
85.2876
78.6267
72.2519
66.1763
60.4095
54.9586
49.8275
45.0177
40.5279
36.3543
32.4912
28.9307
25.6631
22.6773
19.9609
17.5005
15.2818
13.29
11.5101
9.92675
8.52476
7.28918
6.2054
5.25931
4.43742
3.72691
3.11573
2.59261
2.14713
1.76971
1.45159
1.18486
0.962386
0.777808
0.625491
0.500472
0.398414
0.315554
0.248649
0.194923
0.152019
0.117947
0.0910378
0.0699043
0.0533989
0.0405795
0.0306783
0.0230733
0.0172642
0.0128514
0.00951767
0.00701284
0.00514106
0.00374989
0.00272147
0.00196527
0.00141218
0.00100977
0.000718507
0.000508789
0.000358558
0.000251485
0.000175555
0.000121979
8.43609e-05
5.8077e-05
3.98009e-05
2.71535e-05
1.84427e-05
1.24711e-05
8.39629e-06
5.6285e-06
3.75699e-06
2.49717e-06
1.65286e-06
1.08949e-06
7.15196e-07
4.67589e-07
3.04479e-07
1.9748e-07
1.27579e-07
8.20999e-08
5.26297e-08
3.36094e-08
2.13821e-08
1.35523e-08
8.55793e-09
5.38432e-09
3.37533e-09
2.10833e-09
1.31225e-09
8.13877e-10
5.0302e-10
3.09819e-10
1.9017e-10
1.16332e-10
7.0924e-11
4.30961e-11
2.61004e-11
1.57554e-11
9.47989e-12
5.6856e-12
3.39908e-12
2.02568e-12
1.20341e-12
7.12699e-13
4.20779e-13
2.47668e-13
1.45334e-13
8.50258e-14
4.95946e-14
2.88421e-14
1.6724e-14
9.66898e-15
5.57391e-15
3.20395e-15
1.83641e-15
1.04958e-15
5.98181e-16
3.39946e-16
1.92616e-16
1.08747e-16
6.10247e-17
3.36885e-17
1.74954e-17
6.64906e-18
-3.32e-18
-1.75441e-17
-4.46449e-17
-1.02018e-16
-2.26793e-16
-4.99209e-16
-1.09268e-15
-2.38085e-15
-5.16573e-15
-1.11618e-14
-2.40193e-14
-5.14795e-14
-1.09893e-13
-2.33664e-13
-4.949e-13
-1.04416e-12
-2.19465e-12
-4.59554e-12
-9.58746e-12
-1.99294e-11
-4.12795e-11
-8.52028e-11
-1.75259e-10
-3.59292e-10
-7.34151e-10
-1.49529e-09
-3.03602e-09
-6.14548e-09
-1.24027e-08
-2.49584e-08
-5.00843e-08
-1.00232e-07
-2.00063e-07
-3.98311e-07
-7.91068e-07
-1.5674e-06
-3.09854e-06
-6.11204e-06
-1.20311e-05
-2.36349e-05
-4.63413e-05
-9.06955e-05
-0.000177191
-0.000345601
-0.000673003
-0.00130859
-0.00254075
-0.00492641
-0.00953969
-0.0184503
-0.0356424
-0.0687778
-0.132579
-0.25531
-0.491191
-0.944156
-1.81329
-3.4797
-6.67239
-12.7851
-24.4809
-46.8449
-89.5827
-171.209
-327.023
-624.301
-1191.19
-2271.71
-4330.28
-8250.48
-15712.7
299.995
299.991
299.985
299.977
299.965
299.948
299.925
299.894
299.852
299.797
299.724
299.629
299.506
299.35
299.152
298.904
298.596
298.217
297.754
297.192
296.516
295.71
294.754
293.631
292.319
290.797
289.046
287.043
284.769
282.203
279.327
276.123
272.579
268.681
264.422
259.795
254.799
249.436