/*--------------------------------*- C++ -*----------------------------------*\
| =========                 |                                                 |
| \\      /  F ield         | OpenFOAM: The Open Source CFD Toolbox           |
|  \\    /   O peration     | Version:  2306                                  |
|   \\  /    A nd           | Website:  www.openfoam.com                      |
|    \\/     M anipulation  |                                                 |
\*---------------------------------------------------------------------------*/
FoamFile
{
    version     2.0;
    format      ascii;
    arch        "LSB;label=32;scalar=64";
    class       volVectorField;
    location    "1.5";
    object      U;
}
// * * * * * * * * * * * * * * * * * * * * * * * * * * * * * * * * * * * * * //

dimensions      [0 1 -1 0 0 0 0];

internalField   nonuniform List<vector> 
32768
(
(1.00001 -3.79069e-05 0)
(1.00016 -0.000113673 0)
(1.00046 -0.000189317 0)
(1.00091 -0.000264823 0)
(1.00152 -0.000340273 0)
(1.00227 -0.000415742 0)
(1.00318 -0.000491273 0)
(1.00424 -0.000566903 0)
(1.00545 -0.000642672 0)
(1.00681 -0.000718619 0)
(1.00832 -0.000794777 0)
(1.00999 -0.000871174 0)
(1.01181 -0.000947829 0)
(1.01378 -0.00102475 0)
(1.01591 -0.00110195 0)
(1.01819 -0.00117942 0)
(1.02063 -0.00125715 0)
(1.02322 -0.00133511 0)
(1.02597 -0.00141327 0)
(1.02887 -0.00149159 0)
(1.03193 -0.00157002 0)
(1.03515 -0.00164848 0)
(1.03853 -0.00172689 0)
(1.04206 -0.00180518 0)
(1.04575 -0.00188324 0)
(1.0496 -0.00196096 0)
(1.0536 -0.00203823 0)
(1.05775 -0.00211492 0)
(1.06206 -0.00219091 0)
(1.06651 -0.00226606 0)
(1.07112 -0.00234025 0)
(1.07588 -0.00241335 0)
(1.08078 -0.00248528 0)
(1.08582 -0.002556 0)
(1.091 -0.00262563 0)
(1.09633 -0.00269441 0)
(1.10179 -0.00276282 0)
(1.10738 -0.00283152 0)
(1.11312 -0.00290132 0)
(1.11899 -0.00297305 0)
(1.12501 -0.00304742 0)
(1.13118 -0.00312483 0)
(1.13752 -0.00320518 0)
(1.14401 -0.00328777 0)
(1.15067 -0.00337127 0)
(1.1575 -0.00345369 0)
(1.16449 -0.00353258 0)
(1.17163 -0.0036052 0)
(1.17892 -0.00366872 0)
(1.18631 -0.00372043 0)
(1.1938 -0.00375802 0)
(1.20135 -0.00377964 0)
(1.20892 -0.00378403 0)
(1.21649 -0.00377052 0)
(1.22401 -0.00373905 0)
(1.23145 -0.00369002 0)
(1.23878 -0.00362424 0)
(1.24595 -0.00354284 0)
(1.25295 -0.00344707 0)
(1.25974 -0.00333833 0)
(1.26631 -0.00321797 0)
(1.27262 -0.00308732 0)
(1.27866 -0.00294761 0)
(1.28441 -0.00279996 0)
(1.28986 -0.00264537 0)
(1.295 -0.00248473 0)
(1.29981 -0.00231883 0)
(1.30428 -0.00214837 0)
(1.3084 -0.00197398 0)
(1.31218 -0.00179624 0)
(1.31559 -0.0016157 0)
(1.31864 -0.00143287 0)
(1.32132 -0.00124825 0)
(1.32363 -0.00106233 0)
(1.32557 -0.000875597 0)
(1.32714 -0.00068855 0)
(1.32833 -0.000501676 0)
(1.32914 -0.000315474 0)
(1.32959 -0.000130442 0)
(1.32966 5.2913e-05 0)
(1.32937 0.000234088 0)
(1.32872 0.000412586 0)
(1.32772 0.000587913 0)
(1.32637 0.000759582 0)
(1.32468 0.000927115 0)
(1.32265 0.00109005 0)
(1.32031 0.00124795 0)
(1.31766 0.0014004 0)
(1.3147 0.00154698 0)
(1.31146 0.00168735 0)
(1.30795 0.00182115 0)
(1.30417 0.00194809 0)
(1.30015 0.0020679 0)
(1.29589 0.00218034 0)
(1.29142 0.00228523 0)
(1.28674 0.00238241 0)
(1.28188 0.00247177 0)
(1.27685 0.00255325 0)
(1.27166 0.0026268 0)
(1.26633 0.00269245 0)
(1.26088 0.00275024 0)
(1.25533 0.00280025 0)
(1.24968 0.00284262 0)
(1.24395 0.00287748 0)
(1.23816 0.00290503 0)
(1.23232 0.00292548 0)
(1.22645 0.00293907 0)
(1.22056 0.00294606 0)
(1.21466 0.00294673 0)
(1.20876 0.00294137 0)
(1.20289 0.00293031 0)
(1.19704 0.00291385 0)
(1.19123 0.00289233 0)
(1.18546 0.00286609 0)
(1.17976 0.00283546 0)
(1.17412 0.00280078 0)
(1.16855 0.00276238 0)
(1.16306 0.0027206 0)
(1.15766 0.00267577 0)
(1.15236 0.00262819 0)
(1.14715 0.00257819 0)
(1.14204 0.00252605 0)
(1.13704 0.00247208 0)
(1.13215 0.00241654 0)
(1.12738 0.00235969 0)
(1.12271 0.00230179 0)
(1.11817 0.00224307 0)
(1.11374 0.00218376 0)
(1.10943 0.00212405 0)
(1.10524 0.00206415 0)
(1.10118 0.00200424 0)
(1.09723 0.00194447 0)
(1.0934 0.00188501 0)
(1.08969 0.00182599 0)
(1.08609 0.00176753 0)
(1.08262 0.00170976 0)
(1.07926 0.00165277 0)
(1.07601 0.00159665 0)
(1.07287 0.00154149 0)
(1.06984 0.00148735 0)
(1.06692 0.0014343 0)
(1.06411 0.00138238 0)
(1.06139 0.00133165 0)
(1.05878 0.00128214 0)
(1.05627 0.00123387 0)
(1.05385 0.00118687 0)
(1.05152 0.00114115 0)
(1.04928 0.00109673 0)
(1.04713 0.00105361 0)
(1.04507 0.00101178 0)
(1.04309 0.000971253 0)
(1.04119 0.000932012 0)
(1.03936 0.000894049 0)
(1.03761 0.000857348 0)
(1.03593 0.000821894 0)
(1.03433 0.000787667 0)
(1.03278 0.000754647 0)
(1.03131 0.000722809 0)
(1.02989 0.000692131 0)
(1.02854 0.000662585 0)
(1.02725 0.000634146 0)
(1.02601 0.000606786 0)
(1.02482 0.000580477 0)
(1.02368 0.00055519 0)
(1.0226 0.000530896 0)
(1.02156 0.000507566 0)
(1.02057 0.000485171 0)
(1.01962 0.000463681 0)
(1.01872 0.000443067 0)
(1.01785 0.000423301 0)
(1.01702 0.000404353 0)
(1.01623 0.000386196 0)
(1.01548 0.000368802 0)
(1.01476 0.000352144 0)
(1.01407 0.000336194 0)
(1.01342 0.000320927 0)
(1.01279 0.000306318 0)
(1.01219 0.00029234 0)
(1.01162 0.000278971 0)
(1.01108 0.000266185 0)
(1.01056 0.000253961 0)
(1.01006 0.000242276 0)
(1.00959 0.000231107 0)
(1.00914 0.000220435 0)
(1.00871 0.00021024 0)
(1.0083 0.0002005 0)
(1.00791 0.000191197 0)
(1.00753 0.000182314 0)
(1.00718 0.000173832 0)
(1.00684 0.000165735 0)
(1.00651 0.000158005 0)
(1.00621 0.000150627 0)
(1.00591 0.000143587 0)
(1.00563 0.000136869 0)
(1.00536 0.000130458 0)
(1.00511 0.000124343 0)
(1.00487 0.00011851 0)
(1.00464 0.000112945 0)
(1.00442 0.000107639 0)
(1.00421 0.000102578 0)
(1.00401 9.7752e-05 0)
(1.00381 9.31506e-05 0)
(1.00363 8.87636e-05 0)
(1.00346 8.45812e-05 0)
(1.0033 8.05943e-05 0)
(1.00314 7.6794e-05 0)
(1.00299 7.31719e-05 0)
(1.00285 6.97197e-05 0)
(1.00271 6.64299e-05 0)
(1.00258 6.32949e-05 0)
(1.00246 6.03077e-05 0)
(1.00234 5.74615e-05 0)
(1.00223 5.47498e-05 0)
(1.00212 5.21665e-05 0)
(1.00202 4.97057e-05 0)
(1.00192 4.73616e-05 0)
(1.00183 4.5129e-05 0)
(1.00174 4.30028e-05 0)
(1.00166 4.09779e-05 0)
(1.00158 3.90497e-05 0)
(1.0015 3.72138e-05 0)
(1.00143 3.54658e-05 0)
(1.00136 3.38018e-05 0)
(1.00129 3.22178e-05 0)
(1.00123 3.07102e-05 0)
(1.00117 2.92755e-05 0)
(1.00111 2.79102e-05 0)
(1.00106 2.66112e-05 0)
(1.00101 2.53755e-05 0)
(1.00096 2.42001e-05 0)
(1.00091 2.30823e-05 0)
(1.00086 2.20195e-05 0)
(1.00082 2.10091e-05 0)
(1.00078 2.00487e-05 0)
(1.00074 1.91362e-05 0)
(1.0007 1.82693e-05 0)
(1.00067 1.7446e-05 0)
(1.00063 1.66644e-05 0)
(1.0006 1.59225e-05 0)
(1.00057 1.52187e-05 0)
(1.00054 1.45513e-05 0)
(1.00051 1.39187e-05 0)
(1.00049 1.33193e-05 0)
(1.00046 1.27518e-05 0)
(1.00043 1.22148e-05 0)
(1.00041 1.17071e-05 0)
(1.00039 1.12274e-05 0)
(1.00037 1.07746e-05 0)
(1.00034 1.03475e-05 0)
(1.00032 9.94528e-06 0)
(1.00031 9.56663e-06 0)
(1.00029 9.21093e-06 0)
(1.00027 8.87809e-06 0)
(1.00025 8.55874e-06 0)
(1.00024 8.28933e-06 0)
(1.00021 7.92543e-06 0)
(1.00001 -0.00011389 0)
(1.00016 -0.000341242 0)
(1.00046 -0.000568144 0)
(1.00091 -0.000794669 0)
(1.00151 -0.00102103 0)
(1.00227 -0.00124741 0)
(1.00318 -0.00147398 0)
(1.00424 -0.00170084 0)
(1.00544 -0.00192812 0)
(1.0068 -0.00215595 0)
(1.00832 -0.00238441 0)
(1.00998 -0.0026136 0)
(1.0118 -0.00284357 0)
(1.01377 -0.00307436 0)
(1.0159 -0.00330598 0)
(1.01818 -0.00353842 0)
(1.02062 -0.00377165 0)
(1.02321 -0.00400559 0)
(1.02596 -0.00424014 0)
(1.02886 -0.00447518 0)
(1.03192 -0.00471053 0)
(1.03514 -0.00494601 0)
(1.03852 -0.00518139 0)
(1.04205 -0.00541638 0)
(1.04574 -0.00565071 0)
(1.04959 -0.00588403 0)
(1.05359 -0.006116 0)
(1.05775 -0.00634626 0)
(1.06206 -0.00657442 0)
(1.06652 -0.0068001 0)
(1.07113 -0.00702289 0)
(1.07589 -0.00724243 0)
(1.08079 -0.00745845 0)
(1.08584 -0.00767089 0)
(1.09103 -0.00788002 0)
(1.09636 -0.00808663 0)
(1.10182 -0.00829212 0)
(1.10743 -0.00849848 0)
(1.11317 -0.00870812 0)
(1.11905 -0.00892356 0)
(1.12508 -0.0091469 0)
(1.13127 -0.00937931 0)
(1.13761 -0.00962053 0)
(1.14411 -0.00986845 0)
(1.15079 -0.010119 0)
(1.15763 -0.0103663 0)
(1.16463 -0.0106031 0)
(1.17178 -0.0108209 0)
(1.17908 -0.0110114 0)
(1.18649 -0.0111665 0)
(1.19399 -0.0112792 0)
(1.20155 -0.011344 0)
(1.20913 -0.011357 0)
(1.21671 -0.0113164 0)
(1.22424 -0.0112219 0)
(1.23169 -0.0110747 0)
(1.23903 -0.0108772 0)
(1.24621 -0.0106328 0)
(1.25322 -0.0103454 0)
(1.26003 -0.010019 0)
(1.2666 -0.00965775 0)
(1.27292 -0.00926561 0)
(1.27897 -0.00884627 0)
(1.28473 -0.00840308 0)
(1.29019 -0.00793905 0)
(1.29533 -0.00745685 0)
(1.30015 -0.00695884 0)
(1.30463 -0.00644714 0)
(1.30876 -0.00592363 0)
(1.31254 -0.00539006 0)
(1.31595 -0.00484806 0)
(1.31901 -0.00429918 0)
(1.32169 -0.00374491 0)
(1.32401 -0.00318674 0)
(1.32595 -0.00262613 0)
(1.32751 -0.00206455 0)
(1.3287 -0.00150349 0)
(1.32951 -0.000944439 0)
(1.32995 -0.000388896 0)
(1.33003 0.000161618 0)
(1.32973 0.000705592 0)
(1.32908 0.00124153 0)
(1.32807 0.00176795 0)
(1.32671 0.00228337 0)
(1.32501 0.00278638 0)
(1.32297 0.00327558 0)
(1.32062 0.00374965 0)
(1.31796 0.00420731 0)
(1.31499 0.00464739 0)
(1.31174 0.00506876 0)
(1.30821 0.00547042 0)
(1.30442 0.00585146 0)
(1.30038 0.00621106 0)
(1.29611 0.00654853 0)
(1.29162 0.0068633 0)
(1.28693 0.00715492 0)
(1.28205 0.00742304 0)
(1.277 0.00766746 0)
(1.2718 0.00788808 0)
(1.26646 0.00808495 0)
(1.26099 0.00825821 0)
(1.25542 0.00840811 0)
(1.24975 0.00853503 0)
(1.24401 0.00863942 0)
(1.23821 0.00872185 0)
(1.23235 0.00878295 0)
(1.22647 0.00882345 0)
(1.22056 0.00884413 0)
(1.21465 0.00884584 0)
(1.20875 0.00882947 0)
(1.20286 0.00879595 0)
(1.197 0.00874626 0)
(1.19118 0.00868139 0)
(1.18541 0.00860233 0)
(1.17969 0.00851011 0)
(1.17404 0.00840575 0)
(1.16847 0.00829024 0)
(1.16298 0.00816459 0)
(1.15757 0.00802978 0)
(1.15226 0.00788676 0)
(1.14705 0.00773647 0)
(1.14194 0.00757979 0)
(1.13693 0.0074176 0)
(1.13204 0.00725073 0)
(1.12726 0.00707995 0)
(1.1226 0.00690603 0)
(1.11805 0.00672967 0)
(1.11362 0.00655153 0)
(1.10931 0.00637224 0)
(1.10512 0.00619238 0)
(1.10106 0.00601248 0)
(1.09711 0.00583304 0)
(1.09328 0.00565453 0)
(1.08957 0.00547734 0)
(1.08598 0.00530187 0)
(1.0825 0.00512845 0)
(1.07914 0.0049574 0)
(1.0759 0.00478897 0)
(1.07276 0.00462342 0)
(1.06974 0.00446096 0)
(1.06682 0.00430176 0)
(1.064 0.00414598 0)
(1.06129 0.00399376 0)
(1.05868 0.00384519 0)
(1.05617 0.00370037 0)
(1.05375 0.00355935 0)
(1.05143 0.00342219 0)
(1.0492 0.00328892 0)
(1.04705 0.00315955 0)
(1.04499 0.00303409 0)
(1.04301 0.00291251 0)
(1.04111 0.0027948 0)
(1.03929 0.00268092 0)
(1.03754 0.00257084 0)
(1.03586 0.0024645 0)
(1.03426 0.00236184 0)
(1.03272 0.0022628 0)
(1.03125 0.00216731 0)
(1.02983 0.0020753 0)
(1.02848 0.00198669 0)
(1.02719 0.0019014 0)
(1.02595 0.00181935 0)
(1.02477 0.00174045 0)
(1.02364 0.00166462 0)
(1.02255 0.00159177 0)
(1.02152 0.0015218 0)
(1.02053 0.00145465 0)
(1.01958 0.0013902 0)
(1.01868 0.00132839 0)
(1.01781 0.00126912 0)
(1.01699 0.0012123 0)
(1.0162 0.00115786 0)
(1.01545 0.0011057 0)
(1.01473 0.00105576 0)
(1.01404 0.00100793 0)
(1.01339 0.000962156 0)
(1.01276 0.000918351 0)
(1.01216 0.000876442 0)
(1.01159 0.000836356 0)
(1.01105 0.000798021 0)
(1.01053 0.00076137 0)
(1.01004 0.000726335 0)
(1.00957 0.00069285 0)
(1.00912 0.000660854 0)
(1.00869 0.000630285 0)
(1.00828 0.000601084 0)
(1.00789 0.000573194 0)
(1.00751 0.000546561 0)
(1.00716 0.000521132 0)
(1.00682 0.000496855 0)
(1.0065 0.000473681 0)
(1.00619 0.000451562 0)
(1.0059 0.000430455 0)
(1.00562 0.000410313 0)
(1.00535 0.000391096 0)
(1.0051 0.000372762 0)
(1.00486 0.000355273 0)
(1.00463 0.000338592 0)
(1.00441 0.000322683 0)
(1.0042 0.000307511 0)
(1.004 0.000293043 0)
(1.00381 0.000279249 0)
(1.00362 0.000266097 0)
(1.00345 0.000253559 0)
(1.00329 0.000241606 0)
(1.00313 0.000230213 0)
(1.00298 0.000219355 0)
(1.00284 0.000209006 0)
(1.0027 0.000199143 0)
(1.00257 0.000189745 0)
(1.00245 0.00018079 0)
(1.00233 0.000172257 0)
(1.00222 0.000164128 0)
(1.00211 0.000156384 0)
(1.00201 0.000149007 0)
(1.00192 0.00014198 0)
(1.00182 0.000135287 0)
(1.00174 0.000128912 0)
(1.00165 0.000122842 0)
(1.00157 0.000117062 0)
(1.0015 0.000111558 0)
(1.00142 0.000106318 0)
(1.00136 0.00010133 0)
(1.00129 9.65814e-05 0)
(1.00123 9.2062e-05 0)
(1.00117 8.77609e-05 0)
(1.00111 8.36681e-05 0)
(1.00106 7.97741e-05 0)
(1.001 7.60697e-05 0)
(1.00096 7.25461e-05 0)
(1.00091 6.91952e-05 0)
(1.00086 6.6009e-05 0)
(1.00082 6.29801e-05 0)
(1.00078 6.01012e-05 0)
(1.00074 5.73657e-05 0)
(1.0007 5.4767e-05 0)
(1.00067 5.2299e-05 0)
(1.00063 4.99558e-05 0)
(1.0006 4.7732e-05 0)
(1.00057 4.56222e-05 0)
(1.00054 4.36214e-05 0)
(1.00051 4.17249e-05 0)
(1.00048 3.99282e-05 0)
(1.00046 3.82271e-05 0)
(1.00043 3.66173e-05 0)
(1.00041 3.50953e-05 0)
(1.00039 3.36572e-05 0)
(1.00037 3.22997e-05 0)
(1.00034 3.10196e-05 0)
(1.00032 2.98136e-05 0)
(1.0003 2.86797e-05 0)
(1.00029 2.7611e-05 0)
(1.00027 2.66197e-05 0)
(1.00025 2.56518e-05 0)
(1.00024 2.48738e-05 0)
(1.00021 2.37453e-05 0)
(1.00001 -0.000189914 0)
(1.00016 -0.000568745 0)
(1.00045 -0.000946751 0)
(1.00091 -0.00132419 0)
(1.00151 -0.00170136 0)
(1.00227 -0.00207856 0)
(1.00317 -0.00245604 0)
(1.00423 -0.00283403 0)
(1.00544 -0.00321275 0)
(1.0068 -0.00359239 0)
(1.00831 -0.00397312 0)
(1.00997 -0.00435509 0)
(1.01179 -0.00473838 0)
(1.01376 -0.00512307 0)
(1.01588 -0.00550918 0)
(1.01816 -0.0058967 0)
(1.0206 -0.00628556 0)
(1.02319 -0.00667565 0)
(1.02594 -0.00706681 0)
(1.02884 -0.00745882 0)
(1.0319 -0.00785141 0)
(1.03512 -0.00824425 0)
(1.0385 -0.00863697 0)
(1.04203 -0.00902911 0)
(1.04573 -0.00942019 0)
(1.04958 -0.00980965 0)
(1.05358 -0.0101969 0)
(1.05774 -0.0105814 0)
(1.06206 -0.0109624 0)
(1.06652 -0.0113393 0)
(1.07114 -0.0117115 0)
(1.07591 -0.0120783 0)
(1.08082 -0.0124393 0)
(1.08588 -0.0127943 0)
(1.09108 -0.0131438 0)
(1.09642 -0.0134892 0)
(1.1019 -0.0138327 0)
(1.10752 -0.0141776 0)
(1.11328 -0.014528 0)
(1.11918 -0.014888 0)
(1.12523 -0.0152611 0)
(1.13143 -0.0156492 0)
(1.13779 -0.0160519 0)
(1.14432 -0.0164657 0)
(1.15102 -0.0168837 0)
(1.15788 -0.0172963 0)
(1.1649 -0.017691 0)
(1.17208 -0.0180542 0)
(1.1794 -0.0183717 0)
(1.18683 -0.0186301 0)
(1.19435 -0.0188178 0)
(1.20194 -0.0189256 0)
(1.20954 -0.0189471 0)
(1.21714 -0.0188792 0)
(1.2247 -0.0187214 0)
(1.23217 -0.0184757 0)
(1.23953 -0.0181463 0)
(1.24674 -0.0177387 0)
(1.25377 -0.0172592 0)
(1.26059 -0.0167147 0)
(1.26718 -0.0161121 0)
(1.27352 -0.0154579 0)
(1.27959 -0.0147583 0)
(1.28537 -0.0140189 0)
(1.29085 -0.0132446 0)
(1.29601 -0.01244 0)
(1.30083 -0.011609 0)
(1.30532 -0.010755 0)
(1.30947 -0.00988134 0)
(1.31326 -0.00899081 0)
(1.31668 -0.00808615 0)
(1.31974 -0.00716995 0)
(1.32244 -0.00624473 0)
(1.32475 -0.00531293 0)
(1.32669 -0.00437703 0)
(1.32826 -0.00343948 0)
(1.32944 -0.00250275 0)
(1.33026 -0.00156936 0)
(1.33069 -0.000641802 0)
(1.33076 0.000277388 0)
(1.33045 0.00118568 0)
(1.32978 0.00208057 0)
(1.32876 0.00295955 0)
(1.32738 0.00382017 0)
(1.32567 0.00466005 0)
(1.32362 0.00547685 0)
(1.32124 0.00626836 0)
(1.31855 0.00703245 0)
(1.31556 0.00776712 0)
(1.31229 0.00847052 0)
(1.30873 0.00914095 0)
(1.30491 0.00977689 0)
(1.30084 0.010377 0)
(1.29654 0.0109401 0)
(1.29203 0.0114652 0)
(1.2873 0.0119515 0)
(1.28239 0.0123986 0)
(1.27731 0.012806 0)
(1.27208 0.0131737 0)
(1.2667 0.0135016 0)
(1.26121 0.0137901 0)
(1.2556 0.0140395 0)
(1.24991 0.0142505 0)
(1.24413 0.0144238 0)
(1.2383 0.0145605 0)
(1.23242 0.0146615 0)
(1.22651 0.0147281 0)
(1.22058 0.0147616 0)
(1.21464 0.0147634 0)
(1.20871 0.0147351 0)
(1.2028 0.0146781 0)
(1.19692 0.0145942 0)
(1.19108 0.0144849 0)
(1.18529 0.014352 0)
(1.17956 0.0141972 0)
(1.1739 0.0140221 0)
(1.16831 0.0138284 0)
(1.1628 0.0136179 0)
(1.15739 0.0133922 0)
(1.15206 0.0131528 0)
(1.14684 0.0129012 0)
(1.14172 0.0126391 0)
(1.13671 0.0123679 0)
(1.13182 0.0120889 0)
(1.12703 0.0118034 0)
(1.12236 0.0115128 0)
(1.11781 0.0112181 0)
(1.11338 0.0109205 0)
(1.10907 0.010621 0)
(1.10488 0.0103206 0)
(1.10082 0.0100202 0)
(1.09687 0.00972066 0)
(1.09304 0.00942266 0)
(1.08934 0.00912693 0)
(1.08575 0.00883409 0)
(1.08227 0.00854472 0)
(1.07892 0.00825932 0)
(1.07567 0.00797835 0)
(1.07254 0.00770219 0)
(1.06952 0.00743121 0)
(1.06661 0.00716571 0)
(1.0638 0.00690593 0)
(1.06109 0.00665211 0)
(1.05849 0.0064044 0)
(1.05598 0.00616295 0)
(1.05357 0.00592788 0)
(1.05125 0.00569925 0)
(1.04902 0.00547712 0)
(1.04688 0.0052615 0)
(1.04482 0.0050524 0)
(1.04285 0.0048498 0)
(1.04096 0.00465366 0)
(1.03914 0.00446391 0)
(1.0374 0.0042805 0)
(1.03573 0.00410333 0)
(1.03412 0.0039323 0)
(1.03259 0.00376731 0)
(1.03112 0.00360825 0)
(1.02971 0.00345499 0)
(1.02837 0.0033074 0)
(1.02708 0.00316534 0)
(1.02585 0.00302869 0)
(1.02467 0.00289729 0)
(1.02354 0.002771 0)
(1.02246 0.00264967 0)
(1.02143 0.00253317 0)
(1.02044 0.00242134 0)
(1.0195 0.00231404 0)
(1.0186 0.00221111 0)
(1.01774 0.00211242 0)
(1.01691 0.00201783 0)
(1.01613 0.00192718 0)
(1.01538 0.00184035 0)
(1.01466 0.00175719 0)
(1.01398 0.00167757 0)
(1.01333 0.00160137 0)
(1.0127 0.00152844 0)
(1.01211 0.00145868 0)
(1.01154 0.00139195 0)
(1.011 0.00132813 0)
(1.01048 0.00126712 0)
(1.00999 0.00120881 0)
(1.00952 0.00115307 0)
(1.00907 0.00109981 0)
(1.00865 0.00104893 0)
(1.00824 0.00100033 0)
(1.00785 0.000953905 0)
(1.00748 0.000909577 0)
(1.00713 0.000867252 0)
(1.00679 0.000826845 0)
(1.00647 0.000788276 0)
(1.00616 0.000751464 0)
(1.00587 0.000716333 0)
(1.00559 0.000682812 0)
(1.00533 0.000650829 0)
(1.00507 0.000620317 0)
(1.00483 0.000591211 0)
(1.0046 0.00056345 0)
(1.00438 0.000536973 0)
(1.00418 0.000511723 0)
(1.00398 0.000487646 0)
(1.00379 0.000464689 0)
(1.00361 0.000442802 0)
(1.00344 0.000421936 0)
(1.00327 0.000402046 0)
(1.00312 0.000383086 0)
(1.00297 0.000365016 0)
(1.00283 0.000347794 0)
(1.00269 0.000331381 0)
(1.00256 0.000315741 0)
(1.00244 0.000300839 0)
(1.00232 0.00028664 0)
(1.00221 0.000273113 0)
(1.0021 0.000260225 0)
(1.002 0.000247949 0)
(1.00191 0.000236256 0)
(1.00182 0.000225118 0)
(1.00173 0.000214511 0)
(1.00165 0.00020441 0)
(1.00157 0.000194791 0)
(1.00149 0.000185633 0)
(1.00142 0.000176913 0)
(1.00135 0.000168613 0)
(1.00128 0.000160711 0)
(1.00122 0.000153191 0)
(1.00116 0.000146034 0)
(1.00111 0.000139223 0)
(1.00105 0.000132743 0)
(1.001 0.000126579 0)
(1.00095 0.000120716 0)
(1.0009 0.00011514 0)
(1.00086 0.000109838 0)
(1.00082 0.000104798 0)
(1.00078 0.000100007 0)
(1.00074 9.54555e-05 0)
(1.0007 9.11313e-05 0)
(1.00066 8.70246e-05 0)
(1.00063 8.31256e-05 0)
(1.0006 7.94251e-05 0)
(1.00057 7.59144e-05 0)
(1.00054 7.25852e-05 0)
(1.00051 6.94295e-05 0)
(1.00048 6.64398e-05 0)
(1.00046 6.36091e-05 0)
(1.00043 6.09306e-05 0)
(1.00041 5.83979e-05 0)
(1.00039 5.60051e-05 0)
(1.00036 5.37462e-05 0)
(1.00034 5.16164e-05 0)
(1.00032 4.96091e-05 0)
(1.0003 4.77238e-05 0)
(1.00028 4.59429e-05 0)
(1.00027 4.43012e-05 0)
(1.00025 4.26787e-05 0)
(1.00023 4.14169e-05 0)
(1.00021 3.94961e-05 0)
(1.00001 -0.00026571 0)
(1.00016 -0.000795692 0)
(1.00045 -0.00132453 0)
(1.00091 -0.00185261 0)
(1.00151 -0.00238036 0)
(1.00226 -0.00290815 0)
(1.00317 -0.00343636 0)
(1.00422 -0.00396532 0)
(1.00543 -0.00449534 0)
(1.00678 -0.0050267 0)
(1.00829 -0.00555963 0)
(1.00995 -0.00609434 0)
(1.01177 -0.00663097 0)
(1.01374 -0.00716962 0)
(1.01586 -0.00771033 0)
(1.01814 -0.00825309 0)
(1.02057 -0.0087978 0)
(1.02316 -0.00934433 0)
(1.02591 -0.00989244 0)
(1.02881 -0.0104418 0)
(1.03187 -0.0109922 0)
(1.03509 -0.0115429 0)
(1.03847 -0.0120936 0)
(1.04201 -0.0126436 0)
(1.0457 -0.0131923 0)
(1.04955 -0.0137388 0)
(1.05356 -0.0142823 0)
(1.05773 -0.014822 0)
(1.06205 -0.015357 0)
(1.06653 -0.0158864 0)
(1.07116 -0.0164092 0)
(1.07594 -0.0169246 0)
(1.08086 -0.017432 0)
(1.08594 -0.0179311 0)
(1.09116 -0.0184225 0)
(1.09652 -0.0189082 0)
(1.10202 -0.0193913 0)
(1.10766 -0.0198763 0)
(1.11344 -0.020369 0)
(1.11937 -0.0208749 0)
(1.12545 -0.0213991 0)
(1.13168 -0.0219442 0)
(1.13807 -0.0225095 0)
(1.14463 -0.02309 0)
(1.15136 -0.0236762 0)
(1.15825 -0.0242545 0)
(1.16531 -0.0248076 0)
(1.17253 -0.0253163 0)
(1.17988 -0.0257609 0)
(1.18735 -0.0261227 0)
(1.1949 -0.0263853 0)
(1.20252 -0.0265359 0)
(1.21016 -0.0265657 0)
(1.2178 -0.0264702 0)
(1.22539 -0.0262487 0)
(1.23289 -0.0259043 0)
(1.24028 -0.0254425 0)
(1.24752 -0.0248711 0)
(1.25458 -0.024199 0)
(1.26144 -0.0234358 0)
(1.26806 -0.022591 0)
(1.27443 -0.0216739 0)
(1.28053 -0.0206931 0)
(1.28633 -0.0196563 0)
(1.29183 -0.0185706 0)
(1.29701 -0.0174423 0)
(1.30186 -0.0162767 0)
(1.30637 -0.0150789 0)
(1.31054 -0.0138533 0)
(1.31434 -0.012604 0)
(1.31778 -0.0113347 0)
(1.32085 -0.0100492 0)
(1.32355 -0.00875085 0)
(1.32587 -0.00744322 0)
(1.32782 -0.00612973 0)
(1.32938 -0.00481383 0)
(1.33057 -0.00349903 0)
(1.33137 -0.00218883 0)
(1.3318 -0.000886779 0)
(1.33185 0.00040358 0)
(1.33153 0.00167869 0)
(1.33085 0.00293499 0)
(1.3298 0.00416896 0)
(1.32841 0.00537717 0)
(1.32666 0.00655622 0)
(1.32458 0.00770285 0)
(1.32218 0.00881391 0)
(1.31945 0.00988641 0)
(1.31643 0.0109175 0)
(1.31311 0.0119047 0)
(1.30951 0.0128454 0)
(1.30565 0.0137376 0)
(1.30154 0.0145793 0)
(1.2972 0.015369 0)
(1.29263 0.0161052 0)
(1.28786 0.0167869 0)
(1.28291 0.0174133 0)
(1.27778 0.0179839 0)
(1.27249 0.0184986 0)
(1.26707 0.0189573 0)
(1.26153 0.0193605 0)
(1.25588 0.0197089 0)
(1.25014 0.0200031 0)
(1.24432 0.0202445 0)
(1.23844 0.0204343 0)
(1.23252 0.0205741 0)
(1.22657 0.0206655 0)
(1.2206 0.0207104 0)
(1.21463 0.0207109 0)
(1.20866 0.0206691 0)
(1.20272 0.0205871 0)
(1.19681 0.0204672 0)
(1.19094 0.0203119 0)
(1.18512 0.0201235 0)
(1.17936 0.0199043 0)
(1.17367 0.0196569 0)
(1.16807 0.0193834 0)
(1.16254 0.0190864 0)
(1.15711 0.0187681 0)
(1.15177 0.0184308 0)
(1.14653 0.0180766 0)
(1.1414 0.0177076 0)
(1.13638 0.017326 0)
(1.13148 0.0169335 0)
(1.12668 0.0165321 0)
(1.12201 0.0161235 0)
(1.11746 0.0157094 0)
(1.11302 0.0152913 0)
(1.10871 0.0148707 0)
(1.10452 0.0144489 0)
(1.10046 0.0140272 0)
(1.09651 0.0136068 0)
(1.09269 0.0131886 0)
(1.08898 0.0127737 0)
(1.0854 0.0123629 0)
(1.08193 0.0119571 0)
(1.07858 0.0115569 0)
(1.07534 0.011163 0)
(1.07221 0.0107759 0)
(1.0692 0.0103961 0)
(1.06629 0.010024 0)
(1.06349 0.00966002 0)
(1.06079 0.00930441 0)
(1.0582 0.00895742 0)
(1.0557 0.00861925 0)
(1.05329 0.00829003 0)
(1.05098 0.00796988 0)
(1.04876 0.00765886 0)
(1.04663 0.007357 0)
(1.04458 0.00706429 0)
(1.04261 0.0067807 0)
(1.04072 0.00650618 0)
(1.03892 0.00624064 0)
(1.03718 0.00598398 0)
(1.03552 0.00573607 0)
(1.03392 0.00549678 0)
(1.0324 0.00526596 0)
(1.03093 0.00504345 0)
(1.02953 0.00482906 0)
(1.02819 0.00462262 0)
(1.02691 0.00442394 0)
(1.02568 0.00423281 0)
(1.02451 0.00404905 0)
(1.02339 0.00387245 0)
(1.02231 0.00370281 0)
(1.02129 0.00353991 0)
(1.02031 0.00338355 0)
(1.01937 0.00323353 0)
(1.01848 0.00308964 0)
(1.01762 0.00295167 0)
(1.0168 0.00281943 0)
(1.01602 0.00269272 0)
(1.01528 0.00257135 0)
(1.01457 0.00245511 0)
(1.01389 0.00234383 0)
(1.01324 0.00223732 0)
(1.01262 0.00213541 0)
(1.01203 0.0020379 0)
(1.01146 0.00194465 0)
(1.01093 0.00185547 0)
(1.01041 0.00177021 0)
(1.00992 0.00168872 0)
(1.00946 0.00161083 0)
(1.00901 0.00153641 0)
(1.00859 0.00146532 0)
(1.00818 0.0013974 0)
(1.0078 0.00133254 0)
(1.00743 0.00127061 0)
(1.00708 0.00121147 0)
(1.00674 0.00115502 0)
(1.00642 0.00110113 0)
(1.00612 0.0010497 0)
(1.00583 0.00100062 0)
(1.00555 0.000953786 0)
(1.00529 0.000909104 0)
(1.00504 0.000866477 0)
(1.0048 0.000825816 0)
(1.00457 0.000787034 0)
(1.00435 0.000750046 0)
(1.00415 0.000714774 0)
(1.00395 0.000681139 0)
(1.00376 0.00064907 0)
(1.00358 0.000618495 0)
(1.00341 0.000589348 0)
(1.00325 0.000561563 0)
(1.00309 0.000535079 0)
(1.00295 0.000509837 0)
(1.00281 0.00048578 0)
(1.00267 0.000462854 0)
(1.00254 0.000441008 0)
(1.00242 0.000420192 0)
(1.00231 0.000400358 0)
(1.0022 0.000381463 0)
(1.00209 0.000363462 0)
(1.00199 0.000346315 0)
(1.00189 0.000329981 0)
(1.0018 0.000314425 0)
(1.00172 0.000299609 0)
(1.00163 0.0002855 0)
(1.00155 0.000272065 0)
(1.00148 0.000259273 0)
(1.00141 0.000247094 0)
(1.00134 0.0002355 0)
(1.00127 0.000224463 0)
(1.00121 0.000213959 0)
(1.00115 0.000203963 0)
(1.0011 0.00019445 0)
(1.00104 0.0001854 0)
(1.00099 0.00017679 0)
(1.00094 0.000168601 0)
(1.0009 0.000160813 0)
(1.00085 0.000153408 0)
(1.00081 0.000146368 0)
(1.00077 0.000139677 0)
(1.00073 0.00013332 0)
(1.00069 0.00012728 0)
(1.00066 0.000121544 0)
(1.00063 0.000116099 0)
(1.00059 0.00011093 0)
(1.00056 0.000106027 0)
(1.00053 0.000101377 0)
(1.00051 9.69694e-05 0)
(1.00048 9.27938e-05 0)
(1.00045 8.88402e-05 0)
(1.00043 8.50992e-05 0)
(1.00041 8.15618e-05 0)
(1.00038 7.82198e-05 0)
(1.00036 7.50649e-05 0)
(1.00034 7.20904e-05 0)
(1.00032 6.92867e-05 0)
(1.0003 6.66542e-05 0)
(1.00028 6.41663e-05 0)
(1.00026 6.1876e-05 0)
(1.00025 5.96071e-05 0)
(1.00023 5.78518e-05 0)
(1.00021 5.5157e-05 0)
(1.00001 -0.000341308 0)
(1.00016 -0.00102209 0)
(1.00045 -0.00170141 0)
(1.0009 -0.00237981 0)
(1.0015 -0.00305781 0)
(1.00226 -0.00373591 0)
(1.00316 -0.00441458 0)
(1.00421 -0.00509428 0)
(1.00541 -0.00577541 0)
(1.00677 -0.00645833 0)
(1.00827 -0.00714337 0)
(1.00993 -0.00783078 0)
(1.01174 -0.00852076 0)
(1.01371 -0.00921345 0)
(1.01583 -0.00990891 0)
(1.0181 -0.0106071 0)
(1.02053 -0.011308 0)
(1.02312 -0.0120114 0)
(1.02586 -0.0127169 0)
(1.02877 -0.0134243 0)
(1.03183 -0.014133 0)
(1.03505 -0.0148425 0)
(1.03843 -0.0155521 0)
(1.04197 -0.016261 0)
(1.04566 -0.0169683 0)
(1.04952 -0.017673 0)
(1.05354 -0.0183742 0)
(1.05771 -0.0190706 0)
(1.06205 -0.0197612 0)
(1.06653 -0.0204448 0)
(1.07118 -0.02112 0)
(1.07597 -0.021786 0)
(1.08092 -0.0224417 0)
(1.08601 -0.0230869 0)
(1.09125 -0.0237224 0)
(1.09664 -0.0243505 0)
(1.10217 -0.0249753 0)
(1.10784 -0.0256027 0)
(1.11365 -0.0262397 0)
(1.11962 -0.0268937 0)
(1.12573 -0.0275709 0)
(1.132 -0.0282746 0)
(1.13844 -0.0290039 0)
(1.14504 -0.0297524 0)
(1.15181 -0.0305079 0)
(1.15875 -0.0312526 0)
(1.16586 -0.0319646 0)
(1.17312 -0.0326192 0)
(1.18052 -0.033191 0)
(1.18803 -0.033656 0)
(1.19564 -0.0339933 0)
(1.2033 -0.0341865 0)
(1.21099 -0.0342242 0)
(1.21867 -0.0341007 0)
(1.2263 -0.0338151 0)
(1.23385 -0.0333713 0)
(1.24129 -0.0327765 0)
(1.24857 -0.0320406 0)
(1.25567 -0.0311751 0)
(1.26257 -0.0301922 0)
(1.26923 -0.0291042 0)
(1.27564 -0.0279229 0)
(1.28177 -0.0266595 0)
(1.28761 -0.0253238 0)
(1.29315 -0.0239249 0)
(1.29836 -0.0224709 0)
(1.30324 -0.0209687 0)
(1.30778 -0.0194248 0)
(1.31196 -0.0178449 0)
(1.31579 -0.0162341 0)
(1.31925 -0.0145975 0)
(1.32233 -0.0129397 0)
(1.32504 -0.0112653 0)
(1.32737 -0.00957865 0)
(1.32932 -0.00788431 0)
(1.33089 -0.00618675 0)
(1.33207 -0.00449045 0)
(1.33287 -0.00279998 0)
(1.33328 -0.0011199 0)
(1.33332 0.000545152 0)
(1.33298 0.00219057 0)
(1.33227 0.00381177 0)
(1.3312 0.00540418 0)
(1.32977 0.00696332 0)
(1.32799 0.00848481 0)
(1.32587 0.00996439 0)
(1.32342 0.011398 0)
(1.32066 0.0127817 0)
(1.31758 0.0141119 0)
(1.31421 0.0153851 0)
(1.31056 0.0165983 0)
(1.30664 0.0177486 0)
(1.30247 0.0188336 0)
(1.29807 0.0198512 0)
(1.29344 0.0207996 0)
(1.28861 0.0216774 0)
(1.28359 0.0224836 0)
(1.2784 0.0232176 0)
(1.27305 0.0238792 0)
(1.26756 0.0244684 0)
(1.26196 0.0249858 0)
(1.25624 0.0254321 0)
(1.25044 0.0258086 0)
(1.24456 0.0261167 0)
(1.23863 0.0263581 0)
(1.23265 0.0265349 0)
(1.22664 0.0266493 0)
(1.22062 0.0267037 0)
(1.2146 0.0267007 0)
(1.20859 0.0266431 0)
(1.2026 0.0265338 0)
(1.19665 0.0263757 0)
(1.19074 0.026172 0)
(1.18488 0.0259256 0)
(1.17909 0.0256398 0)
(1.17338 0.0253175 0)
(1.16774 0.024962 0)
(1.16219 0.0245762 0)
(1.15673 0.0241631 0)
(1.15137 0.0237257 0)
(1.14612 0.0232667 0)
(1.14097 0.0227888 0)
(1.13594 0.0222948 0)
(1.13102 0.0217871 0)
(1.12622 0.021268 0)
(1.12154 0.0207398 0)
(1.11698 0.0202048 0)
(1.11254 0.0196647 0)
(1.10823 0.0191216 0)
(1.10404 0.0185772 0)
(1.09997 0.018033 0)
(1.09603 0.0174906 0)
(1.09221 0.0169513 0)
(1.08851 0.0164163 0)
(1.08493 0.0158869 0)
(1.08147 0.0153639 0)
(1.07812 0.0148482 0)
(1.07489 0.0143408 0)
(1.07178 0.0138423 0)
(1.06877 0.0133532 0)
(1.06587 0.0128742 0)
(1.06308 0.0124057 0)
(1.06039 0.0119481 0)
(1.0578 0.0115016 0)
(1.05531 0.0110666 0)
(1.05292 0.0106431 0)
(1.05062 0.0102314 0)
(1.04841 0.00983146 0)
(1.04629 0.00944336 0)
(1.04425 0.00906707 0)
(1.04229 0.00870255 0)
(1.04042 0.00834973 0)
(1.03862 0.0080085 0)
(1.03689 0.00767871 0)
(1.03524 0.0073602 0)
(1.03366 0.00705281 0)
(1.03214 0.00675632 0)
(1.03069 0.00647052 0)
(1.02929 0.00619519 0)
(1.02796 0.00593009 0)
(1.02669 0.00567497 0)
(1.02547 0.00542959 0)
(1.02431 0.00519367 0)
(1.02319 0.00496696 0)
(1.02213 0.0047492 0)
(1.02111 0.00454011 0)
(1.02013 0.00433943 0)
(1.0192 0.00414689 0)
(1.01831 0.00396224 0)
(1.01747 0.0037852 0)
(1.01665 0.00361552 0)
(1.01588 0.00345294 0)
(1.01514 0.00329721 0)
(1.01444 0.00314809 0)
(1.01376 0.00300533 0)
(1.01312 0.00286869 0)
(1.0125 0.00273795 0)
(1.01192 0.00261289 0)
(1.01136 0.00249327 0)
(1.01083 0.00237889 0)
(1.01032 0.00226954 0)
(1.00983 0.00216502 0)
(1.00937 0.00206514 0)
(1.00893 0.0019697 0)
(1.00851 0.00187852 0)
(1.00811 0.00179143 0)
(1.00772 0.00170826 0)
(1.00736 0.00162884 0)
(1.00701 0.00155301 0)
(1.00668 0.00148062 0)
(1.00636 0.00141153 0)
(1.00606 0.00134558 0)
(1.00577 0.00128266 0)
(1.0055 0.00122261 0)
(1.00524 0.00116532 0)
(1.00499 0.00111067 0)
(1.00475 0.00105854 0)
(1.00453 0.00100882 0)
(1.00431 0.000961406 0)
(1.00411 0.000916186 0)
(1.00391 0.000873068 0)
(1.00373 0.000831957 0)
(1.00355 0.000792762 0)
(1.00338 0.000755397 0)
(1.00322 0.00071978 0)
(1.00306 0.00068583 0)
(1.00292 0.000653473 0)
(1.00278 0.000622635 0)
(1.00265 0.000593248 0)
(1.00252 0.000565244 0)
(1.0024 0.000538562 0)
(1.00228 0.000513139 0)
(1.00217 0.000488919 0)
(1.00207 0.000465846 0)
(1.00197 0.000443866 0)
(1.00188 0.000422931 0)
(1.00179 0.000402991 0)
(1.0017 0.000384001 0)
(1.00162 0.000365917 0)
(1.00154 0.000348696 0)
(1.00147 0.0003323 0)
(1.00139 0.00031669 0)
(1.00133 0.000301829 0)
(1.00126 0.000287684 0)
(1.0012 0.000274221 0)
(1.00114 0.000261408 0)
(1.00109 0.000249216 0)
(1.00103 0.000237616 0)
(1.00098 0.000226581 0)
(1.00093 0.000216085 0)
(1.00089 0.000206104 0)
(1.00084 0.000196613 0)