/*--------------------------------*- C++ -*----------------------------------*\
| =========                 |                                                 |
| \\      /  F ield         | OpenFOAM: The Open Source CFD Toolbox           |
|  \\    /   O peration     | Version:  2306                                  |
|   \\  /    A nd           | Website:  www.openfoam.com                      |
|    \\/     M anipulation  |                                                 |
\*---------------------------------------------------------------------------*/
FoamFile
{
    version     2.0;
    format      ascii;
    arch        "LSB;label=32;scalar=64";
    class       volScalarField;
    location    "12.5";
    object      Keff;
}
// * * * * * * * * * * * * * * * * * * * * * * * * * * * * * * * * * * * * * //

dimensions      [1 1 -3 -1 0 0 0];

internalField   nonuniform List<scalar> 
32768
(
67.2037
67.2017
67.1977
67.1915
67.1833
67.1729
67.1605
67.1461
67.1295
67.1107
67.0899
67.0669
67.0417
67.0143
66.9848
66.9529
66.9189
66.8825
66.8439
66.8029
66.7597
66.714
66.666
66.6156
66.5629
66.5077
66.4501
66.39
66.3276
66.2627
66.1955
66.1258
66.0538
65.9794
65.9026
65.8236
65.7423
65.6588
65.5732
65.4854
65.3957
65.304
65.2104
65.115
65.0179
64.9193
64.8191
64.7176
64.6148
64.5109
64.4059
64.3
64.1934
64.0861
63.9783
63.8701
63.7616
63.6531
63.5445
63.4361
63.3279
63.2201
63.1128
63.0061
62.9001
62.7948
62.6905
62.5872
62.4849
62.3838
62.2839
62.1852
62.0878
61.9919
61.8973
61.8042
61.7125
61.6223
61.5337
61.4465
61.3608
61.2767
61.1941
61.1129
61.0333
60.9551
60.8783
60.8029
60.7289
60.6563
60.5849
60.5149
60.446
60.3784
60.3119
60.2465
60.1821
60.1188
60.0565
59.9952
59.9347
59.8751
59.8163
59.7583
59.7011
59.6446
59.5887
59.5336
59.479
59.4251
59.3717
59.3189
59.2667
59.2149
59.1637
59.113
59.0628
59.0131
58.9638
58.915
58.8668
58.819
58.7717
58.7249
58.6787
58.633
58.5878
58.5432
58.4992
58.4559
58.4131
58.371
58.3297
58.289
58.2491
58.21
58.1717
58.1342
58.0977
58.062
58.0273
57.9937
57.961
57.9294
57.899
57.8696
57.8415
57.8146
57.7889
57.7645
57.7415
57.7199
57.6996
57.6808
57.6635
57.6477
57.6335
57.6208
57.6097
57.6003
57.5926
57.5866
57.5823
57.5798
57.5791
57.5802
57.5832
57.5881
57.5948
57.6035
57.6141
57.6267
57.6413
57.6579
57.6765
57.6971
57.7199
57.7447
57.7716
57.8006
57.8317
57.865
57.9004
57.9379
57.9777
58.0195
58.0636
58.1098
58.1582
58.2088
58.2616
58.3166
58.3737
58.433
58.4945
58.5581
58.6239
58.6918
58.7618
58.834
58.9082
58.9845
59.0628
59.1431
59.2254
59.3097
59.3959
59.484
59.5739
59.6657
59.7592
59.8545
59.9514
60.05
60.1501
60.2518
60.3549
60.4595
60.5654
60.6726
60.781
60.8906
61.0013
61.113
61.2256
61.3392
61.4536
61.5687
61.6844
61.8008
61.9177
62.035
62.1528
62.2708
62.389
62.5074
62.6259
62.7444
62.8628
62.9812
63.0993
63.2172
63.3347
63.4518
63.5685
63.6848
63.8004
63.9155
64.0296
64.1437
64.2554
64.3699
64.4755
64.5984
64.6796
64.857
67.2037
67.2017
67.1977
67.1915
67.1833
67.173
67.1606
67.1461
67.1295
67.1108
67.0899
67.0669
67.0418
67.0144
66.9848
66.953
66.9189
66.8826
66.844
66.803
66.7597
66.7141
66.6661
66.6157
66.5629
66.5077
66.4501
66.39
66.3275
66.2626
66.1953
66.1256
66.0535
65.979
65.9022
65.8231
65.7418
65.6582
65.5724
65.4846
65.3947
65.3029
65.2092
65.1137
65.0165
64.9177
64.8174
64.7157
64.6128
64.5087
64.4036
64.2975
64.1907
64.0833
63.9753
63.867
63.7584
63.6497
63.541
63.4325
63.3242
63.2162
63.1088
63.002
62.8959
62.7906
62.6862
62.5827
62.4804
62.3792
62.2792
62.1805
62.0831
61.9871
61.8925
61.7993
61.7076
61.6175
61.5288
61.4416
61.356
61.2719
61.1892
61.1081
61.0285
60.9503
60.8735
60.7982
60.7242
60.6516
60.5803
60.5103
60.4415
60.3739
60.3074
60.242
60.1778
60.1145
60.0522
59.9909
59.9305
59.8709
59.8121
59.7542
59.697
59.6405
59.5847
59.5295
59.475
59.4211
59.3677
59.315
59.2627
59.211
59.1598
59.1091
59.0588
59.0091
58.9599
58.9111
58.8628
58.815
58.7677
58.7209
58.6747
58.6289
58.5837
58.5391
58.4951
58.4517
58.4089
58.3668
58.3254
58.2847
58.2448
58.2056
58.1673
58.1298
58.0932
58.0575
58.0228
57.9891
57.9564
57.9248
57.8943
57.8649
57.8367
57.8098
57.7841
57.7597
57.7366
57.7149
57.6946
57.6758
57.6585
57.6426
57.6283
57.6156
57.6046
57.5951
57.5874
57.5813
57.577
57.5745
57.5738
57.5749
57.5778
57.5826
57.5894
57.598
57.6086
57.6212
57.6357
57.6523
57.6709
57.6916
57.7143
57.7391
57.766
57.7949
57.8261
57.8593
57.8947
57.9323
57.972
58.0139
58.0579
58.1041
58.1526
58.2032
58.2559
58.3109
58.368
58.4274
58.4888
58.5525
58.6183
58.6862
58.7562
58.8284
58.9026
58.9789
59.0573
59.1376
59.22
59.3043
59.3905
59.4786
59.5686
59.6604
59.754
59.8493
59.9463
60.0449
60.1451
60.2468
60.35
60.4547
60.5606
60.6679
60.7764
60.886
60.9968
61.1086
61.2213
61.3349
61.4494
61.5646
61.6804
61.7969
61.9139
62.0313
62.1491
62.2672
62.3855
62.504
62.6226
62.7412
62.8597
62.9781
63.0963
63.2143
63.3319
63.4491
63.5659
63.6822
63.7979
63.9131
64.0273
64.1414
64.2532
64.3678
64.4734
64.5966
64.6777
64.8552
67.2037
67.2017
67.1977
67.1915
67.1833
67.173
67.1606
67.1461
67.1296
67.1109
67.09
67.067
67.0419
67.0145
66.985
66.9532
66.9191
66.8828
66.8441
66.8032
66.7599
66.7142
66.6662
66.6158
66.563
66.5077
66.45
66.3899
66.3274
66.2624
66.195
66.1252
66.053
65.9784
65.9014
65.8222
65.7406
65.6569
65.571
65.4829
65.3928
65.3008
65.2068
65.1111
65.0136
64.9145
64.814
64.712
64.6088
64.5044
64.399
64.2926
64.1855
64.0778
63.9695
63.8609
63.752
63.643
63.5341
63.4252
63.3167
63.2085
63.1009
62.9938
62.8875
62.782
62.6774
62.5738
62.4713
62.37
62.2699
62.1711
62.0736
61.9775
61.8829
61.7897
61.6979
61.6077
61.519
61.4319
61.3462
61.2621
61.1795
61.0985
61.0189
60.9407
60.864
60.7888
60.7149
60.6423
60.5711
60.5011
60.4324
60.3648
60.2985
60.2332
60.169
60.1058
60.0436
59.9823
59.922
59.8625
59.8038
59.7459
59.6888
59.6323
59.5766
59.5215
59.467
59.4131
59.3598
59.307
59.2548
59.2031
59.1519
59.1012
59.051
59.0012
58.952
58.9032
58.8549
58.8071
58.7597
58.7129
58.6666
58.6208
58.5756
58.531
58.4869
58.4434
58.4006
58.3584
58.3169
58.2762
58.2362
58.1969
58.1585
58.121
58.0843
58.0485
58.0137
57.9799
57.9472
57.9155
57.8849
57.8554
57.8272
57.8002
57.7744
57.7499
57.7268
57.705
57.6847
57.6658
57.6483
57.6324
57.6181
57.6053
57.5942
57.5847
57.5769
57.5708
57.5664
57.5638
57.5631
57.5641
57.567
57.5718
57.5785
57.5871
57.5976
57.6102
57.6247
57.6412
57.6598
57.6804
57.7031
57.7279
57.7547
57.7837
57.8148
57.848
57.8834
57.9209
57.9606
58.0025
58.0466
58.0928
58.1412
58.1918
58.2446
58.2996
58.3567
58.416
58.4775
58.5412
58.607
58.675
58.745
58.8172
58.8915
58.9678
59.0462
59.1266
59.2091
59.2934
59.3797
59.4679
59.558
59.6499
59.7435
59.8389
59.936
60.0348
60.1351
60.2369
60.3402
60.445
60.5511
60.6585
60.7671
60.8769
60.9878
61.0997
61.2126
61.3264
61.441
61.5564
61.6724
61.789
61.9062
62.0238
62.1418
62.26
62.3785
62.4972
62.616
62.7347
62.8534
62.972
63.0904
63.2085
63.3263
63.4437
63.5607
63.6771
63.7929
63.9083
64.0226
64.137
64.2489
64.3637
64.4694
64.5927
64.6739
64.8516
67.2037
67.2017
67.1977
67.1915
67.1833
67.173
67.1607
67.1462
67.1297
67.111
67.0902
67.0672
67.0421
67.0147
66.9852
66.9534
66.9194
66.883
66.8444
66.8034
66.7601
66.7145
66.6664
66.616
66.5631
66.5078
66.45
66.3898
66.3272
66.2621
66.1946
66.1246
66.0522
65.9774
65.9003
65.8208
65.739
65.655
65.5688
65.4804
65.39
65.2976
65.2033
65.1071
65.0093
64.9098
64.8088
64.7064
64.6027
64.4979
64.392
64.2852
64.1777
64.0695
63.9608
63.8517
63.7424
63.633
63.5236
63.4144
63.3055
63.1969
63.0889
62.9815
62.8749
62.7691
62.6643
62.5605
62.4577
62.3562
62.2559
62.157
62.0594
61.9632
61.8684
61.7751
61.6834
61.5931
61.5044
61.4172
61.3316
61.2475
61.165
61.084
61.0044
60.9264
60.8498
60.7746
60.7008
60.6284
60.5572
60.4874
60.4188
60.3514
60.2851
60.2199
60.1558
60.0928
60.0307
59.9696
59.9093
59.8499
59.7913
59.7335
59.6765
59.6201
59.5644
59.5094
59.455
59.4012
59.3479
59.2952
59.243
59.1913
59.1401
59.0894
59.0392
58.9895
58.9402
58.8914
58.843
58.7952
58.7478
58.7009
58.6546
58.6087
58.5634
58.5187
58.4746
58.431
58.3881
58.3458
58.3042
58.2634
58.2233
58.1839
58.1454
58.1077
58.071
58.0351
58.0002
57.9663
57.9334
57.9016
57.8709
57.8413
57.8129
57.7858
57.7599
57.7353
57.7121
57.6902
57.6697
57.6507
57.6332
57.6172
57.6027
57.5899
57.5787
57.5691
57.5612
57.555
57.5506
57.5479
57.547
57.548
57.5508
57.5555
57.5622
57.5707
57.5812
57.5937
57.6081
57.6246
57.6431
57.6637
57.6864
57.7111
57.7379
57.7668
57.7979
57.8311
57.8665
57.904
57.9437
57.9855
58.0296
58.0758
58.1242
58.1748
58.2276
58.2826
58.3397
58.3991
58.4606
58.5243
58.5901
58.6581
58.7283
58.8005
58.8748
58.9512
59.0297
59.1102
59.1927
59.2772
59.3636
59.4519
59.5421
59.6341
59.7279
59.8234
59.9207
60.0196
60.12
60.2221
60.3256
60.4305
60.5368
60.6444
60.7532
60.8632
60.9744
61.0865
61.1997
61.3137
61.4285
61.5441
61.6604
61.7773
61.8947
62.0125
62.1308
62.2493
62.3681
62.487
62.606
62.7251
62.844
62.9629
63.0815
63.1999
63.3179
63.4356
63.5528
63.6695
63.7856
63.9011
64.0157
64.1303
64.2425
64.3574
64.4633
64.5869
64.6682
64.8463
67.2037
67.2017
67.1977
67.1916
67.1834
67.1731
67.1607
67.1463
67.1298
67.1111
67.0904
67.0674
67.0423
67.015
66.9855
66.9537
66.9197
66.8834
66.8448
66.8038
66.7605
66.7148
66.6667
66.6162
66.5633
66.5079
66.45
66.3897
66.327
66.2617
66.194
66.1238
66.0512
65.9762
65.8987
65.819
65.7368
65.6525
65.5659
65.4771
65.3863
65.2934
65.1986
65.1019
65.0036
64.9035
64.802
64.699
64.5947
64.4893
64.3828
64.2754
64.1673
64.0584
63.9491
63.8395
63.7296
63.6196
63.5097
63.3999
63.2905
63.1815
63.073
62.9652
62.8581
62.752
62.6468
62.5426
62.4396
62.3378
62.2373
62.1381
62.0403
61.944
61.8491
61.7558
61.6639
61.5736
61.4849
61.3977
61.3121
61.2281
61.1456
61.0647
60.9852
60.9073
60.8308
60.7557
60.6821
60.6098
60.5388
60.4691
60.4006
60.3334
60.2673
60.2023
60.1384
60.0755
60.0135
59.9525
59.8924
59.8332
59.7747
59.7171
59.6601
59.6039
59.5483
59.4934
59.439
59.3853
59.3321
59.2794
59.2273
59.1756
59.1245
59.0738
59.0236
58.9738
58.9245
58.8757
58.8273
58.7794
58.732
58.685
58.6386
58.5927
58.5473
58.5024
58.4582
58.4145
58.3715
58.3291
58.2874
58.2464
58.2061
58.1667
58.128
58.0902
58.0532
58.0172
57.9821
57.9481
57.915
57.8831
57.8522
57.8225
57.794
57.7667
57.7406
57.7159
57.6925
57.6705
57.6499
57.6307
57.6131
57.5969
57.5823
57.5694
57.558
57.5483
57.5403
57.534
57.5294
57.5267
57.5257
57.5266
57.5293
57.5339
57.5405
57.5489
57.5593
57.5717
57.5861
57.6025
57.621
57.6415
57.6641
57.6888
57.7155
57.7444
57.7755
57.8086
57.8439
57.8814
57.9211
57.9629
58.0069
58.0532
58.1016
58.1522
58.205
58.26
58.3171
58.3765
58.4381
58.5018
58.5677
58.6357
58.7059
58.7782
58.8527
58.9292
59.0077
59.0883
59.171
59.2555
59.3421
59.4306
59.5209
59.6131
59.7071
59.8028
59.9002
59.9993
60.1
60.2023
60.306
60.4112
60.5178
60.6256
60.7347
60.845
60.9565
61.0689
61.1824
61.2967
61.4119
61.5278
61.6444
61.7616
61.8794
61.9976
62.1162
62.2351
62.3542
62.4735
62.5928
62.7122
62.8315
62.9507
63.0697
63.1884
63.3068
63.4248
63.5423
63.6593
63.7757
63.8916
64.0065
64.1214
64.2339
64.3492
64.4553
64.5792
64.6607
64.8392
67.2037
67.2017
67.1977
67.1916
67.1834
67.1732
67.1608
67.1465
67.13
67.1113
67.0906
67.0677
67.0426
67.0154
66.9859
66.9541
66.9201
66.8838
66.8452
66.8043
66.761
66.7152
66.6671
66.6166
66.5635
66.5081
66.4501
66.3897
66.3267
66.2613
66.1933
66.1229
66.05
65.9747
65.8969
65.8167
65.7342
65.6494
65.5623
65.473
65.3816
65.2882
65.1928
65.0955
64.9964
64.8957
64.7935
64.6898
64.5847
64.4786
64.3713
64.2631
64.1542
64.0446
63.9346
63.8242
63.7136
63.6029
63.4922
63.3818
63.2717
63.1621
63.053
62.9447
62.8371
62.7305
62.6248
62.5203
62.4169
62.3148
62.214
62.1146
62.0166
61.92
61.825
61.7315
61.6396
61.5493
61.4605
61.3734
61.2878
61.2038
61.1214
61.0406
60.9612
60.8834
60.8071
60.7322
60.6587
60.5866
60.5158
60.4463
60.378
60.311
60.2451
60.1803
60.1166
60.0539
59.9921
59.9313
59.8714
59.8123
59.7541
59.6965
59.6398
59.5837
59.5282
59.4734
59.4192
59.3655
59.3124
59.2598
59.2077
59.1561
59.105
59.0543
59.0041
58.9543
58.905
58.8561
58.8077
58.7597
58.7122
58.6652
58.6187
58.5727
58.5272
58.4822
58.4378
58.394
58.3508
58.3083
58.2664
58.2252
58.1848
58.1451
58.1063
58.0683
58.0312
57.9949
57.9597
57.9254
57.8922
57.86
57.829
57.799
57.7703
57.7428
57.7166
57.6917
57.6681
57.6459
57.6251
57.6058
57.588
57.5717
57.5569
57.5438
57.5323
57.5224
57.5142
57.5078
57.5031
57.5002
57.4991
57.4999
57.5025
57.507
57.5134
57.5218
57.5321
57.5444
57.5587
57.575
57.5934
57.6138
57.6363
57.6609
57.6877
57.7165
57.7475
57.7806
57.8159
57.8533
57.8929
57.9347
57.9787
58.0249
58.0733
58.1239
58.1768
58.2318
58.289
58.3484
58.41
58.4738
58.5397
58.6078
58.6781
58.7505
58.825
58.9016
58.9803
59.061
59.1438
59.2286
59.3153
59.4039
59.4945
59.5869
59.6811
59.777
59.8747
59.9741
60.075
60.1776
60.2816
60.3871
60.494
60.6022
60.7117
60.8223
60.9341
61.047
61.1608
61.2755
61.3911
61.5074
61.6245
61.7421
61.8603
61.9789
62.0979
62.2173
62.3368
62.4565
62.5763
62.6962
62.8159
62.9355
63.0549
63.1741
63.2929
63.4113
63.5293
63.6467
63.7635
63.8798
63.9951
64.1103
64.2232
64.3388
64.4453
64.5696
64.6513
64.8304
67.2037
67.2017
67.1977
67.1916
67.1835
67.1733
67.161
67.1466
67.1302
67.1116
67.0909
67.0681
67.043
67.0158
66.9864
66.9547
66.9207
66.8844
66.8458
66.8049
66.7616
66.7158
66.6676
66.617
66.5639
66.5083
66.4502
66.3896
66.3265
66.2608
66.1926
66.1219
66.0487
65.973
65.8948
65.8142
65.7311
65.6458
65.5581
65.4682
65.3762
65.282
65.1859
65.0878
64.988
64.8864
64.7833
64.6787
64.5728
64.4657
64.3575
64.2484
64.1386
64.0281
63.9171
63.8058
63.6943
63.5827
63.4713
63.3601
63.2492
63.1388
63.0291
62.92
62.8119
62.7047
62.5985
62.4934
62.3896
62.2871
62.186
62.0862
61.988
61.8912
61.796
61.7024
61.6104
61.52
61.4313
61.3441
61.2586
61.1747
61.0924
61.0117
60.9325
60.8548
60.7787
60.704
60.6307
60.5588
60.4882
60.419
60.351
60.2842
60.2185
60.154
60.0905
60.028
59.9665
59.906
59.8463
59.7874
59.7294
59.672
59.6154
59.5595
59.5042
59.4495
59.3954
59.3419
59.2889
59.2364
59.1844
59.1328
59.0817
59.0311
58.9808
58.9311
58.8817
58.8328
58.7843
58.7363
58.6887
58.6416
58.5949
58.5488
58.5031
58.458
58.4135
58.3695
58.3261
58.2834
58.2413
58.2
58.1593
58.1195
58.0804
58.0422
58.0048
57.9684
57.9329
57.8984
57.8649
57.8325
57.8012
57.771
57.7421
57.7144
57.6879
57.6628
57.639
57.6166
57.5956
57.576
57.558
57.5415
57.5266
57.5132
57.5015
57.4915
57.4831
57.4765
57.4717
57.4686
57.4674
57.468
57.4704
57.4748
57.4811
57.4893
57.4995
57.5117
57.5259
57.5421
57.5604
57.5807
57.6032
57.6277
57.6543
57.6831
57.714
57.747
57.7823
57.8197
57.8593
57.901
57.945
57.9912
58.0396
58.0902
58.143
58.198
58.2553
58.3147
58.3764
58.4402
58.5062
58.5744
58.6448
58.7173
58.7919
58.8686
58.9475
59.0284
59.1113
59.1962
59.2832
59.372
59.4628
59.5554
59.6499
59.7462
59.8441
59.9438
60.0451
60.148
60.2524
60.3583
60.4655
60.5742
60.684
60.7951
60.9074
61.0206
61.1349
61.2502
61.3662
61.483
61.6006
61.7187
61.8374
61.9566
62.0761
62.1959
62.316
62.4363
62.5566
62.677
62.7972
62.9174
63.0373
63.157
63.2763
63.3952
63.5137
63.6316
63.7489
63.8656
63.9814
64.0971
64.2104
64.3265
64.4334
64.5582
64.6402
64.8199
67.2037
67.2017
67.1978
67.1917
67.1835
67.1734
67.1611
67.1468
67.1304
67.1119
67.0913
67.0685
67.0435
67.0164
66.987
66.9553
66.9214
66.8852
66.8466
66.8056
66.7623
66.7165
66.6683
66.6176
66.5645
66.5088
66.4505
66.3897
66.3264
66.2604
66.1919
66.1209
66.0473
65.9711
65.8924
65.8113
65.7277
65.6417
65.5533
65.4627
65.3699
65.2749
65.1779
65.079
64.9782
64.8756
64.7715
64.6659
64.5589
64.4507
64.3415
64.2313
64.1204
64.0088
63.8967
63.7844
63.6718
63.5592
63.4468
63.3346
63.2229
63.1116
63.001
62.8912
62.7824
62.6745
62.5677
62.4621
62.3578
62.2548
62.1532
62.0532
61.9546
61.8576
61.7622
61.6685
61.5764
61.4859
61.3971
61.31
61.2245
61.1407
61.0585
60.978
60.899
60.8215
60.7456
60.6711
60.5981
60.5265
60.4562
60.3872
60.3195
60.253
60.1876
60.1234
60.0602
59.998
59.9368
59.8765
59.8171
59.7585
59.7007
59.6436
59.5872
59.5315
59.4764
59.4219
59.368
59.3145
59.2616
59.2092
59.1573
59.1058
59.0548
59.0041
58.9539
58.9041
58.8548
58.8058
58.7572
58.7091
58.6614
58.6142
58.5674
58.5211
58.4753
58.43
58.3853
58.3411
58.2975
58.2546
58.2123
58.1707
58.1298
58.0897
58.0503
58.0118
57.9742
57.9375
57.9017
57.867
57.8332
57.8005
57.769
57.7386
57.7093
57.6813
57.6546
57.6292
57.6052
57.5825
57.5612
57.5415
57.5232
57.5065
57.4913
57.4777
57.4658
57.4556
57.447
57.4402
57.4352
57.4319
57.4305
57.4309
57.4332
57.4374
57.4436
57.4517
57.4617
57.4738
57.4878
57.5039
57.5221
57.5423
57.5646
57.5891
57.6156
57.6443
57.6751
57.7081
57.7433
57.7806
57.8201
57.8619
57.9058
57.952
58.0004
58.051
58.1038
58.1588
58.2161
58.2756
58.3373
58.4012
58.4673
58.5356
58.606
58.6786
58.7534
58.8303
58.9093
58.9904
59.0735
59.1587
59.2458
59.3349
59.426
59.5189
59.6137
59.7102
59.8086
59.9086
60.0103
60.1136
60.2184
60.3247
60.4324
60.5415
60.6519
60.7635
60.8762
60.99
61.1049
61.2206
61.3372
61.4547
61.5728
61.6915
61.8108
61.9305
62.0507
62.1712
62.2919
62.4127
62.5337
62.6546
62.7755
62.8963
63.0168
63.1371
63.257
63.3765
63.4955
63.614
63.7319
63.8492
63.9655
64.0817
64.1955
64.3122
64.4195
64.5448
64.6272
64.8077
67.2037
67.2017
67.1978
67.1917
67.1836
67.1735
67.1613
67.1471
67.1307
67.1123
67.0917
67.069
67.0441
67.017
66.9877
66.9561
66.9222
66.8861
66.8475
66.8066
66.7633
66.7175
66.6692
66.6185
66.5652
66.5093
66.4509
66.3899
66.3263
66.2601
66.1913
66.1198
66.0458
65.9691
65.8899
65.8082
65.7239
65.6372
65.5481
65.4566
65.3629
65.267
65.169
65.069
64.9671
64.8634
64.7581
64.6513
64.5431
64.4337
64.3232
64.2118
64.0995
63.9867
63.8734
63.7598
63.6461
63.5323
63.4188
63.3055
63.1927
63.0805
62.9689
62.8583
62.7485
62.6399
62.5324
62.4261
62.3212
62.2178
62.1158
62.0153
61.9164
61.8191
61.7235
61.6296
61.5374
61.4469
61.3581
61.271
61.1856
61.1019
61.0199
60.9395
60.8607
60.7835
60.7079
60.6337
60.561
60.4896
60.4197
60.3511
60.2837
60.2175
60.1525
60.0886
60.0258
59.9639
59.9031
59.8431
59.784
59.7257
59.6681
59.6113
59.5552
59.4997
59.4448
59.3905
59.3368
59.2835
59.2308
59.1785
59.1266
59.0752
59.0242
58.9736
58.9234
58.8736
58.8242
58.7752
58.7265
58.6783
58.6305
58.5832
58.5362
58.4897
58.4438
58.3983
58.3533
58.3089
58.2651
58.2219
58.1793
58.1374
58.0963
58.0559
58.0162
57.9774
57.9395
57.9025
57.8664
57.8313
57.7973
57.7643
57.7324
57.7017
57.6721
57.6438
57.6168
57.5911
57.5668
57.5438
57.5223
57.5022
57.4837
57.4667
57.4512
57.4374
57.4252
57.4148
57.406
57.3989
57.3937
57.3902
57.3886
57.3888
57.3909
57.395
57.4009
57.4088
57.4187
57.4306
57.4445
57.4605
57.4785
57.4986
57.5208
57.5451
57.5716
57.6002
57.6309
57.6638
57.6989
57.7362
57.7757
57.8174
57.8613
57.9074
57.9558
58.0064
58.0592
58.1142
58.1715
58.231
58.2928
58.3568
58.4229
58.4913
58.5619
58.6347
58.7096
58.7866
58.8658
58.9471
59.0304
59.1158
59.2033
59.2927
59.384
59.4773
59.5724
59.6693
59.768
59.8685
59.9706
60.0743
60.1796
60.2864
60.3947
60.5043
60.6152
60.7274
60.8407
60.9551
61.0706
61.187
61.3042
61.4223
61.5411
61.6605
61.7805
61.9009
62.0218
62.1429
62.2643
62.3859
62.5075
62.6292
62.7508
62.8722
62.9935
63.1144
63.235
63.3552
63.4749
63.594
63.7125
63.8305
63.9474
64.0643
64.1786
64.2959
64.4038
64.5297
64.6125
64.7938
67.2037
67.2018
67.1978
67.1918
67.1837
67.1737
67.1615
67.1474
67.1311
67.1127
67.0922
67.0696
67.0448
67.0178
66.9886
66.9571
66.9233
66.8871
66.8486
66.8077
66.7644
66.7186
66.6703
66.6195
66.5661
66.5101
66.4515
66.3903
66.3265
66.2599
66.1907
66.1188
66.0443
65.9671
65.8873
65.8049
65.7199
65.6323
65.5423
65.4499
65.3552
65.2582
65.1591
65.0579
64.9548
64.8498
64.7432
64.635
64.5255
64.4146
64.3027
64.1898
64.0762
63.9619
63.8472
63.7322
63.6171
63.502
63.3872
63.2727
63.1587
63.0453
62.9327
62.821
62.7104
62.6009
62.4926
62.3856
62.2801
62.176
62.0735
61.9726
61.8734
61.7758
61.68
61.5859
61.4936
61.403
61.3142
61.2272
61.1419
61.0584
60.9765
60.8963
60.8178
60.7409
60.6655
60.5917
60.5193
60.4484
60.3788
60.3105
60.2436
60.1778
60.1132
60.0497
59.9872
59.9258
59.8653
59.8057
59.7469
59.689
59.6318
59.5753
59.5194
59.4642
59.4096
59.3555
59.302
59.2489
59.1963
59.1441
59.0924
59.0411
58.9901
58.9396
58.8894
58.8396
58.7901
58.741
58.6923
58.644
58.5961
58.5486
58.5015
58.4548
58.4086
58.3629
58.3177
58.273
58.2289
58.1854
58.1426
58.1004
58.0589
58.0182
57.9782
57.9391
57.9008
57.8634
57.827
57.7916
57.7571
57.7238
57.6916
57.6605
57.6306
57.602
57.5746
57.5485
57.5239
57.5006
57.4787
57.4584
57.4395
57.4222
57.4065
57.3924
57.3799
57.3692
57.3601
57.3528
57.3473
57.3436
57.3418
57.3418
57.3437
57.3475
57.3533
57.361
57.3707
57.3824
57.3962
57.412
57.4298
57.4498
57.4719
57.4961
57.5224
57.5508
57.5815
57.6143
57.6493
57.6865
57.7259
57.7676
57.8114
57.8575
57.9059
57.9564
58.0093
58.0643
58.1216
58.1812
58.243
58.307
58.3733
58.4418
58.5125
58.5854
58.6605
58.7377
58.8171
58.8986
58.9822
59.0679
59.1556
59.2453
59.337
59.4306
59.5261
59.6234
59.7226
59.8235
59.9261
60.0303
60.1362
60.2435
60.3523
60.4625
60.5741
60.6869
60.8009
60.916
61.0321
61.1492
61.2672
61.386
61.5056
61.6257
61.7465
61.8677
61.9893
62.1113
62.2335
62.3558
62.4783
62.6007
62.7231
62.8453
62.9674
63.0891
63.2104
63.3314
63.4518
63.5717
63.6909
63.8096
63.9272
64.0447
64.1598
64.2777
64.3862
64.5128
64.596
64.7783
67.2037
67.2018
67.1979
67.1919
67.1839
67.1738
67.1618
67.1477
67.1315
67.1132
67.0929
67.0703
67.0456
67.0187
66.9896
66.9582
66.9245
66.8884
66.85
66.8091
66.7658
66.72
66.6717
66.6208
66.5673
66.5112
66.4524
66.391
66.3268
66.2599
66.1903
66.118
66.0429
65.9651
65.8846
65.8014
65.7156
65.6272
65.5362
65.4428
65.3469
65.2487
65.1483
65.0458
64.9413
64.8349
64.7268
64.6171
64.506
64.3935
64.28
64.1655
64.0502
63.9343
63.818
63.7015
63.5848
63.4683
63.352
63.2361
63.1208
63.0061
62.8924
62.7796
62.6679
62.5574
62.4482
62.3405
62.2342
62.1295
62.0265
61.9251
61.8255
61.7276
61.6315
61.5373
61.4448
61.3542
61.2655
61.1785
61.0934
61.01
60.9284
60.8485
60.7702
60.6936
60.6186
60.5452
60.4732
60.4027
60.3335
60.2657
60.1992
60.1339
60.0698
60.0067
59.9447
59.8837
59.8237
59.7645
59.7061
59.6486
59.5917
59.5356
59.4801
59.4252
59.3708
59.317
59.2637
59.2108
59.1584
59.1064
59.0548
59.0036
58.9527
58.9022
58.852
58.8022
58.7527
58.7035
58.6547
58.6063
58.5582
58.5105
58.4632
58.4164
58.3699
58.324
58.2785
58.2335
58.1891
58.1453
58.1021
58.0596
58.0178
57.9767
57.9363
57.8968
57.8582
57.8204
57.7836
57.7478
57.713
57.6792
57.6466
57.6151
57.5849
57.5558
57.5281
57.5017
57.4766
57.453
57.4308
57.41
57.3908
57.3732
57.3571
57.3427
57.33
57.3189
57.3096
57.302
57.2962
57.2923
57.2902
57.2899
57.2916
57.2952
57.3007
57.3082
57.3178
57.3293
57.3428
57.3585
57.3762
57.396
57.4179
57.4419
57.4681
57.4965
57.527
57.5597
57.5946
57.6317
57.671
57.7126
57.7564
57.8025
57.8508
57.9013
57.9542
58.0092
58.0666
58.1262
58.188
58.2521
58.3185
58.3871
58.4579
58.531
58.6062
58.6837
58.7633
58.845
58.9289
59.0148
59.1028
59.1929
59.2849
59.3789
59.4749
59.5727
59.6723
59.7737
59.8768
59.9816
60.0881
60.196
60.3055
60.4163
60.5286
60.6421
60.7568
60.8726
60.9896
61.1075
61.2263
61.3459
61.4662
61.5873
61.7089
61.8309
61.9534
62.0763
62.1994
62.3226
62.4459
62.5692
62.6925
62.8156
62.9385
63.0611
63.1833
63.3051
63.4263
63.547
63.667
63.7865
63.9049
64.0232
64.139
64.2576
64.3668
64.4942
64.5779
64.7612
67.2037
67.2018
67.1979
67.192
67.184
67.1741
67.1621
67.1481
67.132
67.1138
67.0936
67.0712
67.0466
67.0198
66.9908
66.9595
66.9259
66.8899
66.8516
66.8108
66.7675
66.7217
66.6734
66.6225
66.5689
66.5126
66.4537
66.392
66.3275
66.2603
66.1902
66.1174
66.0417
65.9633
65.882
65.798
65.7113
65.6219
65.5298
65.4352
65.3381
65.2386
65.1368
65.0328
64.9268
64.8188
64.709
64.5976
64.4847
64.3704
64.2551
64.1388
64.0217
63.904
63.786
63.6677
63.5493
63.4311
63.3132
63.1957
63.0789
62.9629
62.8478
62.7338
62.621
62.5094
62.3993
62.2907
62.1836
62.0783
61.9746
61.8727
61.7727
61.6745
61.5782
61.4837
61.3912
61.3006
61.2119
61.125
61.04
60.9569
60.8755
60.7959
60.718
60.6418
60.5672
60.4942
60.4227
60.3527
60.284
60.2167
60.1507
60.0859
60.0223
59.9598
59.8983
59.8378
59.7782
59.7195
59.6617
59.6045
59.5481
59.4924
59.4372
59.3827
59.3287
59.2751
59.2221
59.1695
59.1173
59.0654
59.014
58.9628
58.9121
58.8616
58.8114
58.7616
58.7121
58.6628
58.6139
58.5654
58.5171
58.4692
58.4217
58.3746
58.3279
58.2817
58.2359
58.1906
58.1459
58.1018
58.0582
58.0153
57.9731
57.9316
57.8908
57.8509
57.8118
57.7736
57.7364
57.7001
57.6649
57.6307
57.5976
57.5657
57.535
57.5056
57.4774
57.4506
57.4251
57.4011
57.3785
57.3574
57.3378
57.3198
57.3034
57.2887
57.2756
57.2642
57.2545
57.2467
57.2406
57.2363
57.2339
57.2334
57.2348
57.2382
57.2435
57.2508
57.26
57.2714
57.2847
57.3002
57.3177
57.3373
57.359
57.3829
57.409
57.4372
57.4675
57.5001
57.5349
57.572
57.6112
57.6527
57.6964
57.7424
57.7907
57.8412
57.894
57.9491
58.0065
58.0661
58.128
58.1922
58.2587
58.3274
58.3983
58.4715
58.5469
58.6246
58.7044
58.7864
58.8705
58.9568
59.0452
59.1356
59.228
59.3225
59.4189
59.5171
59.6173
59.7192
59.8229
59.9283
60.0354
60.144
60.2542
60.3658
60.4787
60.593
60.7085
60.8252
60.943
61.0617
61.1814
61.3019
61.4232
61.5452
61.6677
61.7907
61.9142
62.038
62.162
62.2862
62.4105
62.5348
62.659
62.7831
62.9069
63.0305
63.1536
63.2763
63.3985
63.5201
63.641
63.7613
63.8805
63.9997
64.1162
64.2357
64.3456
64.4739
64.5581
64.7426
67.2037
67.2018
67.1979
67.1921
67.1842
67.1743
67.1624
67.1485
67.1326
67.1145
67.0944
67.0721
67.0477
67.0211
66.9922
66.9611
66.9276
66.8917
66.8535
66.8128
66.7696
66.7238
66.6755
66.6245
66.5708
66.5144
66.4553
66.3933
66.3286
66.2609
66.1905
66.1171
66.0408
65.9617
65.8796
65.7947
65.707
65.6165
65.5233
65.4274
65.3289
65.2279
65.1246
65.019
64.9112
64.8014
64.6898
64.5765
64.4616
64.3454
64.2281
64.1098
63.9907
63.871
63.751
63.6307
63.5105
63.3904
63.2707
63.1516
63.0332
62.9156
62.7991
62.6837
62.5696
62.4569
62.3457
62.2362
62.1283
62.0222
61.9179
61.8155
61.715
61.6165
61.5199
61.4253
61.3327
61.2421
61.1534
61.0667
60.9819
60.899
60.818
60.7387
60.6613
60.5855
60.5114
60.4389
60.3679
60.2984
60.2304
60.1636
60.0982
60.034
59.971
59.909
59.8481
59.7882
59.7292
59.671
59.6136
59.557
59.5011
59.4458
59.3911
59.3369
59.2832
59.23
59.1773
59.1249
59.073
59.0213
58.97
58.919
58.8683
58.8179
58.7678
58.7179
58.6684
58.6191
58.57
58.5213
58.4729
58.4248
58.3771
58.3297
58.2828
58.2362
58.1901
58.1445
58.0994
58.0549
58.0109
57.9676
57.9249
57.883
57.8418
57.8014
57.7619
57.7232
57.6855
57.6488
57.6131
57.5784
57.5449
57.5125
57.4814
57.4514
57.4228
57.3955
57.3696
57.3452
57.3221
57.3006
57.2806
57.2622
57.2455
57.2303
57.2169
57.2051
57.1951
57.1869
57.1805
57.176
57.1733
57.1725
57.1736
57.1767
57.1817
57.1887
57.1978
57.2089
57.222
57.2372
57.2545
57.274
57.2955
57.3192
57.3451
57.3732
57.4034
57.4359
57.4705
57.5074
57.5466
57.588
57.6316
57.6776
57.7258
57.7763
57.8291
57.8841
57.9415
58.0012
58.0631
58.1274
58.1939
58.2628
58.3338
58.4072
58.4828
58.5607
58.6407
58.723
58.8074
58.894
58.9827
59.0735
59.1664
59.2613
59.3581
59.4569
59.5576
59.6602
59.7645
59.8706
59.9783
60.0876
60.1985
60.3109
60.4247
60.5398
60.6562
60.7738
60.8924
61.0121
61.1328
61.2543
61.3765
61.4995
61.6231
61.7471
61.8716
61.9965
62.1216
62.2468
62.3722
62.4975
62.6228
62.7479
62.8728
62.9973
63.1215
63.2452
63.3683
63.4909
63.6128
63.734
63.8542
63.9742
64.0917
64.212
64.3228
64.4519
64.5368
64.7225
67.2037
67.2018
67.198
67.1922
67.1844
67.1746
67.1628
67.149
67.1332
67.1153
67.0954
67.0733
67.049
67.0225
66.9938
66.9629
66.9295
66.8938
66.8557
66.8151
66.772
66.7263
66.678
66.627
66.5732
66.5167
66.4574
66.3952
66.3301
66.2621
66.1911
66.1172
66.0403
65.9604
65.8775
65.7916
65.7028
65.6112
65.5167
65.4194
65.3194
65.2168
65.1118
65.0043
64.8947
64.7829
64.6693
64.5539
64.4369
64.3185
64.199
64.0784
63.9571
63.8353
63.713
63.5907
63.4683
63.3463
63.2246
63.1036
62.9834
62.8642
62.746
62.6292
62.5137
62.3998
62.2875
62.1769
62.0682
61.9613
61.8563
61.7534
61.6524
61.5535
61.4567
61.362
61.2693
61.1787
61.0902
61.0037
60.9191
60.8365
60.7559
60.677
60.6
60.5248
60.4512
60.3793
60.3089
60.2401
60.1726
60.1066
60.0418
59.9782
59.9159
59.8546
59.7943
59.735
59.6766
59.619
59.5622
59.5062
59.4507
59.3959
59.3417
59.288
59.2347
59.1819
59.1295
59.0774
59.0257
58.9743
58.9232
58.8723
58.8217
58.7714
58.7213
58.6714
58.6218
58.5724
58.5233
58.4744
58.4258
58.3775
58.3296
58.2819
58.2346
58.1878
58.1413
58.0953
58.0498
58.0049
57.9605
57.9167
57.8736
57.8312
57.7895
57.7486
57.7086
57.6694
57.6312
57.5939
57.5577
57.5225
57.4885
57.4556
57.424
57.3936
57.3645
57.3367
57.3103
57.2854
57.2619
57.2399
57.2195
57.2007
57.1835
57.168
57.1541
57.142
57.1316
57.1231
57.1163
57.1114
57.1084
57.1073
57.1081
57.1109
57.1157
57.1225
57.1312
57.1421
57.155
57.17
57.1871
57.2063
57.2277
57.2512
57.2769
57.3048
57.3348
57.3671
57.4017
57.4385
57.4775
57.5188
57.5624
57.6082
57.6564
57.7068
57.7596
57.8146
57.872
57.9317
57.9937
58.058
58.1246
58.1935
58.2648
58.3383
58.4141
58.4921
58.5724
58.655
58.7397
58.8266
58.9157
59.0069
59.1002
59.1956
59.2929
59.3923
59.4936
59.5967
59.7017
59.8084
59.9169
60.027
60.1387
60.2519
60.3666
60.4826
60.5999
60.7184
60.8381
60.9588
61.0804
61.203
61.3263
61.4504
61.575
61.7002
61.8259
61.9518
62.0781
62.2045
62.331
62.4574
62.5838
62.7101
62.8361
62.9617
63.087
63.2118
63.336
63.4596
63.5825
63.7048
63.826
63.947
64.0654
64.1867
64.2983
64.4284
64.514
64.701
67.2037
67.2018
67.1981
67.1923
67.1846
67.1749
67.1633
67.1496
67.134
67.1162
67.0965
67.0745
67.0505
67.0242
66.9957
66.9649
66.9318
66.8963
66.8583
66.8179
66.7749
66.7293
66.681
66.63
66.5762
66.5196
66.4601
66.3976
66.3322
66.2638
66.1924
66.1178
66.0402
65.9595
65.8757
65.7889
65.6989
65.606
65.5101
65.4113
65.3097
65.2054
65.0985
64.9891
64.8774
64.7635
64.6476
64.5299
64.4105
64.2898
64.1678
64.0448
63.9211
63.7968
63.6722
63.5475
63.4228
63.2986
63.1748
63.0517
62.9296
62.8085
62.6887
62.5703
62.4533
62.3381
62.2246
62.1129
62.0032
61.8955
61.7898
61.6863
61.5849
61.4857
61.3886
61.2938
61.2011
61.1105
61.0221
60.9358
60.8516
60.7694
60.6892
60.6108
60.5344
60.4597
60.3868
60.3155
60.2458
60.1777
60.1109
60.0456
59.9816
59.9188
59.8571
59.7966
59.737
59.6784
59.6207
59.5638
59.5076
59.4522
59.3973
59.3431
59.2894
59.2361
59.1833