/*--------------------------------*- C++ -*----------------------------------*\
| =========                 |                                                 |
| \\      /  F ield         | OpenFOAM: The Open Source CFD Toolbox           |
|  \\    /   O peration     | Version:  2306                                  |
|   \\  /    A nd           | Website:  www.openfoam.com                      |
|    \\/     M anipulation  |                                                 |
\*---------------------------------------------------------------------------*/
FoamFile
{
    version     2.0;
    format      ascii;
    arch        "LSB;label=32;scalar=64";
    class       volScalarField;
    location    "12.5";
    object      p;
}
// * * * * * * * * * * * * * * * * * * * * * * * * * * * * * * * * * * * * * //

dimensions      [0 2 -2 0 0 0 0];

internalField   nonuniform List<scalar> 
32768
(
0.356402
0.356269
0.355981
0.355526
0.354906
0.354124
0.353178
0.352068
0.35079
0.349344
0.347728
0.345939
0.343975
0.341833
0.339512
0.337007
0.334317
0.331437
0.328366
0.325099
0.321634
0.317966
0.314094
0.310013
0.30572
0.301212
0.296486
0.291539
0.286369
0.280972
0.275347
0.269492
0.263406
0.257086
0.250533
0.243746
0.236725
0.229471
0.221986
0.214271
0.206329
0.198164
0.18978
0.18118
0.172371
0.163358
0.15415
0.144752
0.135173
0.125423
0.11551
0.105445
0.0952389
0.0849021
0.0744465
0.0638841
0.0532271
0.042488
0.0316797
0.0208149
0.00990635
-0.00103303
-0.0119906
-0.0229539
-0.0339106
-0.0448488
-0.0557569
-0.0666239
-0.0774391
-0.0881923
-0.098874
-0.109475
-0.119988
-0.130404
-0.140716
-0.150919
-0.161007
-0.170974
-0.180816
-0.190531
-0.200114
-0.209563
-0.218878
-0.228056
-0.237097
-0.246002
-0.254771
-0.263404
-0.271903
-0.280271
-0.288509
-0.296619
-0.304605
-0.31247
-0.320216
-0.327848
-0.335368
-0.342781
-0.35009
-0.3573
-0.364413
-0.371434
-0.378366
-0.385214
-0.391979
-0.398667
-0.40528
-0.411822
-0.418294
-0.424701
-0.431043
-0.437325
-0.443546
-0.44971
-0.455818
-0.461871
-0.467869
-0.473813
-0.479705
-0.485542
-0.491327
-0.497056
-0.502731
-0.50835
-0.513911
-0.519412
-0.524852
-0.530229
-0.53554
-0.540781
-0.545952
-0.551047
-0.556065
-0.561
-0.565851
-0.570612
-0.57528
-0.579851
-0.58432
-0.588683
-0.592935
-0.597073
-0.601091
-0.604985
-0.60875
-0.612381
-0.615875
-0.619225
-0.622428
-0.625479
-0.628373
-0.631106
-0.633673
-0.63607
-0.638293
-0.640338
-0.6422
-0.643875
-0.645361
-0.646652
-0.647746
-0.648639
-0.649328
-0.649809
-0.650081
-0.650139
-0.649982
-0.649606
-0.64901
-0.648192
-0.647149
-0.645879
-0.644382
-0.642656
-0.640699
-0.638511
-0.636091
-0.633437
-0.630551
-0.627431
-0.624077
-0.620491
-0.616671
-0.612619
-0.608336
-0.603822
-0.59908
-0.59411
-0.588914
-0.583495
-0.577854
-0.571994
-0.565919
-0.55963
-0.553131
-0.546426
-0.539518
-0.532412
-0.525111
-0.517621
-0.509946
-0.502092
-0.494063
-0.485865
-0.477505
-0.468987
-0.460319
-0.451508
-0.442559
-0.43348
-0.424278
-0.414961
-0.405536
-0.39601
-0.386392
-0.37669
-0.366911
-0.357064
-0.347156
-0.337197
-0.327195
-0.317157
-0.307092
-0.297008
-0.286914
-0.276817
-0.266726
-0.256648
-0.246591
-0.236563
-0.22657
-0.216621
-0.206722
-0.19688
-0.187102
-0.177393
-0.167759
-0.158208
-0.148743
-0.13937
-0.130094
-0.120921
-0.111853
-0.102895
-0.0940513
-0.0853253
-0.0767193
-0.0682386
-0.0598806
-0.0516597
-0.0435513
-0.0356177
-0.0277244
-0.0201742
-0.0122582
-0.00541104
0.356562
0.356429
0.356141
0.355687
0.355068
0.354286
0.353341
0.352231
0.350955
0.34951
0.347894
0.346106
0.344144
0.342003
0.339683
0.33718
0.33449
0.331612
0.328542
0.325276
0.321811
0.318145
0.314272
0.310192
0.305899
0.301391
0.296664
0.291717
0.286545
0.281147
0.27552
0.269662
0.263573
0.25725
0.250692
0.2439
0.236874
0.229615
0.222123
0.214401
0.206452
0.198279
0.189885
0.181276
0.172457
0.163434
0.154214
0.144805
0.135214
0.125452
0.115526
0.105449
0.0952294
0.0848795
0.0744108
0.0638353
0.0531653
0.0424135
0.0315926
0.0207154
0.009795
-0.00115588
-0.0121245
-0.0230983
-0.0340649
-0.0450125
-0.0559293
-0.0668043
-0.0776268
-0.0883867
-0.0990743
-0.109681
-0.120198
-0.130618
-0.140933
-0.151138
-0.161228
-0.171196
-0.181038
-0.190752
-0.200335
-0.209783
-0.219095
-0.228271
-0.23731
-0.246211
-0.254976
-0.263606
-0.272101
-0.280464
-0.288697
-0.296802
-0.304783
-0.312642
-0.320384
-0.32801
-0.335525
-0.342933
-0.350237
-0.357441
-0.364549
-0.371565
-0.378493
-0.385336
-0.392097
-0.398781
-0.40539
-0.411927
-0.418396
-0.424799
-0.431139
-0.437418
-0.443637
-0.449799
-0.455905
-0.461956
-0.467953
-0.473897
-0.479787
-0.485625
-0.491409
-0.497139
-0.502815
-0.508434
-0.513996
-0.519499
-0.524941
-0.530319
-0.535632
-0.540876
-0.546049
-0.551147
-0.556167
-0.561106
-0.565959
-0.570724
-0.575395
-0.579969
-0.584442
-0.588808
-0.593065
-0.597206
-0.601228
-0.605125
-0.608894
-0.61253
-0.616027
-0.619381
-0.622588
-0.625642
-0.62854
-0.631276
-0.633847
-0.636248
-0.638475
-0.640523
-0.642388
-0.644067
-0.645556
-0.64685
-0.647947
-0.648843
-0.649535
-0.650019
-0.650294
-0.650355
-0.6502
-0.649827
-0.649233
-0.648417
-0.647376
-0.646109
-0.644614
-0.64289
-0.640935
-0.638749
-0.63633
-0.633679
-0.630794
-0.627675
-0.624323
-0.620738
-0.616919
-0.612869
-0.608586
-0.604074
-0.599332
-0.594363
-0.589168
-0.583749
-0.578108
-0.572249
-0.566173
-0.559884
-0.553385
-0.546679
-0.539771
-0.532664
-0.525362
-0.517871
-0.510195
-0.502339
-0.494308
-0.486109
-0.477746
-0.469226
-0.460556
-0.451741
-0.44279
-0.433708
-0.424503
-0.415182
-0.405753
-0.396223
-0.386601
-0.376894
-0.367111
-0.357259
-0.347347
-0.337383
-0.327375
-0.317332
-0.307261
-0.297172
-0.287073
-0.27697
-0.266873
-0.25679
-0.246727
-0.236693
-0.226695
-0.21674
-0.206835
-0.196987
-0.187203
-0.177488
-0.167849
-0.158292
-0.148822
-0.139444
-0.130163
-0.120984
-0.111911
-0.102948
-0.0940994
-0.0853687
-0.0767579
-0.0682728
-0.0599102
-0.0516853
-0.043572
-0.0356356
-0.0277345
-0.0201865
-0.012249
-0.00543665
0.356883
0.356751
0.356463
0.356009
0.355391
0.354611
0.353667
0.352559
0.351284
0.349841
0.348228
0.346442
0.344482
0.342344
0.340026
0.337525
0.334838
0.331962
0.328894
0.32563
0.322167
0.318502
0.314631
0.31055
0.306258
0.301749
0.297022
0.292072
0.286898
0.281497
0.275866
0.270003
0.263908
0.257577
0.251012
0.244211
0.237174
0.229903
0.222398
0.214663
0.206698
0.198508
0.190096
0.181468
0.172629
0.163585
0.154343
0.144911
0.135297
0.125509
0.115559
0.105456
0.0952102
0.0848341
0.0743391
0.0637373
0.0530413
0.0422637
0.0314175
0.0205157
0.00957137
-0.00140262
-0.0123934
-0.0233882
-0.0343749
-0.0453412
-0.0562755
-0.0671666
-0.0780038
-0.088777
-0.0994765
-0.110093
-0.120619
-0.131047
-0.141368
-0.151578
-0.161671
-0.171641
-0.181484
-0.191197
-0.200778
-0.210223
-0.219532
-0.228703
-0.237736
-0.246631
-0.255388
-0.26401
-0.272496
-0.28085
-0.289074
-0.297169
-0.30514
-0.312989
-0.320719
-0.328335
-0.33584
-0.343237
-0.35053
-0.357724
-0.364822
-0.371828
-0.378746
-0.38558
-0.392332
-0.399007
-0.405608
-0.412138
-0.4186
-0.424997
-0.431331
-0.437604
-0.443819
-0.449977
-0.456079
-0.462127
-0.468122
-0.474064
-0.479953
-0.48579
-0.491574
-0.497305
-0.502981
-0.508602
-0.514166
-0.519672
-0.525117
-0.530499
-0.535816
-0.541065
-0.546242
-0.551346
-0.556371
-0.561316
-0.566176
-0.570947
-0.575625
-0.580206
-0.584686
-0.58906
-0.593323
-0.597472
-0.601502
-0.605407
-0.609183
-0.612826
-0.616331
-0.619693
-0.622907
-0.625969
-0.628875
-0.631619
-0.634197
-0.636605
-0.638838
-0.640893
-0.642766
-0.644451
-0.645946
-0.647247
-0.648351
-0.649253
-0.64995
-0.65044
-0.65072
-0.650786
-0.650637
-0.650269
-0.64968
-0.648869
-0.647832
-0.64657
-0.645079
-0.643359
-0.641408
-0.639225
-0.63681
-0.634162
-0.63128
-0.628165
-0.624816
-0.621233
-0.617417
-0.613368
-0.609088
-0.604577
-0.599837
-0.594869
-0.589675
-0.584257
-0.578618
-0.572758
-0.566683
-0.560393
-0.553894
-0.547187
-0.540278
-0.533169
-0.525866
-0.518372
-0.510693
-0.502834
-0.4948
-0.486597
-0.47823
-0.469705
-0.46103
-0.45221
-0.443252
-0.434164
-0.424952
-0.415624
-0.406187
-0.39665
-0.387019
-0.377304
-0.367511
-0.35765
-0.347728
-0.337754
-0.327736
-0.317682
-0.307601
-0.297501
-0.287391
-0.277277
-0.267169
-0.257073
-0.246999
-0.236954
-0.226944
-0.216977
-0.207061
-0.197202
-0.187406
-0.17768
-0.16803
-0.158461
-0.14898
-0.139591
-0.1303
-0.12111
-0.112027
-0.103054
-0.0941959
-0.0854556
-0.0768355
-0.0683413
-0.0599698
-0.0517364
-0.0436145
-0.0356701
-0.0277601
-0.0202059
-0.0122588
-0.00544986
0.357364
0.357233
0.356946
0.356493
0.355876
0.355097
0.354156
0.35305
0.351778
0.350338
0.348728
0.346946
0.344989
0.342855
0.34054
0.338043
0.33536
0.332487
0.329422
0.326161
0.322701
0.319038
0.315168
0.311089
0.306796
0.302287
0.297558
0.292607
0.287429
0.282023
0.276386
0.270516
0.264411
0.25807
0.251492
0.244677
0.237625
0.230336
0.222813
0.215055
0.207068
0.198853
0.190415
0.181758
0.172889
0.163813
0.154537
0.14507
0.13542
0.125596
0.115607
0.105465
0.0951809
0.0847652
0.0742305
0.0635892
0.0528539
0.0420375
0.0311533
0.0202144
0.00923398
-0.00177478
-0.0127989
-0.0238255
-0.0348421
-0.0458366
-0.0567971
-0.0677125
-0.0785718
-0.0893649
-0.100082
-0.110715
-0.121254
-0.131692
-0.142023
-0.15224
-0.162337
-0.17231
-0.182154
-0.191867
-0.201444
-0.210885
-0.220188
-0.229352
-0.238376
-0.247261
-0.256007
-0.264617
-0.27309
-0.28143
-0.289639
-0.29772
-0.305675
-0.313509
-0.321223
-0.328823
-0.336311
-0.343692
-0.35097
-0.358148
-0.365231
-0.372222
-0.379126
-0.385945
-0.392684
-0.399347
-0.405936
-0.412455
-0.418906
-0.425293
-0.431618
-0.437883
-0.444091
-0.450242
-0.456339
-0.462383
-0.468374
-0.474313
-0.480201
-0.486037
-0.491821
-0.497552
-0.503231
-0.508854
-0.514422
-0.519931
-0.525381
-0.530769
-0.536092
-0.541347
-0.546532
-0.551644
-0.556678
-0.561632
-0.566501
-0.571282
-0.57597
-0.580561
-0.585052
-0.589437
-0.593711
-0.597872
-0.601912
-0.605829
-0.609617
-0.613272
-0.616788
-0.620162
-0.623387
-0.626461
-0.629377
-0.632133
-0.634722
-0.63714
-0.639385
-0.64145
-0.643332
-0.645028
-0.646533
-0.647844
-0.648956
-0.649867
-0.650574
-0.651072
-0.65136
-0.651435
-0.651293
-0.650933
-0.650351
-0.649547
-0.648517
-0.647261
-0.645777
-0.644063
-0.642118
-0.639941
-0.637531
-0.634888
-0.632011
-0.6289
-0.625555
-0.621976
-0.618164
-0.614119
-0.609842
-0.605334
-0.600596
-0.59563
-0.590438
-0.585021
-0.579382
-0.573524
-0.567448
-0.561159
-0.554658
-0.54795
-0.541039
-0.533928
-0.526622
-0.519125
-0.511442
-0.503578
-0.495539
-0.48733
-0.478956
-0.470425
-0.461742
-0.452914
-0.443947
-0.434849
-0.425627
-0.416289
-0.406841
-0.397291
-0.387648
-0.37792
-0.368113
-0.358238
-0.348302
-0.338313
-0.328279
-0.31821
-0.308113
-0.297996
-0.287869
-0.277738
-0.267613
-0.2575
-0.247409
-0.237345
-0.227318
-0.217334
-0.2074
-0.197524
-0.187711
-0.177968
-0.168301
-0.158715
-0.149218
-0.139813
-0.130505
-0.1213
-0.112202
-0.103214
-0.0943408
-0.0855861
-0.0769521
-0.0684442
-0.0600594
-0.0518131
-0.0436785
-0.0357221
-0.0277999
-0.0202355
-0.012276
-0.00546032
0.358006
0.357874
0.357588
0.357137
0.356522
0.355746
0.354807
0.353705
0.352437
0.351001
0.349395
0.347617
0.345665
0.343536
0.341226
0.338734
0.336055
0.333188
0.330127
0.32687
0.323413
0.319753
0.315886
0.311808
0.307516
0.303006
0.298276
0.293321
0.288138
0.282726
0.277081
0.271201
0.265084
0.258729
0.252135
0.245302
0.238229
0.230917
0.223367
0.215581
0.207563
0.199314
0.19084
0.182146
0.173236
0.164117
0.154797
0.145283
0.135585
0.125711
0.115672
0.105478
0.0951405
0.0846718
0.0740839
0.0633894
0.0526014
0.0417331
0.0307978
0.0198091
0.00878038
-0.00227498
-0.0133437
-0.0244128
-0.0354697
-0.0465018
-0.0574974
-0.0684451
-0.0793339
-0.0901537
-0.100895
-0.111548
-0.122105
-0.132558
-0.142901
-0.153126
-0.16323
-0.173206
-0.183052
-0.192763
-0.202337
-0.211772
-0.221066
-0.23022
-0.239232
-0.248103
-0.256835
-0.265428
-0.273884
-0.282205
-0.290395
-0.298456
-0.30639
-0.314202
-0.321896
-0.329474
-0.336941
-0.3443
-0.351557
-0.358714
-0.365776
-0.372747
-0.379631
-0.386432
-0.393153
-0.399799
-0.406372
-0.412875
-0.419313
-0.425687
-0.432
-0.438254
-0.444452
-0.450595
-0.456685
-0.462722
-0.468709
-0.474644
-0.48053
-0.486365
-0.492149
-0.497882
-0.503562
-0.509189
-0.514761
-0.520276
-0.525733
-0.531128
-0.536459
-0.541724
-0.546919
-0.552041
-0.557087
-0.562052
-0.566934
-0.571728
-0.57643
-0.581035
-0.58554
-0.58994
-0.594229
-0.598405
-0.602461
-0.606393
-0.610197
-0.613867
-0.617399
-0.620787
-0.624029
-0.627117
-0.630049
-0.632819
-0.635423
-0.637856
-0.640114
-0.642194
-0.64409
-0.645799
-0.647317
-0.64864
-0.649765
-0.650688
-0.651406
-0.651917
-0.652216
-0.652301
-0.652169
-0.651819
-0.651248
-0.650453
-0.649432
-0.648185
-0.646709
-0.645003
-0.643066
-0.640896
-0.638493
-0.635857
-0.632987
-0.629882
-0.626542
-0.622969
-0.619162
-0.615121
-0.610848
-0.606344
-0.60161
-0.596647
-0.591457
-0.586042
-0.580404
-0.574547
-0.568471
-0.562181
-0.55568
-0.54897
-0.542056
-0.534942
-0.527632
-0.520131
-0.512443
-0.504573
-0.496527
-0.48831
-0.479928
-0.471387
-0.462694
-0.453855
-0.444877
-0.435766
-0.42653
-0.417177
-0.407714
-0.398149
-0.388489
-0.378743
-0.368919
-0.359024
-0.349069
-0.339059
-0.329005
-0.318915
-0.308796
-0.298658
-0.288508
-0.278355
-0.268206
-0.258071
-0.247956
-0.237869
-0.227819
-0.217811
-0.207854
-0.197954
-0.188118
-0.178352
-0.168663
-0.159055
-0.149536
-0.140109
-0.13078
-0.121554
-0.112435
-0.103427
-0.0945344
-0.0857606
-0.0771079
-0.0685818
-0.0601792
-0.0519157
-0.0437642
-0.0357918
-0.0278535
-0.0202748
-0.0122989
-0.00547254
0.358806
0.358675
0.35839
0.357941
0.357329
0.356555
0.35562
0.354522
0.353259
0.351828
0.350228
0.348456
0.34651
0.344387
0.342084
0.339598
0.336925
0.334064
0.331009
0.327757
0.324305
0.320649
0.316784
0.312709
0.308417
0.303907
0.299174
0.294216
0.289028
0.283608
0.277953
0.27206
0.265929
0.259557
0.252943
0.246086
0.238987
0.231645
0.224063
0.216242
0.208185
0.199895
0.191375
0.182633
0.173672
0.164499
0.155123
0.145551
0.135791
0.125855
0.115751
0.105492
0.0950882
0.0845526
0.0738975
0.0631361
0.0522817
0.0413479
0.0303483
0.0192969
0.00820729
-0.00290669
-0.0140316
-0.0251541
-0.0362614
-0.0473409
-0.0583805
-0.0693687
-0.0802944
-0.0911474
-0.101918
-0.112597
-0.123176
-0.133648
-0.144005
-0.154242
-0.164353
-0.174333
-0.18418
-0.193889
-0.203457
-0.212884
-0.222168
-0.231309
-0.240306
-0.24916
-0.257872
-0.266445
-0.274879
-0.283177
-0.291342
-0.299377
-0.307285
-0.315071
-0.322737
-0.330288
-0.337727
-0.34506
-0.352289
-0.35942
-0.366456
-0.373402
-0.380262
-0.387039
-0.393738
-0.400362
-0.406915
-0.413399
-0.419819
-0.426177
-0.432475
-0.438716
-0.444901
-0.451034
-0.457115
-0.463145
-0.469125
-0.475057
-0.480939
-0.486773
-0.492557
-0.498292
-0.503975
-0.509607
-0.515184
-0.520706
-0.526171
-0.531576
-0.536917
-0.542194
-0.547401
-0.552537
-0.557597
-0.562578
-0.567476
-0.572286
-0.577005
-0.581628
-0.586151
-0.590569
-0.594878
-0.599072
-0.603147
-0.607099
-0.610922
-0.614612
-0.618163
-0.621571
-0.624831
-0.627939
-0.63089
-0.633678
-0.636301
-0.638752
-0.641028
-0.643125
-0.645038
-0.646764
-0.648298
-0.649638
-0.650778
-0.651717
-0.65245
-0.652974
-0.653287
-0.653386
-0.653267
-0.65293
-0.65237
-0.651587
-0.650578
-0.649342
-0.647877
-0.646181
-0.644253
-0.642093
-0.639699
-0.637072
-0.634209
-0.631112
-0.62778
-0.624213
-0.620412
-0.616377
-0.61211
-0.60761
-0.60288
-0.59792
-0.592734
-0.587321
-0.581685
-0.575828
-0.569753
-0.563463
-0.55696
-0.550248
-0.543332
-0.536214
-0.528899
-0.521392
-0.513698
-0.50582
-0.497766
-0.489539
-0.481147
-0.472594
-0.463889
-0.455036
-0.446042
-0.436916
-0.427663
-0.418292
-0.40881
-0.399225
-0.389544
-0.379776
-0.369929
-0.360011
-0.350031
-0.339997
-0.329917
-0.3198
-0.309654
-0.299488
-0.28931
-0.279128
-0.268951
-0.258787
-0.248643
-0.238527
-0.228447
-0.21841
-0.208424
-0.198495
-0.18863
-0.178835
-0.169117
-0.159482
-0.149934
-0.14048
-0.131125
-0.121872
-0.112728
-0.103695
-0.0947772
-0.0859794
-0.0773031
-0.0687542
-0.0603294
-0.0520443
-0.0438718
-0.0358792
-0.0279207
-0.0203238
-0.0123276
-0.00548734
0.359765
0.359635
0.359352
0.358905
0.358295
0.357526
0.356595
0.355502
0.354244
0.35282
0.351226
0.349462
0.347523
0.345408
0.343113
0.340634
0.33797
0.335116
0.332068
0.328823
0.325376
0.321725
0.317865
0.313792
0.309502
0.304991
0.300256
0.295293
0.290099
0.28467
0.279003
0.273097
0.266948
0.260555
0.253917
0.247032
0.239902
0.232525
0.224904
0.21704
0.208936
0.200595
0.192022
0.183221
0.174198
0.164961
0.155516
0.145872
0.136039
0.126027
0.115845
0.105507
0.0950226
0.0844058
0.0736694
0.0628269
0.0518919
0.0408786
0.0298012
0.0186738
0.00751059
-0.00367433
-0.0148671
-0.0260542
-0.0372224
-0.048359
-0.0594515
-0.0704885
-0.0814586
-0.0923515
-0.103157
-0.113867
-0.124473
-0.134966
-0.145341
-0.15559
-0.16571
-0.175695
-0.185542
-0.195248
-0.20481
-0.214227
-0.223498
-0.232623
-0.241601
-0.250434
-0.259123
-0.267669
-0.276076
-0.284346
-0.292481
-0.300485
-0.308361
-0.316114
-0.323747
-0.331265
-0.338672
-0.345971
-0.353168
-0.360267
-0.367272
-0.374187
-0.381017
-0.387766
-0.394438
-0.401036
-0.407564
-0.414026
-0.420424
-0.426762
-0.433042
-0.439267
-0.445438
-0.451558
-0.457628
-0.463649
-0.469623
-0.475549
-0.481428
-0.48726
-0.493045
-0.498781
-0.504468
-0.510105
-0.51569
-0.521221
-0.526695
-0.532111
-0.537466
-0.542756
-0.547979
-0.553131
-0.558209
-0.563208
-0.568125
-0.572956
-0.577695
-0.58234
-0.586885
-0.591325
-0.595656
-0.599874
-0.603973
-0.607948
-0.611794
-0.615507
-0.619082
-0.622514
-0.625797
-0.628928
-0.631901
-0.634713
-0.637357
-0.63983
-0.642128
-0.644246
-0.64618
-0.647926
-0.64948
-0.650838
-0.651998
-0.652954
-0.653705
-0.654247
-0.654576
-0.654691
-0.654589
-0.654266
-0.653722
-0.652953
-0.651958
-0.650734
-0.649282
-0.647598
-0.645682
-0.643533
-0.64115
-0.638533
-0.63568
-0.632592
-0.629269
-0.62571
-0.621917
-0.617889
-0.613628
-0.609134
-0.604409
-0.599454
-0.59427
-0.588861
-0.583227
-0.577372
-0.571297
-0.565006
-0.558502
-0.551788
-0.544868
-0.537746
-0.530426
-0.522912
-0.515209
-0.507323
-0.499258
-0.49102
-0.482615
-0.474049
-0.465328
-0.456458
-0.447447
-0.438302
-0.429029
-0.419636
-0.410131
-0.400522
-0.390816
-0.381022
-0.371147
-0.361201
-0.351191
-0.341127
-0.331016
-0.320867
-0.310688
-0.300489
-0.290277
-0.280061
-0.269849
-0.25965
-0.24947
-0.239319
-0.229204
-0.219132
-0.20911
-0.199146
-0.189246
-0.179417
-0.169664
-0.159995
-0.150414
-0.140927
-0.13154
-0.122256
-0.11308
-0.104017
-0.0950696
-0.0862427
-0.0775383
-0.0689618
-0.0605102
-0.0521992
-0.0440013
-0.0359844
-0.0280018
-0.0203828
-0.0123623
-0.0055048
0.360882
0.360753
0.360471
0.360027
0.359421
0.358656
0.357731
0.356644
0.355393
0.353976
0.352391
0.350635
0.348705
0.346599
0.344313
0.341844
0.339189
0.336344
0.333305
0.330068
0.326629
0.322984
0.319129
0.315059
0.310771
0.306261
0.301523
0.296556
0.291354
0.285915
0.280236
0.274313
0.268144
0.261727
0.25506
0.248144
0.240977
0.233559
0.225892
0.217978
0.209819
0.201419
0.192781
0.183912
0.174817
0.165502
0.155977
0.14625
0.13633
0.126227
0.115954
0.105521
0.0949422
0.0842296
0.073397
0.0624585
0.0514285
0.0403215
0.0291521
0.0179352
0.00668518
-0.00458328
-0.015856
-0.027119
-0.0383588
-0.0495623
-0.060717
-0.0718109
-0.0828329
-0.0937724
-0.104619
-0.115365
-0.126001
-0.136519
-0.146914
-0.157178
-0.167308
-0.177298
-0.187145
-0.196846
-0.2064
-0.215805
-0.22506
-0.234165
-0.24312
-0.251928
-0.260588
-0.269105
-0.277479
-0.285714
-0.293813
-0.30178
-0.309619
-0.317334
-0.324928
-0.332406
-0.339774
-0.347034
-0.354193
-0.361254
-0.368222
-0.375101
-0.381897
-0.388612
-0.395252
-0.401819
-0.408318
-0.414753
-0.421126
-0.427441
-0.4337
-0.439906
-0.44606
-0.452165
-0.458223
-0.464234
-0.470199
-0.476119
-0.481995
-0.487825
-0.49361
-0.499349
-0.505041
-0.510684
-0.516277
-0.521818
-0.527305
-0.532734
-0.538104
-0.543411
-0.548653
-0.553824
-0.558922
-0.563943
-0.568883
-0.573737
-0.578501
-0.583171
-0.587742
-0.592208
-0.596566
-0.600811
-0.604937
-0.60894
-0.612814
-0.616555
-0.620157
-0.623616
-0.626927
-0.630085
-0.633085
-0.635923
-0.638593
-0.641092
-0.643415
-0.645558
-0.647516
-0.649285
-0.650862
-0.652243
-0.653425
-0.654403
-0.655174
-0.655736
-0.656085
-0.656219
-0.656135
-0.65583
-0.655303
-0.654551
-0.653572
-0.652364
-0.650926
-0.649257
-0.647355
-0.645219
-0.642849
-0.640243
-0.637402
-0.634325
-0.631012
-0.627463
-0.623678
-0.619659
-0.615405
-0.610918
-0.606199
-0.601249
-0.59607
-0.590664
-0.585033
-0.579179
-0.573105
-0.566814
-0.560308
-0.553592
-0.546668
-0.53954
-0.532214
-0.524693
-0.516981
-0.509085
-0.501008
-0.492757
-0.484337
-0.475754
-0.467016
-0.458127
-0.449095
-0.439927
-0.430631
-0.421213
-0.411681
-0.402044
-0.392308
-0.382483
-0.372577
-0.362597
-0.352553
-0.342453
-0.332305
-0.322118
-0.311902
-0.301663
-0.291412
-0.281155
-0.270903
-0.260662
-0.250442
-0.240249
-0.230092
-0.219978
-0.209915
-0.19991
-0.189969
-0.180099
-0.170306
-0.160597
-0.150977
-0.141452
-0.132026
-0.122705
-0.113493
-0.104394
-0.0954121
-0.0865513
-0.0778137
-0.069205
-0.0607221
-0.0523806
-0.044153
-0.0361076
-0.0280967
-0.0204518
-0.012403
-0.00552493
0.362157
0.362028
0.361748
0.361307
0.360705
0.359946
0.359027
0.357947
0.356704
0.355296
0.35372
0.351974
0.350055
0.34796
0.345685
0.343228
0.340584
0.337749
0.334721
0.331493
0.328063
0.324426
0.320577
0.316512
0.312227
0.307717
0.302978
0.298006
0.292797
0.287347
0.281652
0.275711
0.269519
0.263075
0.256377
0.249424
0.242215
0.234751
0.227032
0.21906
0.210838
0.202369
0.193657
0.184709
0.175529
0.166126
0.156508
0.146683
0.136662
0.126456
0.116076
0.105535
0.0948451
0.0840212
0.0730772
0.0620276
0.0508874
0.0396718
0.028396
0.0170753
0.00572501
-0.00563999
-0.0170049
-0.0283555
-0.0396777
-0.0509582
-0.0621843
-0.0733437
-0.0844251
-0.0954177
-0.106312
-0.117098
-0.127768
-0.138315
-0.148731
-0.159012
-0.169152
-0.179146
-0.188993
-0.198689
-0.208232
-0.217621
-0.226857
-0.235939
-0.244867
-0.253645
-0.262272
-0.270753
-0.279089
-0.287284
-0.295342
-0.303266
-0.31106
-0.31873
-0.326279
-0.333712
-0.341034
-0.348249
-0.355363
-0.36238
-0.369306
-0.376143
-0.382898
-0.389575
-0.396178
-0.40271
-0.409176
-0.41558
-0.421924
-0.428212
-0.434447
-0.440631
-0.446766
-0.452854
-0.458897
-0.464896
-0.470852
-0.476766
-0.482637
-0.488466
-0.494251
-0.499993
-0.505691
-0.511342
-0.516945
-0.522498
-0.527998
-0.533444
-0.538831
-0.544158
-0.54942
-0.554614
-0.559736
-0.564782
-0.569749
-0.57463
-0.579423
-0.584122
-0.588722
-0.593219
-0.597608
-0.601884
-0.606042
-0.610076
-0.613982
-0.617755
-0.621389
-0.62488
-0.628223
-0.631412
-0.634443
-0.637311
-0.640011
-0.642539
-0.644891
-0.647062
-0.649048
-0.650845
-0.652448
-0.653855
-0.655062
-0.656064
-0.65686
-0.657445
-0.657816
-0.657972
-0.657909
-0.657625
-0.657117
-0.656384
-0.655423
-0.654233
-0.652813
-0.65116
-0.649274
-0.647153
-0.644797
-0.642205
-0.639377
-0.636313
-0.633011
-0.629473
-0.625699
-0.621689
-0.617444
-0.612965
-0.608253
-0.603309
-0.598135
-0.592734
-0.587106
-0.581254
-0.575181
-0.568889
-0.562382
-0.555663
-0.548735
-0.541602
-0.534268
-0.526738
-0.519017
-0.511108
-0.503018
-0.494752
-0.486316
-0.477715
-0.468956
-0.460045
-0.450989
-0.441796
-0.432472
-0.423026
-0.413463
-0.403794
-0.394024
-0.384164
-0.374221
-0.364203
-0.354119
-0.343978
-0.333788
-0.323558
-0.313298
-0.303014
-0.292717
-0.282414
-0.272115
-0.261827
-0.251558
-0.241318
-0.231113
-0.220951
-0.21084
-0.200787
-0.190799
-0.180882
-0.171044
-0.161289
-0.151624
-0.142054
-0.132585
-0.123221
-0.113967
-0.104827
-0.0958053
-0.0869055
-0.0781299
-0.0694842
-0.0609652
-0.0525888
-0.0443271
-0.0362491
-0.0282056
-0.020531
-0.0124499
-0.00554775
0.363586
0.363459
0.363182
0.362744
0.362147
0.361393
0.360482
0.35941
0.358177
0.356779
0.355214
0.35348
0.351573
0.34949
0.347229
0.344785
0.342154
0.339332
0.336316
0.3331
0.32968
0.326052
0.322211
0.318152
0.313871
0.309362
0.304622
0.299646
0.294429
0.288967
0.283257
0.277295
0.271078
0.264604
0.257871
0.250877
0.243621
0.236104
0.228326
0.220289
0.211995
0.203448
0.194653
0.185614
0.176339
0.166835
0.15711
0.147174
0.137038
0.126713
0.116211
0.105545
0.0947291
0.083778
0.0727064
0.0615297
0.0502636
0.0389239
0.0275266
0.0160877
0.00462296
-0.00685198
-0.0183219
-0.0297719
-0.0411877
-0.0525556
-0.0638624
-0.0750957
-0.086244
-0.0972965
-0.108243
-0.119075
-0.129783
-0.14036
-0.150801
-0.161099
-0.171249
-0.181249
-0.191093
-0.200782
-0.210312
-0.219683
-0.228896
-0.23795
-0.246847
-0.255589
-0.264178
-0.272617
-0.280909
-0.289058
-0.297068
-0.304942
-0.312686
-0.320304
-0.327801
-0.335182
-0.342452
-0.349616
-0.356679
-0.363646
-0.370522
-0.377312
-0.384022
-0.390654
-0.397214
-0.403707
-0.410135
-0.416504
-0.422815
-0.429073
-0.43528
-0.441439
-0.447553
-0.453622
-0.459649
-0.465635
-0.471581
-0.477487
-0.483353
-0.48918
-0.494967
-0.500713
-0.506416
-0.512076
-0.517691
-0.523257
-0.528774
-0.534238
-0.539646
-0.544995
-0.550281
-0.555501
-0.560651
-0.565726
-0.570722
-0.575635
-0.58046
-0.585192
-0.589827
-0.594358
-0.598783
-0.603094
-0.607288
-0.611359
-0.615301
-0.61911
-0.62278
-0.626307
-0.629685
-0.63291
-0.635976
-0.638878
-0.641613
-0.644174
-0.646559
-0.648762
-0.650779
-0.652607
-0.65424
-0.655676
-0.656911
-0.657941
-0.658764
-0.659375
-0.659772
-0.659952
-0.659913
-0.659652
-0.659166
-0.658455
-0.657515
-0.656345
-0.654943
-0.653309
-0.651441
-0.649337
-0.646998
-0.644422
-0.641609
-0.638558
-0.63527
-0.631745
-0.627982
-0.623983
-0.619748
-0.615278
-0.610574
-0.605638
-0.60047
-0.595073
-0.589449
-0.5836
-0.577528
-0.571236
-0.564727
-0.558005
-0.551072
-0.543934
-0.536592
-0.529053
-0.52132
-0.513399
-0.505294
-0.497011
-0.488556
-0.479934
-0.471152
-0.462217
-0.453135
-0.443913
-0.434559
-0.425079
-0.415483
-0.405776
-0.395969
-0.386069
-0.376083
-0.366022
-0.355894
-0.345706
-0.335469
-0.32519
-0.314879
-0.304545
-0.294196
-0.283841
-0.273488
-0.263146
-0.252824
-0.242529
-0.23227
-0.222054
-0.211888
-0.201781
-0.19174
-0.18177
-0.171879
-0.162072
-0.152356
-0.142736
-0.133217
-0.123805
-0.114503
-0.105317
-0.0962501
-0.0873061
-0.0784874
-0.0697999
-0.0612401
-0.0528241
-0.0445239
-0.0364089
-0.0283288
-0.0206204
-0.0125028
-0.00557329
0.365171
0.365045
0.36477
0.364336
0.363745
0.362998
0.362095
0.361033
0.35981
0.358424
0.356872
0.355151
0.353258
0.351191
0.348944
0.346515
0.343899
0.341093
0.338091
0.334888
0.331481
0.327865
0.324033
0.319982
0.315706
0.3112
0.306459
0.301479
0.296254
0.29078
0.285053
0.27907
0.272826
0.266319
0.259547
0.252507
0.245199
0.237623
0.229779
0.221669
0.213295
0.204661
0.195771
0.186632
0.177249
0.16763
0.157785
0.147724
0.137457
0.126997
0.116357
0.10555
0.0945915
0.0834964
0.0722805
0.06096
0.0495514
0.0380715
0.0265369
0.0149645
0.00337079
-0.00822801
-0.019816
-0.0313778
-0.0428987
-0.0543643
-0.0657614
-0.0770773
-0.0883
-0.0994188
-0.110423
-0.121305
-0.132055
-0.142666
-0.153133
-0.163449
-0.17361
-0.183612
-0.193454
-0.203132
-0.212646
-0.221996
-0.231181
-0.240203
-0.249064
-0.257765
-0.26631
-0.274701
-0.282943
-0.291039
-0.298994
-0.306812
-0.314498
-0.322057
-0.329495
-0.336817
-0.344028
-0.351133
-0.358138
-0.365049
-0.37187
-0.378607
-0.385264
-0.391847
-0.39836
-0.404808
-0.411194
-0.417523
-0.423797
-0.430021
-0.436198
-0.442329
-0.448418
-0.454466
-0.460475
-0.466447
-0.472381
-0.478279
-0.484141
-0.489966
-0.495754
-0.501504
-0.507216
-0.512886
-0.518514
-0.524096
-0.529631
-0.535116
-0.540547
-0.545922
-0.551235
-0.556484
-0.561665
-0.566773
-0.571803
-0.576751
-0.581613
-0.586383
-0.591055
-0.595627
-0.600091
-0.604442
-0.608676
-0.612788
-0.616771
-0.62062
-0.624332
-0.627899
-0.631317
-0.634581
-0.637686
-0.640627
-0.6434
-0.645999
-0.64842
-0.650659
-0.652712
-0.654573
-0.65624
-0.657709
-0.658976
-0.660037
-0.660889
-0.661529
-0.661955
-0.662162
-0.66215
-0.661914
-0.661454
-0.660766
-0.659849
-0.658702
-0.657322
-0.655708
-0.65386
-0.651776
-0.649454
-0.646896
-0.644099
-0.641065
-0.637792
-0.63428
-0.630531
-0.626544
-0.622321
-0.617861
-0.613166
-0.608238
-0.603077
-0.597686
-0.592066
-0.58622
-0.58015
-0.573858
-0.567348
-0.560623
-0.553686
-0.546541
-0.539191
-0.531641
-0.523896
-0.515961
-0.507839
-0.499538
-0.491062
-0.482418
-0.473611
-0.464648
-0.455537
-0.446283
-0.436895
-0.427379
-0.417744
-0.407997
-0.398147
-0.388202
-0.37817
-0.36806
-0.357882
-0.347642
-0.337352
-0.327018
-0.316651
-0.30626
-0.295852
-0.285438
-0.275026
-0.264624
-0.254241
-0.243885
-0.233565
-0.223288
-0.213062
-0.202894
-0.192792
-0.182763
-0.172813
-0.162948
-0.153175
-0.143498
-0.133924
-0.124458
-0.115103
-0.105865
-0.0967472
-0.0877538
-0.0788869
-0.0701525
-0.0615471
-0.053087
-0.0447437
-0.0365873
-0.0284663
-0.0207201
-0.012562
-0.00560154
0.366908
0.366784
0.366512
0.366083
0.365498
0.364759
0.363865
0.362814
0.361603
0.36023
0.358692
0.356987
0.355111
0.35306
0.350831
0.348419
0.345821
0.343032
0.340046
0.33686
0.333468
0.329865
0.326045
0.322003
0.317734
0.313232
0.308492
0.303508
0.298276
0.29279
0.287046
0.281039
0.274766
0.268224
0.261409
0.25432
0.246955
0.239315
0.231398
0.223207
0.214744
0.206013
0.197018
0.187765
0.178261
0.168515
0.158535
0.148333
0.13792
0.127309
0.116513
0.105548
0.0944295
0.0831726
0.0717946
0.0603127
0.0487443
0.0371071
0.0254188
0.013697
0.00195903
-0.00977811
-0.0214978
-0.0331842
-0.0448217
-0.056396
-0.067893
-0.0793
-0.0906048
-0.101796
-0.112865
-0.1238
-0.134595
-0.145243
-0.155736
-0.166071
-0.176242
-0.186247
-0.196083
-0.205749
-0.215244
-0.224567
-0.233721
-0.242706
-0.251524
-0.260178
-0.268672
-0.277009
-0.285193
-0.293229
-0.301122
-0.308876
-0.316497
-0.32399
-0.331362
-0.338617
-0.345761
-0.352801
-0.359742
-0.366589
-0.373349
-0.380026
-0.386625
-0.393153
-0.399613
-0.40601
-0.412349
-0.418634
-0.424868
-0.431054
-0.437197
-0.443298
-0.449359
-0.455384
-0.461374
-0.467329
-0.473251
-0.47914
-0.484997
-0.490821
-0.496611
-0.502367
-0.508086
-0.513769
-0.519411
-0.525012
-0.530568
-0.536076
-0.541534
-0.546937
-0.552281
-0.557563
-0.562779
-0.567923
-0.572992
-0.577979
-0.582882
-0.587694
-0.592409
-0.597024
-0.601533
-0.605929
-0.610208
-0.614365
-0.618394
-0.622289
-0.626045
-0.629657
-0.63312
-0.636428
-0.639577
-0.642561
-0.645375
-0.648016
-0.650478
-0.652757
-0.654848
-0.656748
-0.658452
-0.659957