/*--------------------------------*- C++ -*----------------------------------*\
| =========                 |                                                 |
| \\      /  F ield         | OpenFOAM: The Open Source CFD Toolbox           |
|  \\    /   O peration     | Version:  2306                                  |
|   \\  /    A nd           | Website:  www.openfoam.com                      |
|    \\/     M anipulation  |                                                 |
\*---------------------------------------------------------------------------*/
FoamFile
{
    version     2.0;
    format      ascii;
    arch        "LSB;label=32;scalar=64";
    class       surfaceScalarField;
    location    "12.5";
    object      phi;
}
// * * * * * * * * * * * * * * * * * * * * * * * * * * * * * * * * * * * * * //

dimensions      [0 3 -1 0 0 0 0];

oriented        oriented;

internalField   nonuniform List<scalar> 
65152
(
0.0062505
-5.01488e-07
0.00625201
-1.50638e-06
0.00625452
-2.51188e-06
0.00625804
-3.5191e-06
0.00626257
-4.52968e-06
0.00626811
-5.54468e-06
0.00627468
-6.56479e-06
0.00628227
-7.59071e-06
0.00629089
-8.62323e-06
0.00630056
-9.66311e-06
0.00631127
-1.0711e-05
0.00632303
-1.17675e-05
0.00633587
-1.28331e-05
0.00634977
-1.39083e-05
0.00636477
-1.49933e-05
0.00638086
-1.60883e-05
0.00639805
-1.71936e-05
0.00641636
-1.83089e-05
0.00643579
-1.94342e-05
0.00645636
-2.05692e-05
0.00647808
-2.17134e-05
0.00650094
-2.28661e-05
0.00652497
-2.40267e-05
0.00655016
-2.51942e-05
0.00657653
-2.63674e-05
0.00660408
-2.7545e-05
0.0066328
-2.87256e-05
0.00666271
-2.99075e-05
0.0066938
-3.10888e-05
0.00672606
-3.22675e-05
0.00675951
-3.34413e-05
0.00679411
-3.4608e-05
0.00682988
-3.57648e-05
0.00686679
-3.69092e-05
0.00690483
-3.80383e-05
0.00694398
-3.9149e-05
0.00698421
-4.02384e-05
0.00702552
-4.13033e-05
0.00706786
-4.23404e-05
0.0071112
-4.33465e-05
0.00715552
-4.43183e-05
0.00720077
-4.52527e-05
0.00724692
-4.61464e-05
0.00729392
-4.69963e-05
0.00734172
-4.77995e-05
0.00739027
-4.85532e-05
0.00743952
-4.92547e-05
0.00748943
-4.99015e-05
0.00753992
-5.04914e-05
0.00759094
-5.10226e-05
0.00764243
-5.14934e-05
0.00769434
-5.19023e-05
0.00774658
-5.22485e-05
0.00779912
-5.25312e-05
0.00785187
-5.275e-05
0.00790477
-5.29049e-05
0.00795777
-5.29963e-05
0.00801079
-5.30247e-05
0.00806378
-5.29913e-05
0.00811668
-5.28973e-05
0.00816942
-5.27444e-05
0.00822196
-5.25344e-05
0.00827423
-5.22695e-05
0.00832618
-5.1952e-05
0.00837777
-5.15847e-05
0.00842894
-5.11702e-05
0.00847965
-5.07116e-05
0.00852986
-5.02119e-05
0.00857953
-4.96744e-05
0.00862864
-4.91022e-05
0.00867713
-4.84987e-05
0.008725
-4.78673e-05
0.00877221
-4.72114e-05
0.00881875
-4.65341e-05
0.00886459
-4.58389e-05
0.00890971
-4.51289e-05
0.00895412
-4.44072e-05
0.0089978
-4.3677e-05
0.00904074
-4.29411e-05
0.00908294
-4.22024e-05
0.00912441
-4.14635e-05
0.00916513
-4.07268e-05
0.00920513
-3.99949e-05
0.0092444
-3.92699e-05
0.00928295
-3.85538e-05
0.0093208
-3.78484e-05
0.00935796
-3.71556e-05
0.00939443
-3.64768e-05
0.00943025
-3.58134e-05
0.00946541
-3.51665e-05
0.00949995
-3.45373e-05
0.00953388
-3.39264e-05
0.00956721
-3.33347e-05
0.00959997
-3.27626e-05
0.00963218
-3.22106e-05
0.00966386
-3.16789e-05
0.00969503
-3.11676e-05
0.00972571
-3.06766e-05
0.00975591
-3.02058e-05
0.00978567
-2.97548e-05
0.00981499
-2.93234e-05
0.0098439
-2.8911e-05
0.00987242
-2.85169e-05
0.00990056
-2.81405e-05
0.00992834
-2.7781e-05
0.00995578
-2.74375e-05
0.00998289
-2.71091e-05
0.0100097
-2.67948e-05
0.0100362
-2.64935e-05
0.0100624
-2.62041e-05
0.0100883
-2.59254e-05
0.010114
-2.56564e-05
0.0101394
-2.53956e-05
0.0101645
-2.5142e-05
0.0101894
-2.48942e-05
0.010214
-2.4651e-05
0.0102385
-2.4411e-05
0.0102626
-2.41731e-05
0.0102866
-2.39359e-05
0.0103103
-2.36981e-05
0.0103337
-2.34586e-05
0.0103569
-2.32161e-05
0.0103799
-2.29694e-05
0.0104026
-2.27174e-05
0.0104251
-2.24589e-05
0.0104473
-2.21928e-05
0.0104692
-2.1918e-05
0.0104908
-2.16337e-05
0.0105122
-2.13387e-05
0.0105332
-2.10322e-05
0.0105539
-2.07134e-05
0.0105743
-2.03814e-05
0.0105943
-2.00355e-05
0.010614
-1.9675e-05
0.0106333
-1.92992e-05
0.0106522
-1.89076e-05
0.0106707
-1.84997e-05
0.0106888
-1.8075e-05
0.0107064
-1.7633e-05
0.0107236
-1.71735e-05
0.0107403
-1.66961e-05
0.0107565
-1.62006e-05
0.0107722
-1.56868e-05
0.0107873
-1.51545e-05
0.0108019
-1.46038e-05
0.010816
-1.40344e-05
0.0108294
-1.34465e-05
0.0108423
-1.28401e-05
0.0108545
-1.22152e-05
0.010866
-1.1572e-05
0.010877
-1.09107e-05
0.0108872
-1.02314e-05
0.0108967
-9.53431e-06
0.0109055
-8.81977e-06
0.0109136
-8.08801e-06
0.010921
-7.33933e-06
0.0109275
-6.57406e-06
0.0109333
-5.79253e-06
0.0109383
-4.99511e-06
0.0109425
-4.18216e-06
0.0109459
-3.35407e-06
0.0109484
-2.51124e-06
0.01095
-1.65406e-06
0.0109508
-7.82978e-07
0.0109507
1.01609e-07
0.0109497
9.99283e-07
0.0109478
1.90958e-06
0.010945
2.83208e-06
0.0109412
3.76634e-06
0.0109365
4.71189e-06
0.0109308
5.6683e-06
0.0109242
6.63511e-06
0.0109166
7.61185e-06
0.010908
8.59806e-06
0.0108984
9.59327e-06
0.0108878
1.0597e-05
0.0108762
1.16087e-05
0.0108635
1.2628e-05
0.0108499
1.36543e-05
0.0108352
1.46871e-05
0.0108195
1.57259e-05
0.0108027
1.67701e-05
0.0107849
1.78191e-05
0.010766
1.88724e-05
0.0107461
1.99294e-05
0.0107251
2.09895e-05
0.010703
2.2052e-05
0.0106799
2.31162e-05
0.0106558
2.41815e-05
0.0106305
2.52471e-05
0.0106042
2.63122e-05
0.0105768
2.73762e-05
0.0105484
2.84381e-05
0.0105189
2.94972e-05
0.0104883
3.05525e-05
0.0104567
3.16032e-05
0.0104241
3.26483e-05
0.0103904
3.36869e-05
0.0103557
3.47179e-05
0.0103199
3.57404e-05
0.0102832
3.67532e-05
0.0102454
3.77554e-05
0.0102067
3.87457e-05
0.010167
3.97231e-05
0.0101263
4.06864e-05
0.0100846
4.16345e-05
0.0100421
4.25662e-05
0.00999859
4.34803e-05
0.00995421
4.43757e-05
0.00990896
4.5251e-05
0.00986285
4.61053e-05
0.00981592
4.69373e-05
0.00976817
4.77458e-05
0.00971964
4.85298e-05
0.00967035
4.92881e-05
0.00962033
5.00196e-05
0.00956961
5.07234e-05
0.00951821
5.13983e-05
0.00946617
5.20436e-05
0.00941351
5.26581e-05
0.00936027
5.32412e-05
0.00930648
5.37921e-05
0.00925217
5.43099e-05
0.00919737
5.47941e-05
0.00914213
5.52442e-05
0.00908647
5.56595e-05
0.00903043
5.60396e-05
0.00897405
5.63844e-05
0.00891735
5.66933e-05
0.00886039
5.69664e-05
0.00880318
5.72035e-05
0.00874578
5.74045e-05
0.00868821
5.75696e-05
0.00863051
5.76989e-05
0.00857272
5.77927e-05
0.00851487
5.78512e-05
0.00845699
5.78748e-05
0.00839913
5.7864e-05
0.00834131
5.78194e-05
0.00828357
5.77415e-05
0.00822594
5.7631e-05
0.00816845
5.74885e-05
0.00811113
5.73149e-05
0.00805402
5.71109e-05
0.00799714
5.68774e-05
0.00794053
5.66155e-05
0.0078842
5.63255e-05
0.00782819
5.60095e-05
0.00777253
5.5666e-05
0.00771723
5.53012e-05
0.00766232
5.49052e-05
0.00760782
5.44991e-05
0.00755378
5.4045e-05
0.00750017
5.36028e-05
0.00744708
5.30962e-05
5.25335e-05
0.0062505
-1.00348e-06
0.00625201
-3.01095e-06
0.00625452
-5.02092e-06
0.00625803
-7.03531e-06
0.00626256
-9.05614e-06
0.0062681
-1.10854e-05
0.00627466
-1.31248e-05
0.00628224
-1.5176e-05
0.00629086
-1.72405e-05
0.00630052
-1.93198e-05
0.00631122
-2.14152e-05
0.00632298
-2.35279e-05
0.00633581
-2.56588e-05
0.00634971
-2.7809e-05
0.00636469
-2.9979e-05
0.00638078
-3.21692e-05
0.00639796
-3.43798e-05
0.00641626
-3.66108e-05
0.00643569
-3.88619e-05
0.00645625
-4.11325e-05
0.00647796
-4.34216e-05
0.00650083
-4.57281e-05
0.00652485
-4.80504e-05
0.00655004
-5.03866e-05
0.00657641
-5.27345e-05
0.00660395
-5.50915e-05
0.00663268
-5.74545e-05
0.0066626
-5.98203e-05
0.00669369
-6.21852e-05
0.00672597
-6.45449e-05
0.00675942
-6.68952e-05
0.00679405
-6.92313e-05
0.00682983
-7.15479e-05
0.00686676
-7.38396e-05
0.00690482
-7.61009e-05
0.006944
-7.83256e-05
0.00698427
-8.05077e-05
0.00702561
-8.26408e-05
0.00706799
-8.47184e-05
0.00711137
-8.6734e-05
0.00715574
-8.86811e-05
0.00720104
-9.05531e-05
0.00724723
-9.23437e-05
0.00729428
-9.40467e-05
0.00734214
-9.56561e-05
0.00739075
-9.71661e-05
0.00744007
-9.85716e-05
0.00749004
-9.98675e-05
0.00754059
-0.000101049
0.00759168
-0.000102114
0.00764325
-0.000103056
0.00769522
-0.000103875
0.00774754
-0.000104569
0.00780014
-0.000105134
0.00785297
-0.000105572
0.00790594
-0.000105881
0.00795901
-0.000106064
0.0080121
-0.00010612
0.00806516
-0.000106051
0.00811813
-0.000105862
0.00817094
-0.000105554
0.00822354
-0.000105132
0.00827587
-0.0001046
0.00832788
-0.000103962
0.00837952
-0.000103225
0.00843074
-0.000102393
0.0084815
-0.000101472
0.00853176
-0.00010047
0.00858147
-9.93911e-05
0.00863061
-9.82434e-05
0.00867915
-9.70331e-05
0.00872705
-9.57668e-05
0.00877429
-9.44514e-05
0.00882085
-9.30936e-05
0.00886671
-9.16998e-05
0.00891186
-9.02765e-05
0.00895628
-8.88301e-05
0.00899997
-8.73666e-05
0.00904292
-8.5892e-05
0.00908513
-8.44117e-05
0.0091266
-8.29312e-05
0.00916733
-8.14555e-05
0.00920732
-7.99893e-05
0.00924659
-7.85371e-05
0.00928514
-7.71029e-05
0.00932298
-7.56904e-05
0.00936013
-7.43031e-05
0.00939659
-7.29441e-05
0.0094324
-7.16159e-05
0.00946755
-7.03211e-05
0.00950207
-6.90616e-05
0.00953599
-6.78391e-05
0.00956931
-6.6655e-05
0.00960206
-6.55104e-05
0.00963425
-6.44061e-05
0.00966591
-6.33424e-05
0.00969707
-6.23197e-05
0.00972773
-6.13378e-05
0.00975792
-6.03964e-05
0.00978766
-5.94948e-05
0.00981697
-5.86324e-05
0.00984586
-5.78081e-05
0.00987437
-5.70206e-05
0.0099025
-5.62685e-05
0.00993027
-5.55503e-05
0.00995769
-5.48642e-05
0.00998479
-5.42083e-05
0.0100116
-5.35807e-05
0.0100381
-5.29791e-05
0.0100643
-5.24015e-05
0.0100902
-5.18453e-05
0.0101158
-5.13083e-05
0.0101412
-5.07881e-05
0.0101664
-5.0282e-05
0.0101913
-4.97877e-05
0.0102159
-4.93024e-05
0.0102403
-4.88238e-05
0.0102645
-4.83491e-05
0.0102884
-4.78759e-05
0.0103121
-4.74016e-05
0.0103356
-4.69238e-05
0.0103588
-4.64399e-05
0.0103818
-4.59477e-05
0.0104045
-4.54447e-05
0.010427
-4.49287e-05
0.0104492
-4.43975e-05
0.0104711
-4.3849e-05
0.0104928
-4.32811e-05
0.0105141
-4.26921e-05
0.0105352
-4.20799e-05
0.0105559
-4.1443e-05
0.0105763
-4.07797e-05
0.0105964
-4.00886e-05
0.0106161
-3.93681e-05
0.0106354
-3.86171e-05
0.0106543
-3.78344e-05
0.0106728
-3.70189e-05
0.0106909
-3.61697e-05
0.0107086
-3.52861e-05
0.0107258
-3.43672e-05
0.0107425
-3.34126e-05
0.0107587
-3.24217e-05
0.0107744
-3.13941e-05
0.0107896
-3.03296e-05
0.0108042
-2.9228e-05
0.0108183
-2.80893e-05
0.0108317
-2.69133e-05
0.0108446
-2.57002e-05
0.0108568
-2.44503e-05
0.0108684
-2.31636e-05
0.0108794
-2.18406e-05
0.0108896
-2.04816e-05
0.0108992
-1.90872e-05
0.010908
-1.76577e-05
0.0109161
-1.61937e-05
0.0109235
-1.46959e-05
0.01093
-1.31649e-05
0.0109359
-1.16013e-05
0.0109409
-1.0006e-05
0.0109451
-8.37952e-06
0.0109484
-6.7228e-06
0.010951
-5.03657e-06
0.0109526
-3.32165e-06
0.0109534
-1.57888e-06
0.0109533
1.90892e-07
0.0109523
1.98682e-06
0.0109504
3.80803e-06
0.0109476
5.65364e-06
0.0109439
7.52277e-06
0.0109392
9.41451e-06
0.0109335
1.1328e-05
0.0109269
1.32622e-05
0.0109193
1.52164e-05
0.0109107
1.71894e-05
0.0109011
1.91805e-05
0.0108905
2.11886e-05
0.0108789
2.32128e-05
0.0108663
2.5252e-05
0.0108526
2.73053e-05
0.0108379
2.93716e-05
0.0108222
3.14499e-05
0.0108054
3.35391e-05
0.0107876
3.56379e-05
0.0107688
3.77454e-05
0.0107488
3.98602e-05
0.0107278
4.19812e-05
0.0107058
4.4107e-05
0.0106827
4.62364e-05
0.0106585
4.83678e-05
0.0106332
5.04999e-05
0.0106069
5.26312e-05
0.0105795
5.47602e-05
0.0105511
5.68851e-05
0.0105216
5.90043e-05
0.010491
6.1116e-05
0.0104594
6.32185e-05
0.0104267
6.53099e-05
0.010393
6.73883e-05
0.0103583
6.94515e-05
0.0103225
7.14977e-05
0.0102858
7.35247e-05
0.010248
7.55302e-05
0.0102092
7.75122e-05
0.0101695
7.94683e-05
0.0101288
8.13963e-05
0.0100871
8.32938e-05
0.0100445
8.51586e-05
0.010001
8.69881e-05
0.0099566
8.87801e-05
0.00991132
9.05323e-05
0.00986518
9.22421e-05
0.00981821
9.39074e-05
0.00977043
9.55258e-05
0.00972186
9.70949e-05
0.00967254
9.86127e-05
0.00962248
0.000100077
0.00957172
0.000101486
0.00952028
0.000102837
0.0094682
0.000104128
0.0094155
0.000105358
0.00936221
0.000106525
0.00930838
0.000107628
0.00925402
0.000108664
0.00919918
0.000109633
0.00914389
0.000110534
0.00908819
0.000111365
0.0090321
0.000112126
0.00897567
0.000112815
0.00891893
0.000113434
0.00886192
0.00011398
0.00880467
0.000114454
0.00874722
0.000114856
0.0086896
0.000115186
0.00863185
0.000115445
0.00857401
0.000115632
0.00851612
0.000115748
0.0084582
0.000115795
0.00840029
0.000115773
0.00834242
0.000115683
0.00828464
0.000115527
0.00822696
0.000115305
0.00816943
0.000115019
0.00811208
0.000114671
0.00805492
0.000114262
0.00799801
0.000113795
0.00794135
0.00011327
0.00788499
0.000112689
0.00782894
0.000112055
0.00777324
0.000111369
0.00771791
0.000110634
0.00766296
0.000109851
0.00760844
0.000109018
0.00755433
0.000108159
0.00750074
0.000107193
0.00744743
0.000106401
0.000104948
0.0062505
-1.50416e-06
0.006252
-4.51326e-06
0.00625451
-7.52619e-06
0.00625802
-1.0546e-05
0.00626254
-1.35756e-05
0.00626807
-1.66178e-05
0.00627462
-1.96752e-05
0.0062822
-2.27505e-05
0.0062908
-2.58458e-05
0.00630044
-2.89635e-05
0.00631113
-3.21055e-05
0.00632288
-3.52736e-05
0.00633569
-3.84695e-05
0.00634958
-4.16944e-05
0.00636455
-4.49492e-05
0.00638061
-4.82347e-05
0.00639778
-5.15512e-05
0.00641607
-5.48986e-05
0.00643549
-5.82764e-05
0.00645604
-6.16839e-05
0.00647774
-6.51195e-05
0.00650059
-6.85817e-05
0.00652461
-7.2068e-05
0.0065498
-7.55755e-05
0.00657616
-7.91011e-05
0.00660371
-8.26407e-05
0.00663245
-8.61899e-05
0.00666237
-8.97438e-05
0.00669348
-9.32966e-05
0.00672578
-9.68423e-05
0.00675926
-0.000100374
0.00679391
-0.000103885
0.00682973
-0.000107367
0.0068667
-0.000110812
0.00690481
-0.000114212
0.00694405
-0.000117557
0.00698438
-0.000120839
0.00702578
-0.000124047
0.00706824
-0.000127172
0.00711171
-0.000130204
0.00715616
-0.000133133
0.00720155
-0.000135949
0.00724785
-0.000138643
0.00729501
-0.000141205
0.00734298
-0.000143627
0.00739172
-0.000145899
0.00744116
-0.000148013
0.00749125
-0.000149963
0.00754195
-0.000151741
0.00759317
-0.000153341
0.00764488
-0.000154759
0.00769699
-0.000155991
0.00774945
-0.000157032
0.0078022
-0.000157882
0.00785517
-0.000158538
0.00790829
-0.000159002
0.0079615
-0.000159273
0.00801473
-0.000159355
0.00806793
-0.000159249
0.00812103
-0.000158961
0.00817397
-0.000158494
0.00822669
-0.000157856
0.00827915
-0.000157051
0.00833127
-0.000156088
0.00838302
-0.000154975
0.00843435
-0.000153719
0.00848521
-0.000152331
0.00853556
-0.000150819
0.00858536
-0.000149193
0.00863458
-0.000147463
0.00868318
-0.000145638
0.00873115
-0.00014373
0.00877844
-0.000141749
0.00882505
-0.000139703
0.00887096
-0.000137604
0.00891614
-0.000135461
0.0089606
-0.000133284
0.00900431
-0.000131081
0.00904728
-0.000128862
0.0090895
-0.000126635
0.00913098
-0.000124407
0.00917171
-0.000122187
0.00921171
-0.000119982
0.00925097
-0.000117799
0.00928951
-0.000115642
0.00932734
-0.000113519
0.00936447
-0.000111434
0.00940091
-0.000109392
0.00943669
-0.000107396
0.00947182
-0.000105451
0.00950632
-0.00010356
0.00954021
-0.000101724
0.0095735
-9.99463e-05
0.00960622
-9.82282e-05
0.00963838
-9.65709e-05
0.00967001
-9.4975e-05
0.00970113
-9.34408e-05
0.00973177
-9.19681e-05
0.00976193
-9.05565e-05
0.00979164
-8.9205e-05
0.00982092
-8.79125e-05
0.00984978
-8.66773e-05
0.00987826
-8.54977e-05
0.00990636
-8.43714e-05
0.00993411
-8.32961e-05
0.00996152
-8.22692e-05
0.0099886
-8.12877e-05
0.0100154
-8.03488e-05
0.0100418
-7.94491e-05
0.010068
-7.85854e-05
0.0100939
-7.7754e-05
0.0101196
-7.69515e-05
0.010145
-7.61741e-05
0.0101701
-7.54181e-05
0.010195
-7.46796e-05
0.0102196
-7.39549e-05
0.0102441
-7.324e-05
0.0102682
-7.25311e-05
0.0102922
-7.18243e-05
0.0103159
-7.11159e-05
0.0103394
-7.04021e-05
0.0103626
-6.96792e-05
0.0103856
-6.89436e-05
0.0104084
-6.81918e-05
0.0104308
-6.74204e-05
0.0104531
-6.66262e-05
0.010475
-6.58058e-05
0.0104967
-6.49563e-05
0.0105181
-6.40749e-05
0.0105392
-6.31587e-05
0.0105599
-6.22052e-05
0.0105804
-6.1212e-05
0.0106005
-6.01768e-05
0.0106202
-5.90975e-05
0.0106395
-5.79723e-05
0.0106585
-5.67993e-05
0.0106771
-5.55771e-05
0.0106952
-5.43041e-05
0.0107129
-5.29793e-05
0.0107301
-5.16016e-05
0.0107469
-5.017e-05
0.0107631
-4.86839e-05
0.0107789
-4.71427e-05
0.0107941
-4.55459e-05
0.0108088
-4.38934e-05
0.0108229
-4.2185e-05
0.0108364
-4.04206e-05
0.0108493
-3.86006e-05
0.0108616
-3.6725e-05
0.0108732
-3.47943e-05
0.0108842
-3.2809e-05
0.0108944
-3.07697e-05
0.010904
-2.8677e-05
0.0109129
-2.65318e-05
0.010921
-2.43347e-05
0.0109284
-2.20869e-05
0.0109351
-1.97891e-05
0.0109409
-1.74426e-05
0.0109459
-1.50482e-05
0.0109502
-1.26072e-05
0.0109536
-1.01208e-05
0.0109561
-7.59001e-06
0.0109578
-5.01621e-06
0.0109586
-2.40056e-06
0.0109586
2.55564e-07
0.0109576
2.95095e-06
0.0109557
5.68429e-06
0.0109529
8.45425e-06
0.0109492
1.12595e-05
0.0109445
1.40987e-05
0.0109389
1.69704e-05
0.0109323
1.98734e-05
0.0109247
2.28062e-05
0.0109161
2.57675e-05
0.0109065
2.87558e-05
0.0108959
3.17696e-05
0.0108843
3.48076e-05
0.0108717
3.78682e-05
0.0108581
4.09499e-05
0.0108434
4.40512e-05
0.0108277
4.71704e-05
0.0108109
5.0306e-05
0.0107931
5.34563e-05
0.0107742
5.66195e-05
0.0107543
5.97938e-05
0.0107333
6.29774e-05
0.0107112
6.61683e-05
0.0106881
6.93645e-05
0.0106639
7.2564e-05
0.0106386
7.57645e-05
0.0106123
7.89639e-05
0.0105849
8.21598e-05
0.0105564
8.53497e-05
0.0105269
8.85312e-05
0.0104963
9.17016e-05
0.0104647
9.48582e-05
0.010432
9.79982e-05
0.0103983
0.000101119
0.0103635
0.000104217
0.0103277
0.000107289
0.0102909
0.000110333
0.0102531
0.000113344
0.0102143
0.00011632
0.0101745
0.000119258
0.0101337
0.000122153
0.010092
0.000125003
0.0100494
0.000127803
0.0100058
0.000130551
0.00996136
0.000133242
0.00991602
0.000135874
0.00986982
0.000138442
0.00982278
0.000140943
0.00977493
0.000143374
0.0097263
0.000145731
0.0096769
0.00014801
0.00962677
0.00015021
0.00957593
0.000152325
0.00952441
0.000154355
0.00947224
0.000156294
0.00941946
0.000158142
0.00936609
0.000159895
0.00931217
0.00016155
0.00925773
0.000163107
0.0092028
0.000164562
0.00914742
0.000165915
0.00909162
0.000167163
0.00903544
0.000168305
0.00897891
0.00016934
0.00892208
0.000170268
0.00886497
0.000171088
0.00880763
0.000171799
0.00875008
0.000172402
0.00869237
0.000172897
0.00863453
0.000173284
0.0085766
0.000173564
0.00851861
0.000173738
0.0084606
0.000173807
0.0084026
0.000173773
0.00834465
0.000173636
0.00828677
0.0001734
0.00822901
0.000173065
0.0081714
0.000172635
0.00811396
0.00017211
0.00805673
0.000171495
0.00799973
0.000170791
0.007943
0.000170001
0.00788656
0.000169127
0.00783044
0.000168174
0.00777467
0.000167143
0.00771926
0.000166036
0.00766425
0.000164863
0.00760967
0.000163606
0.00755549
0.000162329
0.00750183
0.000160861
0.00744853
0.000159699
0.000157476
0.0062505
-2.00364e-06
0.006252
-6.01202e-06
0.0062545
-1.00255e-05
0.006258
-1.40484e-05
0.00626251
-1.80844e-05
0.00626803
-2.21374e-05
0.00627456
-2.62109e-05
0.00628212
-3.03083e-05
0.00629071
-3.44328e-05
0.00630033
-3.85873e-05
0.006311
-4.27747e-05
0.00632273
-4.69973e-05
0.00633551
-5.12573e-05
0.00634938
-5.55564e-05
0.00636432
-5.9896e-05
0.00638036
-6.4277e-05
0.00639751
-6.86999e-05
0.00641578
-7.31646e-05
0.00643517
-7.76707e-05
0.00645571
-8.22169e-05
0.00647739
-8.68015e-05
0.00650023
-9.14222e-05
0.00652424
-9.60758e-05
0.00654942
-0.000100759
0.00657579
-0.000105466
0.00660334
-0.000110194
0.00663208
-0.000114935
0.00666202
-0.000119683
0.00669316
-0.00012443
0.00672548
-0.000129169
0.006759
-0.00013389
0.0067937
-0.000138584
0.00682957
-0.000143241
0.00686661
-0.000147848
0.00690479
-0.000152396
0.0069441
-0.000156872
0.00698453
-0.000161262
0.00702604
-0.000165556
0.0070686
-0.000169738
0.0071122
-0.000173797
0.00715678
-0.000177718
0.00720232
-0.000181489
0.00724878
-0.000185096
0.0072961
-0.000188527
0.00734424
-0.000191769
0.00739315
-0.000194812
0.00744278
-0.000197643
0.00749307
-0.000200253
0.00754396
-0.000202633
0.0075954
-0.000204776
0.00764731
-0.000206673
0.00769964
-0.00020832
0.00775232
-0.000209712
0.00780529
-0.000210846
0.00785847
-0.000211722
0.00791181
-0.000212339
0.00796523
-0.000212697
0.00801868
-0.000212801
0.00807208
-0.000212655
0.00812538
-0.000212262
0.00817852
-0.000211631
0.00823143
-0.000210769
0.00828407
-0.000209685
0.00833637
-0.000208389
0.00838828
-0.000206891
0.00843977
-0.000205203
0.00849077
-0.000203337
0.00854126
-0.000201305
0.00859119
-0.000199121
0.00864052
-0.000196798
0.00868924
-0.00019435
0.0087373
-0.00019179
0.00878468
-0.000189132
0.00883136
-0.000186389
0.00887733
-0.000183575
0.00892258
-0.000180702
0.00896708
-0.000177784
0.00901083
-0.000174833
0.00905382
-0.00017186
0.00909607
-0.000168877
0.00913756
-0.000165895
0.00917829
-0.000162924
0.00921828
-0.000159973
0.00925753
-0.000157051
0.00929606
-0.000154167
0.00933387
-0.000151327
0.00937097
-0.00014854
0.00940739
-0.00014581
0.00944314
-0.000143143
0.00947823
-0.000140545
0.00951269
-0.000138018
0.00954653
-0.000135567
0.00957978
-0.000133193
0.00961245
-0.000130901
0.00964457
-0.000128689
0.00967616
-0.000126561
0.00970723
-0.000124515
0.00973781
-0.000122552
0.00976793
-0.00012067
0.00979759
-0.00011887
0.00982683
-0.000117149
0.00985566
-0.000115504
0.00988409
-0.000113935
0.00991216
-0.000112436
0.00993987
-0.000111006
0.00996724
-0.000109641
0.00999429
-0.000108337
0.010021
-0.00010709
0.0100475
-0.000105895
0.0100736
-0.000104749
0.0100995
-0.000103646
0.0101252
-0.000102581
0.0101505
-0.00010155
0.0101757
-0.000100548
0.0102006
-9.95692e-05
0.0102252
-9.86087e-05
0.0102496
-9.76613e-05
0.0102738
-9.67218e-05
0.0102978
-9.57852e-05
0.0103215
-9.48463e-05
0.010345
-9.39001e-05
0.0103683
-9.29416e-05
0.0103913
-9.19661e-05
0.0104141
-9.09688e-05
0.0104366
-8.99452e-05
0.0104589
-8.88908e-05
0.0104809
-8.78015e-05
0.0105026
-8.66731e-05
0.010524
-8.55018e-05
0.0105451
-8.4284e-05
0.0105659
-8.30162e-05
0.0105864
-8.16951e-05
0.0106066
-8.03178e-05
0.0106263
-7.88814e-05
0.0106458
-7.73834e-05
0.0106648
-7.58216e-05
0.0106834
-7.41938e-05
0.0107016
-7.24981e-05
0.0107193
-7.07329e-05
0.0107366
-6.88969e-05
0.0107535
-6.69889e-05
0.0107698
-6.50079e-05
0.0107856
-6.29531e-05
0.0108009
-6.08241e-05
0.0108156
-5.86204e-05
0.0108298
-5.6342e-05
0.0108433
-5.39888e-05
0.0108563
-5.15611e-05
0.0108686
-4.90592e-05
0.0108803
-4.64837e-05
0.0108913
-4.38352e-05
0.0109017
-4.11145e-05
0.0109113
-3.83225e-05
0.0109203
-3.54602e-05
0.0109284
-3.25288e-05
0.0109359
-2.95295e-05
0.0109426
-2.64636e-05
0.0109485
-2.33324e-05
0.0109535
-2.01375e-05
0.0109578
-1.68804e-05
0.0109613
-1.35625e-05
0.0109639
-1.01856e-05
0.0109656
-6.75116e-06
0.0109664
-3.26094e-06
0.0109664
2.8336e-07
0.0109655
3.88e-06
0.0109636
7.52728e-06
0.0109609
1.12234e-05
0.0109572
1.49666e-05
0.0109525
1.87551e-05
0.0109469
2.25871e-05
0.0109403
2.64608e-05
0.0109327
3.03742e-05
0.0109242
3.43256e-05
0.0109146
3.8313e-05
0.0109041
4.23346e-05
0.0108925
4.63884e-05
0.0108799
5.04725e-05
0.0108662
5.45847e-05
0.0108516
5.87231e-05
0.0108359
6.28856e-05
0.0108191
6.70699e-05
0.0108013
7.12739e-05
0.0107824
7.54952e-05
0.0107625
7.97314e-05
0.0107415
8.398e-05
0.0107194
8.82386e-05
0.0106962
9.25044e-05
0.010672
9.67746e-05
0.0106468
0.000101046
0.0106204
0.000105317
0.010593
0.000109583
0.0105645
0.000113841
0.0105349
0.000118088
0.0105043
0.00012232
0.0104726
0.000126534
0.0104399
0.000130726
0.0104061
0.000134892
0.0103713
0.000139029
0.0103355
0.000143131
0.0102986
0.000147195
0.0102607
0.000151216
0.0102219
0.000155191
0.010182
0.000159114
0.0101412
0.00016298
0.0100994
0.000166786
0.0100567
0.000170526
0.010013
0.000174196
0.00996849
0.000177791
0.00992306
0.000181306
0.00987677
0.000184736
0.00982963
0.000188077
0.00978168
0.000191324
0.00973294
0.000194472
0.00968344
0.000197518
0.00963319
0.000200456
0.00958223
0.000203282
0.0095306
0.000205992
0.00947831
0.000208583
0.0094254
0.000211051
0.0093719
0.000213392
0.00931785
0.000215604
0.00926327
0.000217683
0.00920821
0.000219626
0.00915269
0.000221432
0.00909675
0.000223098
0.00904043
0.000224623
0.00898377
0.000226005
0.00892679
0.000227243
0.00886954
0.000228337
0.00881206
0.000229286
0.00875437
0.000230089
0.00869652
0.000230748
0.00863854
0.000231263
0.00858047
0.000231635
0.00852234
0.000231866
0.00846419
0.000231956
0.00840606
0.000231907
0.00834797
0.000231723
0.00828997
0.000231404
0.00823208
0.000230954
0.00817434
0.000230377
0.00811677
0.000229674
0.00805942
0.000228849
0.0080023
0.000227906
0.00794546
0.000226848
0.00788891
0.000225679
0.00783268
0.000224402
0.0077768
0.000223023
0.00772129
0.000221542
0.00766618
0.000219975
0.00761149
0.000218291
0.00755723
0.00021659
0.00750348
0.000214618
0.0074501
0.000213076
0.000210093
0.0062505
-2.50152e-06
0.00625199
-7.50596e-06
0.00625448
-1.25168e-05
0.00625797
-1.75396e-05
0.00626247
-2.2579e-05
0.00626797
-2.76399e-05
0.00627449
-3.27267e-05
0.00628202
-3.78437e-05
0.00629058
-4.29951e-05
0.00630018
-4.81845e-05
0.00631082
-5.34154e-05
0.00632252
-5.86911e-05
0.00633527
-6.40141e-05
0.0063491
-6.93868e-05
0.00636402
-7.48109e-05
0.00638003
-8.02877e-05
0.00639715
-8.58177e-05
0.00641538
-9.14011e-05
0.00643475
-9.70372e-05
0.00645526
-0.000102725
0.00647692
-0.000108461
0.00649974
-0.000114244
0.00652373
-0.00012007
0.00654891
-0.000125933
0.00657527
-0.000131829
0.00660283
-0.000137751
0.00663158
-0.000143691
0.00666154
-0.000149641
0.0066927
-0.000155592
0.00672507
-0.000161534
0.00675863
-0.000167455
0.00679339
-0.000173343
0.00682934
-0.000179185
0.00686646
-0.000184968
0.00690474
-0.000190676
0.00694416
-0.000196295
0.00698471
-0.000201809
0.00702635
-0.000207201
0.00706907
-0.000212456
0.00711283
-0.000217555
0.00715759
-0.000222482
0.00720332
-0.000227221
0.00724998
-0.000231754
0.00729752
-0.000236066
0.00734589
-0.000240142
0.00739505
-0.000243966
0.00744493
-0.000247524
0.00749548
-0.000250804
0.00754664
-0.000253795
0.00759835
-0.000256486
0.00765055
-0.000258868
0.00770316
-0.000260935
0.00775613
-0.000262681
0.00780939
-0.000264102
0.00786286
-0.000265197
0.00791649
-0.000265965
0.0079702
-0.000266409
0.00802393
-0.000266531
0.00807761
-0.000266338
0.00813119
-0.000265835
0.00818459
-0.000265032
0.00823776
-0.000263937
0.00829063
-0.000262564
0.00834317
-0.000260923
0.00839531
-0.000259029
0.008447
-0.000256896
0.0084982
-0.000254539
0.00854887
-0.000251975
0.00859897
-0.00024922
0.00864846
-0.00024629
0.00869731
-0.000243204
0.0087455
-0.000239977
0.008793
-0.000236629
0.00883978
-0.000233174
0.00888584
-0.000229631
0.00893115
-0.000226016
0.00897572
-0.000222345
0.00901952
-0.000218632
0.00906255
-0.000214895
0.00910482
-0.000211145
0.00914632
-0.000207398
0.00918706
-0.000203665
0.00922705
-0.000199959
0.00926629
-0.00019629
0.00930479
-0.00019267
0.00934257
-0.000189107
0.00937964
-0.00018561
0.00941602
-0.000182187
0.00945172
-0.000178844
0.00948676
-0.000175588
0.00952117
-0.000172422
0.00955495
-0.000169352
0.00958814
-0.000166381
0.00962075
-0.000163511
0.00965281
-0.000160745
0.00968433
-0.000158083
0.00971534
-0.000155525
0.00974586
-0.000153072
0.00977591
-0.000150722
0.00980551
-0.000148474
0.00983469
-0.000146326
0.00986346
-0.000144275
0.00989184
-0.000142317
0.00991986
-0.00014045
0.00994752
-0.000138669
0.00997485
-0.000136969
0.0100019
-0.000135346
0.0100286
-0.000133795
0.010055
-0.00013231
0.0100811
-0.000130885
0.010107
-0.000129515
0.0101326
-0.000128193
0.010158
-0.000126913
0.0101831
-0.00012567
0.010208
-0.000124455
0.0102326
-0.000123264
0.010257
-0.000122089
0.0102812
-0.000120924
0.0103052
-0.000119763
0.010329
-0.000118598
0.0103525
-0.000117424
0.0103758
-0.000116235
0.0103989
-0.000115024
0.0104217
-0.000113785
0.0104442
-0.000112514
0.0104666
-0.000111203
0.0104886
-0.000109849
0.0105104
-0.000108445
0.0105319
-0.000106988
0.010553
-0.000105471
0.0105739
-0.000103892
0.0105945
-0.000102246
0.0106147
-0.000100529
0.0106345
-9.8738e-05
0.010654
-9.68694e-05
0.0106731
-9.49205e-05
0.0106918
-9.28886e-05
0.0107101
-9.07715e-05
0.0107279
-8.85671e-05
0.0107453
-8.62737e-05
0.0107622
-8.38898e-05
0.0107786
-8.14142e-05
0.0107945
-7.88461e-05
0.0108099
-7.61847e-05
0.0108247
-7.34296e-05
0.0108389
-7.05808e-05
0.0108526
-6.76382e-05
0.0108656
-6.4602e-05
0.010878
-6.14729e-05
0.0108898
-5.82514e-05
0.0109009
-5.49384e-05
0.0109113
-5.15348e-05
0.010921
-4.80419e-05
0.01093
-4.4461e-05
0.0109383
-4.07935e-05
0.0109458
-3.70409e-05
0.0109525
-3.32049e-05
0.0109585
-2.92872e-05
0.0109637
-2.52897e-05
0.010968
-2.12142e-05
0.0109715
-1.70628e-05
0.0109741
-1.28373e-05
0.0109759
-8.54e-06
0.0109768
-4.17286e-06
0.0109769
2.61968e-07
0.010976
4.76227e-06
0.0109742
9.32591e-06
0.0109715
1.39507e-05
0.0109678
1.86344e-05
0.0109632
2.33747e-05
0.0109576
2.81694e-05
0.010951
3.30162e-05
0.0109435
3.79128e-05
0.010935
4.2857e-05
0.0109254
4.78462e-05
0.0109149
5.28783e-05
0.0109033
5.79506e-05
0.0108907
6.30608e-05
0.0108771
6.82065e-05
0.0108624
7.33849e-05
0.0108467
7.85934e-05
0.01083
8.38295e-05
0.0108122
8.90902e-05
0.0107933
9.43727e-05
0.0107733
9.96741e-05
0.0107523
0.000104991
0.0107302
0.000110321
0.0107071
0.00011566
0.0106829
0.000121004
0.0106576
0.000126351
0.0106312
0.000131697
0.0106037
0.000137036
0.0105752
0.000142367
0.0105456
0.000147683
0.0105149
0.000152982
0.0104832
0.000158258
0.0104504
0.000163507
0.0104166
0.000168723
0.0103817
0.000173903
0.0103458
0.00017904
0.0103089
0.00018413
0.0102709
0.000189166
0.010232
0.000194144
0.010192
0.000199057
0.0101511
0.000203901
0.0101092
0.000208668
0.0100664
0.000213353
0.0100227
0.000217951
0.00997799
0.000222455
0.00993244
0.000226858
0.00988602
0.000231156
0.00983875
0.000235342
0.00979067
0.00023941
0.00974179
0.000243355
0.00969213
0.000247171
0.00964174
0.000250852
0.00959062
0.000254393
0.00953883
0.00025779
0.00948637
0.000261036
0.0094333
0.000264128
0.00937963
0.000267061
0.0093254
0.000269832
0.00927065
0.000272436
0.0092154
0.00027487
0.0091597
0.000277132
0.00910358
0.000279218
0.00904708
0.000281127
0.00899023
0.000282857
0.00893306
0.000284407
0.00887563
0.000285775
0.00881795
0.000286961
0.00876007
0.000287965
0.00870204
0.000288788
0.00864387
0.00028943
0.00858561
0.000289893
0.0085273
0.000290178
0.00846897
0.000290287
0.00841065
0.000290222
0.00835239
0.000289987
0.00829421