/*--------------------------------*- C++ -*----------------------------------*\
| =========                 |                                                 |
| \\      /  F ield         | OpenFOAM: The Open Source CFD Toolbox           |
|  \\    /   O peration     | Version:  2306                                  |
|   \\  /    A nd           | Website:  www.openfoam.com                      |
|    \\/     M anipulation  |                                                 |
\*---------------------------------------------------------------------------*/
FoamFile
{
    version     2.0;
    format      ascii;
    arch        "LSB;label=32;scalar=64";
    class       volScalarField;
    location    "12.5";
    object      T;
}
// * * * * * * * * * * * * * * * * * * * * * * * * * * * * * * * * * * * * * //

dimensions      [0 0 0 1 0 0 0];

internalField   nonuniform List<scalar> 
32768
(
300
300
300
300
300
300
300
300
300
300
300
300
300
300
300
300
300
300
300
300
300
300
300
300
300
300
300
300
300
300
300
300
300
300
300
300
300
300
300
300
300
300
300
300
300
300
300
300
300
300
300
300
300
300
300
300
300
300
300
300
300
300
300
300
300
300
300
300
300
300
300
300
300
300
300
300
300
300
300
300
300
300
300
300
300
300
300
300
299.999
299.999
299.999
299.999
299.999
299.999
299.999
299.999
299.999
299.998
299.998
299.998
299.998
299.997
299.997
299.997
299.996
299.996
299.996
299.995
299.995
299.994
299.994
299.993
299.992
299.991
299.991
299.99
299.989
299.988
299.987
299.985
299.984
299.983
299.981
299.98
299.978
299.976
299.974
299.972
299.97
299.967
299.965
299.962
299.959
299.956
299.953
299.949
299.946
299.942
299.937
299.933
299.929
299.924
299.919
299.913
299.907
299.901
299.895
299.889
299.882
299.874
299.867
299.859
299.85
299.842
299.833
299.823
299.813
299.803
299.792
299.781
299.769
299.757
299.744
299.731
299.718
299.704
299.689
299.674
299.659
299.643
299.626
299.609
299.591
299.573
299.555
299.535
299.516
299.495
299.474
299.453
299.431
299.409
299.386
299.362
299.338
299.313
299.288
299.262
299.236
299.209
299.182
299.154
299.125
299.097
299.067
299.037
299.007
298.976
298.944
298.913
298.88
298.848
298.814
298.781
298.747
298.712
298.677
298.642
298.606
298.57
298.534
298.497
298.46
298.423
298.385
298.347
298.309
298.27
298.231
298.192
298.153
298.113
298.073
298.033
297.993
297.953
297.912
297.871
297.83
297.789
297.748
297.707
297.666
297.624
297.582
297.539
297.493
297.442
297.378
297.281
297.107
296.749
295.956
294.142
289.949
280.249
257.887
206.606
89.7056
-175.143
-771.473
-2105.88
-5073.93
-11635.5
-26060.1
-57568.9
300
300
300
300
300
300
300
300
300
300
300
300
300
300
300
300
300
300
300
300
300
300
300
300
300
300
300
300
300
300
300
300
300
300
300
300
300
300
300
300
300
300
300
300
300
300
300
300
300
300
300
300
300
300
300
300
300
300
300
300
300
300
300
300
300
300
300
300
300
300
300
300
300
300
300
300
300
300
300
300
300
300
300
300
300
300
300
299.999
299.999
299.999
299.999
299.999
299.999
299.999
299.999
299.999
299.998
299.998
299.998
299.998
299.997
299.997
299.997
299.996
299.996
299.996
299.995
299.995
299.994
299.994
299.993
299.992
299.991
299.991
299.99
299.989
299.988
299.987
299.985
299.984
299.983
299.981
299.98
299.978
299.976
299.974
299.972
299.97
299.967
299.965
299.962
299.959
299.956
299.953
299.949
299.945
299.942
299.937
299.933
299.928
299.924
299.918
299.913
299.907
299.901
299.895
299.888
299.881
299.874
299.866
299.858
299.85
299.841
299.832
299.822
299.812
299.802
299.791
299.78
299.768
299.756
299.743
299.73
299.717
299.703
299.688
299.673
299.658
299.641
299.625
299.608
299.59
299.572
299.553
299.534
299.514
299.494
299.473
299.452
299.43
299.407
299.384
299.361
299.337
299.312
299.287
299.261
299.235
299.208
299.181
299.153
299.125
299.096
299.067
299.037
299.007
298.976
298.945
298.913
298.881
298.848
298.815
298.782
298.748
298.714
298.679
298.644
298.608
298.573
298.536
298.5
298.463
298.426
298.389
298.351
298.313
298.275
298.236
298.197
298.158
298.119
298.079
298.04
298
297.96
297.92
297.879
297.839
297.798
297.757
297.716
297.675
297.634
297.593
297.551
297.508
297.463
297.412
297.348
297.252
297.078
296.721
295.929
294.117
289.927
280.234
257.885
206.63
89.7767
-174.99
-771.185
-2105.41
-5073.28
-11635
-26061.1
-57575.7
300
300
300
300
300
300
300
300
300
300
300
300
300
300
300
300
300
300
300
300
300
300
300
300
300
300
300
300
300
300
300
300
300
300
300
300
300
300
300
300
300
300
300
300
300
300
300
300
300
300
300
300
300
300
300
300
300
300
300
300
300
300
300
300
300
300
300
300
300
300
300
300
300
300
300
300
300
300
300
300
300
300
300
300
300
300
299.999
299.999
299.999
299.999
299.999
299.999
299.999
299.999
299.998
299.998
299.998
299.998
299.998
299.997
299.997
299.997
299.996
299.996
299.995
299.995
299.994
299.994
299.993
299.992
299.992
299.991
299.99
299.989
299.988
299.987
299.986
299.984
299.983
299.981
299.98
299.978
299.976
299.974
299.972
299.97
299.968
299.965
299.962
299.959
299.956
299.953
299.95
299.946
299.942
299.938
299.933
299.929
299.924
299.919
299.913
299.907
299.901
299.895
299.888
299.881
299.874
299.866
299.858
299.85
299.841
299.832
299.822
299.812
299.802
299.791
299.779
299.768
299.755
299.743
299.73
299.716
299.702
299.687
299.672
299.656
299.64
299.624
299.606
299.589
299.571
299.552
299.533
299.513
299.492
299.472
299.45
299.428
299.406
299.383
299.359
299.335
299.31
299.285
299.26
299.234
299.207
299.18
299.152
299.124
299.095
299.066
299.036
299.006
298.976
298.945
298.913
298.881
298.849
298.816
298.783
298.75
298.716
298.682
298.647
298.612
298.576
298.541
298.505
298.468
298.432
298.395
298.358
298.32
298.282
298.244
298.206
298.168
298.129
298.09
298.051
298.012
297.972
297.933
297.893
297.853
297.813
297.773
297.733
297.693
297.652
297.612
297.571
297.53
297.489
297.446
297.402
297.352
297.288
297.193
297.02
296.664
295.874
294.066
289.884
280.205
257.886
206.685
89.9332
-174.654
-770.555
-2104.36
-5071.81
-11633.8
-26062.6
-57588.4
300
300
300
300
300
300
300
300
300
300
300
300
300
300
300
300
300
300
300
300
300
300
300
300
300
300
300
300
300
300
300
300
300
300
300
300
300
300
300
300
300
300
300
300
300
300
300
300
300
300
300
300
300
300
300
300
300
300
300
300
300
300
300
300
300
300
300
300
300
300
300
300
300
300
300
300
300
300
300
300
300
300
300
300
299.999
299.999
299.999
299.999
299.999
299.999
299.999
299.999
299.998
299.998
299.998
299.998
299.998
299.997
299.997
299.997
299.996
299.996
299.995
299.995
299.994
299.994
299.993
299.992
299.991
299.991
299.99
299.989
299.988
299.986
299.985
299.984
299.982
299.981
299.979
299.977
299.975
299.973
299.971
299.969
299.966
299.964
299.961
299.958
299.955
299.951
299.947
299.944
299.939
299.935
299.931
299.926
299.921
299.915
299.909
299.903
299.897
299.89
299.883
299.876
299.868
299.86
299.852
299.843
299.834
299.824
299.814
299.804
299.793
299.781
299.769
299.757
299.744
299.731
299.717
299.703
299.688
299.673
299.658
299.641
299.625
299.607
299.59
299.571
299.552
299.533
299.513
299.493
299.472
299.45
299.428
299.406
299.383
299.359
299.335
299.31
299.285
299.259
299.233
299.207
299.179
299.152
299.124
299.095
299.066
299.037
299.007
298.976
298.945
298.914
298.883
298.851
298.818
298.785
298.752
298.719
298.685
298.65
298.616
298.581
298.546
298.51
298.474
298.438
298.402
298.365
298.328
298.291
298.254
298.216
298.179
298.141
298.103
298.064
298.026
297.987
297.949
297.91
297.871
297.832
297.792
297.753
297.714
297.674
297.635
297.595
297.555
297.515
297.476
297.435
297.395
297.353
297.31
297.261
297.198
297.104
296.933
296.579
295.792
293.99
289.82
280.164
257.887
206.771
90.1738
-174.139
-769.589
-2102.74
-5069.55
-11631.7
-26064.7
-57607.4
300
300
300
300
300
300
300
300
300
300
300
300
300
300
300
300
300
300
300
300
300
300
300
300
300
300
300
300
300
300
300
300
300
300
300
300
300
300
300
300
300
300
300
300
300
300
300
300
300
300
300
300
300
300
300
300
300
300
300
300
300
300
300
300
300
300
300
300
300
300
300
300
300
300
300
300
300
300
300
300
300
300
299.999
299.999
299.999
299.999
299.999
299.999
299.999
299.999
299.998
299.998
299.998
299.998
299.997
299.997
299.997
299.996
299.996
299.996
299.995
299.994
299.994
299.993
299.993
299.992
299.991
299.99
299.989
299.988
299.987
299.986
299.984
299.983
299.981
299.98
299.978
299.976
299.974
299.971
299.969
299.967
299.964
299.961
299.958
299.955
299.951
299.947
299.943
299.939
299.935
299.93
299.925
299.92
299.914
299.908
299.902
299.896
299.889
299.882
299.874
299.866
299.858
299.849
299.84
299.83
299.82
299.81
299.799
299.788
299.776
299.764
299.751
299.738
299.724
299.71
299.695
299.68
299.664
299.648
299.631
299.614
299.596
299.577
299.559
299.539
299.519
299.498
299.477
299.456
299.433
299.411
299.388
299.364
299.34
299.315
299.289
299.264
299.237
299.21
299.183
299.155
299.127
299.099
299.069
299.04
299.01
298.979
298.949
298.917
298.886
298.854
298.821
298.789
298.756
298.722
298.688
298.654
298.62
298.585
298.55
298.515
298.48
298.444
298.408
298.372
298.336
298.299
298.263
298.226
298.189
298.151
298.114
298.076
298.039
298.001
297.963
297.925
297.887
297.849
297.811
297.772
297.734
297.696
297.657
297.618
297.58
297.541
297.503
297.464
297.425
297.386
297.348
297.309
297.269
297.229
297.186
297.139
297.078
296.985
296.816
296.464
295.682
293.888
289.733
280.107
257.89
206.885
90.4951
-173.451
-768.299
-2100.59
-5066.52
-11629
-26067.6
-57632.6
300
300
300
300
300
300
300
300
300
300
300
300
300
300
300
300
300
300
300
300
300
300
300
300
300
300
300
300
300
300
300
300
300
300
300
300
300
300
300
300
300
300
300
300
300
300
300
300
300
300
300
300
300
300
300
300
300
300
300
300
300
300
300
300
300
300
300
300
300
300
300
300
300
300
300
300
300
300
300
300
299.999
299.999
299.999
299.999
299.999
299.999
299.999
299.999
299.998
299.998
299.998
299.998
299.997
299.997
299.997
299.996
299.996
299.995
299.995
299.994
299.993
299.993
299.992
299.991
299.99
299.989
299.988
299.987
299.986
299.984
299.983
299.981
299.979
299.978
299.976
299.974
299.971
299.969
299.966
299.963
299.96
299.957
299.954
299.95
299.946
299.942
299.938
299.933
299.928
299.923
299.918
299.912
299.906
299.899
299.892
299.885
299.877
299.869
299.861
299.852
299.843
299.833
299.823
299.813
299.802
299.79
299.778
299.766
299.753
299.739
299.725
299.711
299.696
299.68
299.664
299.647
299.63
299.612
299.594
299.575
299.555
299.535
299.514
299.493
299.471
299.449
299.426
299.403
299.379
299.354
299.329
299.303
299.277
299.251
299.224
299.196
299.168
299.139
299.11
299.081
299.051
299.02
298.99
298.958
298.927
298.895
298.862
298.83
298.797
298.763
298.73
298.696
298.661
298.627
298.592
298.557
298.522
298.486
298.451
298.415
298.379
298.342
298.306
298.269
298.233
298.196
298.159
298.122
298.085
298.048
298.01
297.973
297.936
297.898
297.861
297.823
297.786
297.748
297.711
297.673
297.636
297.598
297.561
297.523
297.486
297.448
297.411
297.373
297.336
297.298
297.261
297.223
297.186
297.149
297.111
297.072
297.031
296.985
296.926
296.835
296.668
296.32
295.544
293.76
289.624
280.036
257.891
207.025
90.893
-172.597
-766.698
-2097.92
-5062.78
-11625.7
-26071.2
-57664.2
300
300
300
300
300
300
300
300
300
300
300
300
300
300
300
300
300
300
300
300
300
300
300
300
300
300
300
300
300
300
300
300
300
300
300
300
300
300
300
300
300
300
300
300
300
300
300
300
300
300
300
300
300
300
300
300
300
300
300
300
300
300
300
300
300
300
300
300
300
300
300
300
300
300
300
300
300
300
299.999
299.999
299.999
299.999
299.999
299.999
299.999
299.998
299.998
299.998
299.998
299.997
299.997
299.997
299.996
299.996
299.995
299.995
299.994
299.994
299.993
299.992
299.991
299.99
299.989
299.988
299.987
299.986
299.984
299.983
299.981
299.979
299.977
299.975
299.973
299.971
299.968
299.965
299.963
299.959
299.956
299.952
299.949
299.945
299.94
299.936
299.931
299.926
299.92
299.914
299.908
299.902
299.895
299.887
299.88
299.872
299.863
299.854
299.845
299.835
299.825
299.814
299.802
299.791
299.778
299.765
299.752
299.738
299.723
299.708
299.693
299.676
299.659
299.642
299.624
299.605
299.586
299.566
299.546
299.524
299.503
299.48
299.457
299.434
299.41
299.385
299.36
299.334
299.308
299.281
299.253
299.225
299.196
299.167
299.138
299.108
299.077
299.046
299.014
298.982
298.95
298.917
298.884
298.851
298.817
298.783
298.748
298.713
298.678
298.643
298.607
298.571
298.535
298.499
298.463
298.426
298.389
298.352
298.315
298.278
298.241
298.204
298.166
298.129
298.091
298.054
298.017
297.979
297.942
297.904
297.867
297.829
297.792
297.755
297.717
297.68
297.643
297.606
297.569
297.532
297.496
297.459
297.422
297.386
297.349
297.313
297.277
297.241
297.205
297.169
297.133
297.097
297.061
297.026
296.99
296.954
296.918
296.882
296.843
296.799
296.742
296.653
296.49
296.146
295.377
293.605
289.492
279.948
257.89
207.189
91.3629
-171.587
-764.801
-2094.76
-5058.36
-11621.9
-26075.8
-57702.4
300
300
300
300
300
300
300
300
300
300
300
300
300
300
300
300
300
300
300
300
300
300
300
300
300
300
300
300
300
300
300
300
300
300
300
300
300
300
300
300
300
300
300
300
300
300
300
300
300
300
300
300
300
300
300
300
300
300
300
300
300
300
300
300
300
300
300
300
300
300
300
300
300
300
300
299.999
299.999
299.999
299.999
299.999
299.999
299.999
299.999
299.998
299.998
299.998
299.998
299.997
299.997
299.996
299.996
299.996
299.995
299.994
299.994
299.993
299.992
299.991
299.99
299.989
299.988
299.987
299.986
299.984
299.983
299.981
299.979
299.977
299.975
299.973
299.97
299.968
299.965
299.962
299.958
299.955
299.951
299.947
299.943
299.938
299.933
299.928
299.923
299.917
299.911
299.904
299.897
299.89
299.882
299.874
299.865
299.856
299.846
299.836
299.825
299.814
299.803
299.79
299.777
299.764
299.75
299.735
299.72
299.704
299.688
299.671
299.653
299.635
299.616
299.596
299.575
299.554
299.533
299.51
299.487
299.463
299.439
299.414
299.388
299.362
299.335
299.307
299.279
299.25
299.22
299.19
299.159
299.128
299.096
299.064
299.031
298.998
298.964
298.93
298.895
298.86
298.825
298.789
298.753
298.716
298.679
298.642
298.605
298.567
298.529
298.491
298.453
298.415
298.376
298.338
298.299
298.26
298.221
298.182
298.143
298.104
298.066
298.027
297.988
297.949
297.91
297.872
297.833
297.795
297.757
297.719
297.681
297.643
297.605
297.568
297.531
297.493
297.457
297.42
297.383
297.347
297.311
297.275
297.239
297.204
297.169
297.134
297.099
297.064
297.029
296.995
296.961
296.927
296.893
296.859
296.826
296.792
296.759
296.725
296.691
296.657
296.621
296.579
296.525
296.439
296.279
295.941
295.179
293.422
289.335
279.843
257.884
207.373
91.8995
-170.428
-762.626
-2091.14
-5053.32
-11617.6
-26081.4
-57747.3
300
300
300
300
300
300
300
300
300
300
300
300
300
300
300
300
300
300
300
300
300
300
300
300
300
300
300
300
300
300
300
300
300
300
300
300
300
300
300
300
300
300
300
300
300
300
300
300
300
300
300
300
300
300
300
300
300
300
300
300
300
300
300
300
300
300
300
300
300
300
300
300
300
299.999
299.999
299.999
299.999
299.999
299.999
299.999
299.999
299.998
299.998
299.998
299.997
299.997
299.997
299.996
299.996
299.995
299.995
299.994
299.993
299.992
299.992
299.991
299.989
299.988
299.987
299.986
299.984
299.983
299.981
299.979
299.977
299.975
299.972
299.97
299.967
299.964
299.961
299.957
299.954
299.95
299.945
299.941
299.936
299.931
299.925
299.919
299.913
299.907
299.899
299.892
299.884
299.876
299.867
299.858
299.848
299.837
299.826
299.815
299.803
299.79
299.777
299.763
299.748
299.733
299.717
299.701
299.683
299.665
299.646
299.627
299.607
299.586
299.564
299.542
299.518
299.494
299.47
299.444
299.418
299.391
299.363
299.335
299.306
299.276
299.245
299.214
299.182
299.149
299.116
299.082
299.048
299.012
298.977
298.941
298.904
298.867
298.829
298.791
298.752
298.713
298.674
298.634
298.594
298.554
298.513
298.472
298.431
298.39
298.349
298.307
298.266
298.224
298.182
298.141
298.099
298.057
298.016
297.974
297.933
297.891
297.85
297.809
297.768
297.727
297.687
297.647
297.607
297.567
297.528
297.489
297.45
297.411
297.373
297.335
297.297
297.26
297.223
297.187
297.15
297.115
297.079
297.044
297.009
296.974
296.94
296.906
296.873
296.839
296.806
296.774
296.741
296.709
296.677
296.645
296.614
296.583
296.552
296.521
296.49
296.46
296.429
296.397
296.363
296.325
296.274
296.192
296.036
295.704
294.951
293.21
289.153
279.718
257.872
207.575
92.4966
-169.134
-760.194
-2087.1
-5047.74
-11612.9
-26088.2
-57799.1
300
300
300
300
300
300
300
300
300
300
300
300
300
300
300
300
300
300
300
300
300
300
300
300
300
300
300
300
300
300
300
300
300
300
300
300
300
300
300
300
300
300
300
300
300
300
300
300
300
300
300
300
300
300
300
300
300
300
300
300
300
300
300
300
300
300
300
300
300
300
300
299.999
299.999
299.999
299.999
299.999
299.999
299.999
299.998
299.998
299.998
299.998
299.997
299.997
299.996
299.996
299.995
299.995
299.994
299.993
299.993
299.992
299.991
299.99
299.989
299.987
299.986
299.984
299.983
299.981
299.979
299.977
299.974
299.972
299.969
299.966
299.963
299.96
299.956
299.952
299.948
299.944
299.939
299.934
299.928
299.922
299.916
299.91
299.903
299.895
299.887
299.879
299.87
299.86
299.85
299.839
299.828
299.816
299.804
299.791
299.777
299.763
299.748
299.732
299.715
299.698
299.679
299.66
299.641
299.62
299.599
299.576
299.553
299.529
299.505
299.479
299.452
299.425
299.397
299.368
299.338
299.307
299.275
299.243
299.21
299.176
299.141
299.105
299.069
299.032
298.994
298.955
298.916
298.877
298.836
298.795
298.754
298.712
298.67
298.627
298.583
298.54
298.496
298.451
298.407
298.362
298.316
298.271
298.226
298.18
298.134
298.089
298.043
297.997
297.952
297.906
297.861
297.815
297.77
297.725
297.681
297.636
297.592
297.548
297.505
297.461
297.419
297.376
297.334
297.293
297.251
297.211
297.171
297.131
297.092
297.053
297.015
296.977
296.94
296.903
296.867
296.831
296.796
296.761
296.727
296.693
296.66
296.627
296.595
296.563
296.532
296.501
296.47
296.44
296.41
296.381
296.352
296.323
296.295
296.266
296.239
296.211
296.183
296.156
296.129
296.1
296.07
296.035
295.988
295.91
295.759
295.433
294.691
292.967
288.944
279.574
257.851
207.79
93.1473
-167.716
-757.527
-2082.68
-5041.67
-11608.1
-26096.5
-57858.2
300
300
300
300
300
300
300
300
300
300
300
300
300
300
300
300
300
300
300
300
300
300
300
300
300
300
300
300
300
300
300
300
300
300
300
300
300
300
300
300
300
300
300
300
300
300
300
300
300
300
300
300
300
300
300
300
300
300
300
300
300
300
300
300
300
300
300
300
300
299.999
299.999
299.999
299.999
299.999
299.999
299.999
299.998
299.998
299.998
299.998
299.997
299.997
299.996
299.996
299.995
299.995
299.994
299.993
299.992
299.991
299.99
299.989
299.988
299.986
299.985
299.983
299.981
299.979
299.977
299.974
299.972
299.969
299.966
299.963
299.959
299.955
299.951
299.947
299.942
299.937
299.932
299.926
299.92
299.913
299.906
299.899
299.891
299.882
299.873
299.864
299.853
299.843
299.831
299.819
299.806
299.793
299.779
299.764
299.748
299.732
299.714
299.696
299.677
299.657
299.637
299.615
299.592
299.569
299.544
299.519
299.492
299.465
299.437
299.407
299.377
299.346
299.313
299.28
299.246
299.21
299.174
299.137
299.099
299.06
299.02
298.98
298.938
298.896
298.853
298.809
298.764
298.719
298.673
298.627
298.58
298.532
298.484
298.436
298.387
298.337
298.288
298.238
298.188
298.137
298.087
298.036
297.985
297.934
297.883
297.833
297.782
297.731
297.681
297.631
297.581
297.531
297.482
297.433
297.384
297.336
297.288
297.24
297.194
297.147
297.102
297.056
297.012
296.968
296.924
296.882
296.84
296.798
296.757
296.717
296.678
296.64
296.602
296.565
296.528
296.492
296.457
296.423
296.389
296.356
296.324
296.292
296.261
296.231
296.201
296.172
296.143
296.115
296.088
296.061
296.034
296.008
295.983
295.958
295.933
295.908
295.884
295.86
295.837
295.813
295.79
295.766
295.74
295.709
295.666
295.593
295.448
295.129
294.399
292.694
288.708
279.407
257.818
208.014
93.8437
-166.189
-754.652
-2077.92
-5035.21
-11603.2
-26106.4
-57924.8
300
300
300
300
300
300
300
300
300
300
300
300
300
300
300
300
300
300
300
300
300
300
300
300
300
300
300
300
300
300
300
300
300
300
300
300
300
300
300
300
300
300
300
300
300
300
300
300
300
300
300
300
300
300
300
300
300
300
300
300
300
300
300
300
300
300
300
300
299.999
299.999
299.999
299.999
299.999
299.999
299.998
299.998
299.998
299.997
299.997
299.997
299.996
299.996
299.995
299.994
299.993
299.993
299.992
299.99
299.989
299.988
299.987
299.985
299.983
299.981
299.979
299.977
299.975
299.972
299.969
299.966
299.963
299.959
299.955
299.951
299.946
299.941
299.936
299.93
299.924
299.918
299.911
299.903
299.895
299.887
299.878
299.868
299.858
299.847
299.835
299.823
299.81
299.796
299.782
299.767
299.751
299.734
299.716
299.697
299.677
299.657
299.635
299.612
299.588
299.564
299.538
299.511
299.483
299.454
299.423
299.392
299.36
299.326
299.291
299.255
299.218
299.18
299.141
299.1
299.059
299.016
298.973
298.928
298.883
298.836
298.789
298.74
298.691
298.641
298.59
298.538
298.486
298.433
298.379
298.325
298.271
298.215
298.16
298.104
298.048
297.991
297.934
297.878
297.821
297.763
297.706
297.649
297.592
297.536
297.479
297.423
297.366
297.311
297.255
297.2
297.146
297.092
297.038
296.986
296.933
296.882
296.831
296.781
296.731
296.683
296.635
296.588
296.542
296.496
296.452
296.408
296.366
296.324
296.283
296.244
296.205
296.167
296.13
296.094
296.059
296.024
295.991
295.959
295.927
295.897
295.867
295.838
295.81
295.782
295.756
295.73
295.705
295.681
295.657
295.634
295.611
295.589
295.568
295.547
295.526
295.506
295.487
295.467
295.448
295.43
295.411
295.391
295.37
295.344
295.306
295.239
295.1
294.79
294.072
292.389
288.441
279.215
257.772
208.241
94.5769
-164.569
-751.601
-2072.9
-5028.45
-11598.3
-26118.3
-57999.5
300
300
300
300
300
300
300
300
300
300
300
300
300
300
300
300
300
300
300
300
300
300
300
300
300
300
300
300
300
300
300
300
300
300
300
300
300
300
300
300
300
300
300
300
300
300
300
300
300
300
300
300
300
300
300
300
300
300
300
300
300
300
300
300
300
300
299.999
299.999
299.999
299.999
299.999
299.999
299.998
299.998
299.998
299.997
299.997
299.996
299.996
299.995
299.995
299.994
299.993
299.992
299.991
299.99
299.989
299.987
299.986
299.984
299.982
299.98
299.977
299.975
299.972
299.969
299.966
299.963
299.959
299.955
299.95
299.946
299.94
299.935
299.929
299.923
299.916
299.908
299.9
299.892
299.883
299.874
299.863
299.852
299.841
299.828
299.815
299.802
299.787
299.771
299.755
299.738
299.719
299.7
299.68
299.658
299.636
299.612
299.587
299.561
299.534
299.506
299.477
299.446
299.414
299.38
299.346
299.31
299.273
299.234
299.194
299.153
299.111
299.067
299.022
298.975
298.928
298.879
298.829
298.778
298.726
298.672
298.618
298.563
298.506
298.449
298.391
298.332
298.272
298.211
298.15
298.088
298.026
297.963
297.9
297.836
297.772
297.708
297.644
297.579
297.515
297.45
297.386
297.322
297.257
297.194
297.13
297.067
297.004
296.942
296.88
296.819
296.758
296.699
296.64
296.581
296.524
296.467
296.412
296.357
296.303
296.25
296.198
296.148
296.098
296.05
296.002
295.956
295.911
295.867
295.825
295.783
295.743
295.704
295.666
295.629
295.594
295.56
295.527
295.495
295.464
295.434
295.406
295.378
295.352
295.326
295.302
295.278
295.256
295.234
295.213
295.193
295.174
295.156
295.138
295.121
295.105
295.089
295.074
295.059
295.044
295.03
295.017
295.003
294.99
294.976
294.96
294.94
294.908
294.847
294.715
294.414
293.71
292.05
288.144
278.998
257.707
208.467
95.3368
-162.876
-748.408
-2067.66
-5021.53
-11593.8
-26132.4
-58082.7
300
300
300
300
300
300
300
300
300
300
300
300
300
300
300
300
300
300
300
300
300
300
300
300
300
300
300
300
300
300
300
300
300
300
300
300
300
300
300
300
300
300
300
300
300
300
300
300
300
300
300
300
300
300
300
300
300
300
300
300
300
300
300
300
299.999
299.999
299.999
299.999
299.999
299.999
299.998
299.998
299.998
299.997
299.997
299.996
299.996
299.995
299.994
299.994
299.993
299.992
299.99
299.989
299.988
299.986
299.984
299.983
299.98
299.978
299.976
299.973
299.97
299.967
299.963
299.959
299.955
299.95
299.945
299.94
299.934
299.928
299.921
299.914
299.907
299.898
299.889
299.88
299.87
299.859
299.848
299.835
299.822
299.808
299.793
299.778
299.761
299.744
299.725
299.705
299.684
299.662
299.639
299.615
299.59
299.563
299.535
299.505
299.474
299.442
299.408
299.373
299.336
299.298
299.259
299.218
299.175
299.131
299.085
299.038
298.989
298.939
298.888
298.835
298.78
298.724
298.667
298.608
298.548
298.487
298.425
298.361
298.297
298.231
298.164
298.097
298.028
297.959
297.889
297.818
297.747
297.676
297.603
297.531
297.458
297.385
297.312
297.239
297.165
297.092
297.019
296.947
296.874
296.802
296.731
296.659
296.589
296.519
296.45
296.382
296.314
296.247
296.182
296.117
296.054
295.991
295.93
295.869
295.811
295.753
295.696
295.641
295.588
295.536
295.485
295.435
295.387
295.341
295.296
295.252
295.21
295.17
295.131
295.093
295.057
295.023
294.989
294.958
294.927
294.899
294.871
294.845
294.82
294.797
294.775
294.754
294.734
294.715
294.698
294.681
294.666
294.651
294.637
294.625
294.613
294.601
294.591
294.581
294.572
294.563
294.555
294.547
294.54
294.533
294.526
294.518
294.509
294.495
294.469
294.415
294.292
294.001
293.311
291.676
287.814
278.752
257.622
208.686
96.112
-161.131
-745.115
-2062.29
-5014.56
-11589.9
-26149.2
-58175
300
300
300
300
300
300
300
300
300
300
300
300
300
300
300
300
300
300
300
300
300
300
300
300
300
300
300
300
300
300
300
300
300
300
300
300
300
300
300
300
300
300
300
300
300
300
300
300
300
300
300
300
300
300
300
300
300
300
300
300
300
300
299.999
299.999
299.999
299.999
299.999
299.999
299.998
299.998
299.998
299.997
299.997
299.996
299.996
299.995
299.994
299.993
299.992
299.991
299.99
299.989
299.987
299.985
299.984
299.981
299.979
299.977
299.974
299.971
299.967
299.964
299.96
299.955
299.951
299.946
299.94
299.934
299.928
299.921
299.913
299.905
299.897
299.887
299.878
299.867
299.856
299.843
299.83
299.817
299.802
299.786
299.769
299.752
299.733
299.713
299.692
299.67
299.646
299.621
299.595
299.567
299.538
299.508
299.476
299.442
299.407
299.37
299.332
299.292
299.25
299.207
299.162
299.115
299.066
299.015
298.963
298.909
298.854
298.796
298.737
298.676
298.614
298.55
298.484
298.417
298.348
298.278
298.207
298.134
298.06
297.984
297.908
297.831
297.752
297.673
297.593
297.512
297.431
297.349
297.266
297.184
297.101
297.017
296.934
296.851
296.768
296.684
296.602
296.519
296.437
296.356
296.275
296.195
296.115
296.037
295.959
295.882
295.807
295.732
295.659
295.587
295.516
295.447
295.379
295.312
295.247
295.184
295.122
295.062
295.004
294.947
294.892
294.839
294.787
294.738
294.69
294.644
294.599
294.557
294.516
294.478
294.441
294.406
294.372
294.341
294.311
294.283
294.256
294.232
294.209
294.187
294.167
294.149
294.132
294.116
294.102
294.089
294.078
294.068
294.058
294.05
294.043
294.037
294.032
294.028
294.024
294.021
294.019
294.018
294.017
294.016
294.016
294.016
294.016
294.016
294.014
294.007
293.989
293.943
293.828
293.549
292.875
291.266
287.451
278.475
257.512
208.889
96.8898
-159.358
-741.766
-2056.87
-5007.71
-11586.8
-26169.1
-58277
300
300
300
300
300
300
300
300
300
300
300
300
300
300
300
300
300
300
300
300
300
300
300
300
300
300
300
300
300
300
300
300
300
300
300
300
300
300
300
300
300
300
300
300
300
300
300
300
300
300
300
300
300
300
300
300
300
300
300
300
300
299.999
299.999
299.999
299.999
299.999
299.998
299.998
299.998
299.997
299.997
299.996
299.996
299.995
299.994
299.993
299.992
299.991
299.99
299.988
299.986
299.985
299.983
299.98
299.978
299.975
299.972
299.969
299.965
299.961
299.956
299.952
299.947
299.941
299.935
299.928
299.921
299.913
299.905
299.896
299.886
299.876
299.865
299.853
299.84
299.826
299.812
299.796
299.78
299.762
299.743
299.723
299.702
299.679
299.656
299.63
299.604
299.576
299.546
299.515
299.482
299.447
299.411
299.373
299.333
299.291
299.247
299.202
299.154
299.105
299.053
299
298.944
298.886
298.827
298.765
298.701
298.636
298.568
298.499
298.427
298.354
298.279
298.202
298.123
298.043
297.961
297.877
297.793
297.706
297.619
297.53
297.441
297.35
297.258
297.166
297.073
296.979
296.885
296.79
296.696
296.601
296.506
296.411
296.316
296.222
296.128
296.034
295.941
295.849
295.757
295.667
295.577
295.488
295.401
295.315
295.23
295.146
295.064
294.984
294.905
294.827
294.752
294.678
294.606
294.536
294.468
294.402
294.338
294.276
294.216
294.159
294.103
294.05
293.998
293.949
293.903
293.858
293.815
293.775
293.737
293.701
293.667
293.636
293.606
293.579
293.553
293.53
293.509
293.489
293.472
293.456
293.442
293.43
293.42
293.411
293.404
293.398
293.394
293.391
293.389
293.388
293.389
293.391
293.394
293.397
293.402
293.407
293.413
293.42
293.427
293.435
293.443
293.452
293.46
293.468
293.474
293.476
293.466
293.429
293.324
293.057
292.4
290.818
287.051
278.165
257.372
209.071
97.6555
-157.585
-738.417
-2051.51
-5001.17
-11584.8
-26192.7
-58389.5
300
300
300
300
300
300
300
300
300
300
300
300
300
300
300
300
300
300
300
300
300
300
300
300
300
300
300
300
300
300
300
300
300
300
300
300
300
300
300
300
300
300
300
300
300
300
300
300
300
300
300
300
300
300
300
300
300
300
300
299.999
299.999
299.999
299.999
299.999
299.999
299.998
299.998
299.997
299.997
299.996
299.996
299.995
299.994
299.993
299.992
299.991
299.989
299.988
299.986
299.984
299.982
299.979
299.976
299.973
299.97
299.966
299.962
299.958
299.953
299.948
299.942
299.936
299.929
299.922
299.914
299.905
299.896
299.886
299.875
299.863
299.851
299.838
299.823
299.808
299.792
299.774
299.755
299.736
299.714
299.692
299.668
299.643
299.616
299.587
299.557
299.526
299.492
299.457
299.419
299.38
299.339
299.296
299.251
299.203
299.154
299.102
299.048
298.991
298.933
298.872
298.808
298.743
298.675
298.604
298.532
298.457
298.38
298.3
298.218
298.134
298.048
297.96
297.87
297.779
297.685
297.589
297.492
297.394
297.294
297.192
297.089
296.986
296.881
296.775
296.669
296.562
296.454
296.346
296.238
296.13
296.022
295.914
295.806
295.698
295.591
295.485
295.38
295.275
295.171
295.069
294.967
294.867
294.769
294.671
294.576
294.482
294.39
294.3
294.211
294.125
294.041
293.959
293.879
293.802
293.727
293.654
293.583
293.515
293.45