/*--------------------------------*- C++ -*----------------------------------*\
| =========                 |                                                 |
| \\      /  F ield         | OpenFOAM: The Open Source CFD Toolbox           |
|  \\    /   O peration     | Version:  2306                                  |
|   \\  /    A nd           | Website:  www.openfoam.com                      |
|    \\/     M anipulation  |                                                 |
\*---------------------------------------------------------------------------*/
FoamFile
{
    version     2.0;
    format      ascii;
    arch        "LSB;label=32;scalar=64";
    class       volVectorField;
    location    "12.5";
    object      U;
}
// * * * * * * * * * * * * * * * * * * * * * * * * * * * * * * * * * * * * * //

dimensions      [0 1 -1 0 0 0 0];

internalField   nonuniform List<vector> 
32768
(
(1.00001 -4.00404e-05 0)
(1.00017 -0.000120328 0)
(1.00048 -0.000200768 0)
(1.00096 -0.000281362 0)
(1.00161 -0.000362212 0)
(1.00241 -0.000443415 0)
(1.00338 -0.000525031 0)
(1.00452 -0.000607116 0)
(1.00581 -0.000689729 0)
(1.00727 -0.000772928 0)
(1.0089 -0.000856767 0)
(1.0107 -0.000941294 0)
(1.01267 -0.00102655 0)
(1.01481 -0.00111256 0)
(1.01712 -0.00119937 0)
(1.01961 -0.00128697 0)
(1.02227 -0.00137538 0)
(1.02511 -0.00146461 0)
(1.02813 -0.00155462 0)
(1.03133 -0.00164541 0)
(1.03471 -0.00173693 0)
(1.03828 -0.00182914 0)
(1.04203 -0.00192197 0)
(1.04596 -0.00201534 0)
(1.05009 -0.00210918 0)
(1.0544 -0.00220336 0)
(1.0589 -0.00229778 0)
(1.06359 -0.0023923 0)
(1.06847 -0.00248677 0)
(1.07354 -0.00258103 0)
(1.0788 -0.00267489 0)
(1.08424 -0.00276818 0)
(1.08987 -0.00286069 0)
(1.09569 -0.00295219 0)
(1.10168 -0.00304246 0)
(1.10786 -0.00313127 0)
(1.11421 -0.00321837 0)
(1.12074 -0.00330351 0)
(1.12743 -0.00338642 0)
(1.13428 -0.00346685 0)
(1.1413 -0.00354455 0)
(1.14847 -0.00361925 0)
(1.15578 -0.00369069 0)
(1.16323 -0.00375864 0)
(1.17082 -0.00382285 0)
(1.17853 -0.0038831 0)
(1.18635 -0.00393918 0)
(1.19429 -0.00399089 0)
(1.20232 -0.00403806 0)
(1.21045 -0.00408053 0)
(1.21865 -0.00411818 0)
(1.22692 -0.00415088 0)
(1.23526 -0.00417857 0)
(1.24364 -0.00420119 0)
(1.25207 -0.0042187 0)
(1.26052 -0.0042311 0)
(1.269 -0.00423843 0)
(1.27748 -0.00424074 0)
(1.28596 -0.0042381 0)
(1.29444 -0.00423062 0)
(1.30289 -0.00421843 0)
(1.31132 -0.00420167 0)
(1.3197 -0.00418053 0)
(1.32804 -0.00415519 0)
(1.33633 -0.00412587 0)
(1.34455 -0.00409277 0)
(1.3527 -0.00405615 0)
(1.36078 -0.00401624 0)
(1.36877 -0.00397331 0)
(1.37667 -0.0039276 0)
(1.38448 -0.0038794 0)
(1.39219 -0.00382896 0)
(1.3998 -0.00377655 0)
(1.4073 -0.00372243 0)
(1.41469 -0.00366688 0)
(1.42197 -0.00361015 0)
(1.42913 -0.00355248 0)
(1.43618 -0.00349412 0)
(1.44311 -0.00343531 0)
(1.44992 -0.00337626 0)
(1.45662 -0.0033172 0)
(1.46319 -0.00325832 0)
(1.46965 -0.00319981 0)
(1.47599 -0.00314185 0)
(1.48222 -0.00308459 0)
(1.48833 -0.0030282 0)
(1.49433 -0.00297281 0)
(1.50022 -0.00291853 0)
(1.506 -0.00286548 0)
(1.51168 -0.00281375 0)
(1.51725 -0.00276342 0)
(1.52273 -0.00271457 0)
(1.52811 -0.00266724 0)
(1.5334 -0.00262148 0)
(1.5386 -0.00257733 0)
(1.54371 -0.00253479 0)
(1.54873 -0.00249388 0)
(1.55368 -0.00245459 0)
(1.55855 -0.00241692 0)
(1.56335 -0.00238084 0)
(1.56807 -0.00234631 0)
(1.57273 -0.0023133 0)
(1.57732 -0.00228176 0)
(1.58185 -0.00225164 0)
(1.58633 -0.00222286 0)
(1.59074 -0.00219536 0)
(1.59511 -0.00216907 0)
(1.59942 -0.0021439 0)
(1.60368 -0.00211977 0)
(1.6079 -0.0020966 0)
(1.61207 -0.00207428 0)
(1.61619 -0.00205273 0)
(1.62028 -0.00203185 0)
(1.62432 -0.00201153 0)
(1.62832 -0.00199169 0)
(1.63228 -0.0019722 0)
(1.63621 -0.00195298 0)
(1.6401 -0.00193392 0)
(1.64394 -0.00191492 0)
(1.64776 -0.00189588 0)
(1.65153 -0.0018767 0)
(1.65526 -0.00185727 0)
(1.65896 -0.00183752 0)
(1.66261 -0.00181734 0)
(1.66623 -0.00179663 0)
(1.6698 -0.00177533 0)
(1.67333 -0.00175333 0)
(1.67681 -0.00173057 0)
(1.68025 -0.00170696 0)
(1.68364 -0.00168242 0)
(1.68698 -0.00165691 0)
(1.69027 -0.00163033 0)
(1.6935 -0.00160265 0)
(1.69668 -0.0015738 0)
(1.6998 -0.00154373 0)
(1.70286 -0.0015124 0)
(1.70585 -0.00147976 0)
(1.70878 -0.00144578 0)
(1.71163 -0.00141042 0)
(1.71442 -0.00137365 0)
(1.71713 -0.00133546 0)
(1.71976 -0.00129582 0)
(1.72231 -0.00125472 0)
(1.72478 -0.00121214 0)
(1.72716 -0.00116809 0)
(1.72945 -0.00112254 0)
(1.73165 -0.00107552 0)
(1.73376 -0.00102701 0)
(1.73576 -0.000977026 0)
(1.73767 -0.00092558 0)
(1.73947 -0.000872681 0)
(1.74116 -0.000818345 0)
(1.74274 -0.000762591 0)
(1.74421 -0.000705438 0)
(1.74556 -0.000646908 0)
(1.7468 -0.000587025 0)
(1.74791 -0.000525815 0)
(1.7489 -0.000463305 0)
(1.74976 -0.000399523 0)
(1.7505 -0.0003345 0)
(1.7511 -0.000268266 0)
(1.75157 -0.000200852 0)
(1.75191 -0.000132291 0)
(1.7521 -6.2616e-05 0)
(1.75216 8.13941e-06 0)
(1.75207 7.99388e-05 0)
(1.75184 0.000152748 0)
(1.75146 0.000226534 0)
(1.75093 0.00030126 0)
(1.75025 0.000376891 0)
(1.74942 0.000453389 0)
(1.74844 0.00053072 0)
(1.7473 0.000608845 0)
(1.746 0.000687728 0)
(1.74455 0.00076733 0)
(1.74293 0.000847613 0)
(1.74116 0.000928538 0)
(1.73922 0.00101007 0)
(1.73712 0.00109216 0)
(1.73485 0.00117476 0)
(1.73242 0.00125785 0)
(1.72982 0.00134137 0)
(1.72705 0.00142528 0)
(1.72412 0.00150953 0)
(1.72101 0.00159408 0)
(1.71774 0.00167887 0)
(1.7143 0.00176385 0)
(1.71068 0.00184897 0)
(1.7069 0.00193417 0)
(1.70294 0.0020194 0)
(1.69882 0.0021046 0)
(1.69452 0.0021897 0)
(1.69006 0.00227463 0)
(1.68542 0.00235934 0)
(1.68062 0.00244375 0)
(1.67565 0.00252778 0)
(1.67051 0.00261137 0)
(1.6652 0.00269444 0)
(1.65973 0.0027769 0)
(1.65409 0.00285868 0)
(1.64829 0.00293969 0)
(1.64233 0.00301984 0)
(1.63621 0.00309904 0)
(1.62993 0.00317721 0)
(1.6235 0.00325426 0)
(1.61691 0.00333008 0)
(1.61017 0.0034046 0)
(1.60329 0.0034777 0)
(1.59626 0.00354931 0)
(1.58909 0.00361932 0)
(1.58178 0.00368764 0)
(1.57434 0.00375418 0)
(1.56676 0.00381885 0)
(1.55906 0.00388155 0)
(1.55123 0.00394219 0)
(1.54329 0.0040007 0)
(1.53523 0.00405698 0)
(1.52705 0.00411096 0)
(1.51878 0.00416257 0)
(1.5104 0.00421172 0)
(1.50193 0.00425836 0)
(1.49336 0.00430242 0)
(1.48471 0.00434384 0)
(1.47598 0.00438257 0)
(1.46718 0.00441856 0)
(1.45831 0.00445178 0)
(1.44937 0.0044822 0)
(1.44037 0.00450977 0)
(1.43133 0.00453449 0)
(1.42223 0.00455634 0)
(1.4131 0.00457531 0)
(1.40393 0.0045914 0)
(1.39473 0.00460462 0)
(1.3855 0.00461497 0)
(1.37626 0.00462248 0)
(1.36701 0.00462717 0)
(1.35775 0.00462908 0)
(1.34849 0.00462823 0)
(1.33923 0.00462468 0)
(1.32999 0.00461846 0)
(1.32076 0.00460964 0)
(1.31155 0.00459826 0)
(1.30236 0.00458439 0)
(1.2932 0.0045681 0)
(1.28408 0.00454944 0)
(1.275 0.00452851 0)
(1.26597 0.00450533 0)
(1.25697 0.00448008 0)
(1.24806 0.00445261 0)
(1.23914 0.00442348 0)
(1.23041 0.00439177 0)
(1.22146 0.00435943 0)
(1.21321 0.00432303 0)
(1.2036 0.0042879 0)
(1.19726 0.00424804 0)
(1.18339 0.00419976 0)
(1.00001 -0.000120296 0)
(1.00017 -0.000361205 0)
(1.00048 -0.000602485 0)
(1.00096 -0.000844265 0)
(1.00161 -0.00108681 0)
(1.00241 -0.00133039 0)
(1.00338 -0.00157519 0)
(1.00451 -0.0018214 0)
(1.00581 -0.0020692 0)
(1.00727 -0.00231877 0)
(1.0089 -0.00257026 0)
(1.01069 -0.00282382 0)
(1.01266 -0.00307957 0)
(1.0148 -0.00333761 0)
(1.01711 -0.00359801 0)
(1.01959 -0.00386083 0)
(1.02226 -0.0041261 0)
(1.02509 -0.00439379 0)
(1.02811 -0.00466389 0)
(1.03131 -0.0049363 0)
(1.03469 -0.00521092 0)
(1.03826 -0.00548762 0)
(1.04201 -0.00576619 0)
(1.04595 -0.00604641 0)
(1.05007 -0.00632802 0)
(1.05438 -0.0066107 0)
(1.05888 -0.00689409 0)
(1.06358 -0.00717779 0)
(1.06846 -0.00746136 0)
(1.07353 -0.00774431 0)
(1.07879 -0.00802609 0)
(1.08423 -0.00830615 0)
(1.08986 -0.00858387 0)
(1.09568 -0.00885859 0)
(1.10168 -0.00912963 0)
(1.10786 -0.00939628 0)
(1.11422 -0.0096578 0)
(1.12075 -0.00991343 0)
(1.12745 -0.0101624 0)
(1.13431 -0.0104039 0)
(1.14133 -0.0106373 0)
(1.1485 -0.0108616 0)
(1.15583 -0.0110761 0)
(1.16329 -0.0112802 0)
(1.17088 -0.011473 0)
(1.1786 -0.0116539 0)
(1.18644 -0.0118223 0)
(1.19438 -0.0119776 0)
(1.20243 -0.0121192 0)
(1.21056 -0.0122467 0)
(1.21877 -0.0123597 0)
(1.22706 -0.0124578 0)
(1.23541 -0.0125409 0)
(1.2438 -0.0126088 0)
(1.25224 -0.0126613 0)
(1.2607 -0.0126984 0)
(1.26919 -0.0127203 0)
(1.27769 -0.0127271 0)
(1.28618 -0.0127191 0)
(1.29467 -0.0126965 0)
(1.30313 -0.0126597 0)
(1.31156 -0.0126093 0)
(1.31996 -0.0125457 0)
(1.32831 -0.0124694 0)
(1.3366 -0.0123812 0)
(1.34484 -0.0122817 0)
(1.353 -0.0121716 0)
(1.36108 -0.0120516 0)
(1.36908 -0.0119225 0)
(1.37699 -0.0117851 0)
(1.3848 -0.0116402 0)
(1.39252 -0.0114887 0)
(1.40013 -0.0113312 0)
(1.40764 -0.0111686 0)
(1.41503 -0.0110017 0)
(1.42231 -0.0108312 0)
(1.42948 -0.010658 0)
(1.43653 -0.0104827 0)
(1.44346 -0.010306 0)
(1.45027 -0.0101287 0)
(1.45697 -0.00995131 0)
(1.46354 -0.0097745 0)
(1.47 -0.0095988 0)
(1.47634 -0.00942477 0)
(1.48257 -0.00925288 0)
(1.48868 -0.00908358 0)
(1.49468 -0.00891728 0)
(1.50056 -0.00875435 0)
(1.50635 -0.00859512 0)
(1.51202 -0.00843986 0)
(1.5176 -0.00828883 0)
(1.52307 -0.00814222 0)
(1.52845 -0.0080002 0)
(1.53373 -0.00786291 0)
(1.53893 -0.00773043 0)
(1.54403 -0.00760282 0)
(1.54906 -0.0074801 0)
(1.554 -0.00736227 0)
(1.55887 -0.00724929 0)
(1.56366 -0.00714107 0)
(1.56839 -0.00703754 0)
(1.57304 -0.00693857 0)
(1.57763 -0.00684401 0)
(1.58216 -0.00675369 0)
(1.58664 -0.00666742 0)
(1.59105 -0.006585 0)
(1.59541 -0.00650621 0)
(1.59972 -0.00643079 0)
(1.60398 -0.00635849 0)
(1.6082 -0.00628906 0)
(1.61237 -0.00622221 0)
(1.61649 -0.00615765 0)
(1.62058 -0.0060951 0)
(1.62462 -0.00603425 0)
(1.62862 -0.00597479 0)
(1.63258 -0.00591644 0)
(1.63651 -0.00585887 0)
(1.6404 -0.00580178 0)
(1.64424 -0.00574487 0)
(1.64806 -0.00568784 0)
(1.65183 -0.00563037 0)
(1.65556 -0.00557219 0)
(1.65926 -0.005513 0)
(1.66292 -0.00545253 0)
(1.66653 -0.0053905 0)
(1.67011 -0.00532665 0)
(1.67364 -0.00526073 0)
(1.67713 -0.0051925 0)
(1.68057 -0.00512172 0)
(1.68396 -0.00504818 0)
(1.6873 -0.00497167 0)
(1.69059 -0.004892 0)
(1.69383 -0.00480899 0)
(1.69701 -0.00472248 0)
(1.70013 -0.0046323 0)
(1.70319 -0.00453833 0)
(1.70619 -0.00444043 0)
(1.70912 -0.00433849 0)
(1.71198 -0.00423242 0)
(1.71477 -0.00412214 0)
(1.71748 -0.00400756 0)
(1.72011 -0.00388864 0)
(1.72267 -0.00376533 0)
(1.72514 -0.00363759 0)
(1.72753 -0.00350541 0)
(1.72982 -0.00336876 0)
(1.73202 -0.00322766 0)
(1.73413 -0.00308211 0)
(1.73614 -0.00293214 0)
(1.73805 -0.00277777 0)
(1.73985 -0.00261904 0)
(1.74154 -0.002456 0)
(1.74313 -0.0022887 0)
(1.7446 -0.0021172 0)
(1.74596 -0.00194157 0)
(1.74719 -0.00176188 0)
(1.74831 -0.00157821 0)
(1.7493 -0.00139063 0)
(1.75017 -0.00119924 0)
(1.75091 -0.00100413 0)
(1.75151 -0.000805377 0)
(1.75198 -0.000603088 0)
(1.75232 -0.000397357 0)
(1.75252 -0.000188285 0)
(1.75258 2.40286e-05 0)
(1.75249 0.000239478 0)
(1.75226 0.000457959 0)
(1.75188 0.000679368 0)
(1.75136 0.000903598 0)
(1.75068 0.00113054 0)
(1.74985 0.00136009 0)
(1.74887 0.00159214 0)
(1.74773 0.00182656 0)
(1.74644 0.00206326 0)
(1.74498 0.00230212 0)
(1.74337 0.00254303 0)
(1.74159 0.00278586 0)
(1.73965 0.0030305 0)
(1.73755 0.00327682 0)
(1.73529 0.00352471 0)
(1.73285 0.00377402 0)
(1.73026 0.00402465 0)
(1.72749 0.00427643 0)
(1.72455 0.00452925 0)
(1.72145 0.00478295 0)
(1.71818 0.00503738 0)
(1.71473 0.00529239 0)
(1.71112 0.00554782 0)
(1.70733 0.00580351 0)
(1.70338 0.00605927 0)
(1.69925 0.00631493 0)
(1.69496 0.0065703 0)
(1.69049 0.00682518 0)
(1.68585 0.00707938 0)
(1.68105 0.00733269 0)
(1.67607 0.00758488 0)
(1.67093 0.00783573 0)
(1.66562 0.00808501 0)
(1.66015 0.00833249 0)
(1.65451 0.00857791 0)
(1.6487 0.00882102 0)
(1.64274 0.00906156 0)
(1.63662 0.00929926 0)
(1.63034 0.00953387 0)
(1.6239 0.0097651 0)
(1.61731 0.00999267 0)
(1.61057 0.0102163 0)
(1.60368 0.0104357 0)
(1.59665 0.0106506 0)
(1.58947 0.0108608 0)
(1.58216 0.0110658 0)
(1.57471 0.0112655 0)
(1.56712 0.0114596 0)
(1.55942 0.0116478 0)
(1.55158 0.0118298 0)
(1.54363 0.0120054 0)
(1.53557 0.0121743 0)
(1.52739 0.0123363 0)
(1.51911 0.0124912 0)
(1.51072 0.0126387 0)
(1.50224 0.0127787 0)
(1.49367 0.0129109 0)
(1.48501 0.0130352 0)
(1.47628 0.0131514 0)
(1.46747 0.0132594 0)
(1.45858 0.0133591 0)
(1.44964 0.0134504 0)
(1.44064 0.0135331 0)
(1.43158 0.0136073 0)
(1.42248 0.0136728 0)
(1.41334 0.0137297 0)
(1.40416 0.0137779 0)
(1.39495 0.0138176 0)
(1.38572 0.0138486 0)
(1.37647 0.0138711 0)
(1.36721 0.0138851 0)
(1.35795 0.0138908 0)
(1.34868 0.0138882 0)
(1.33942 0.0138775 0)
(1.33016 0.0138588 0)
(1.32092 0.0138322 0)
(1.31171 0.013798 0)
(1.30251 0.0137563 0)
(1.29335 0.0137074 0)
(1.28423 0.0136513 0)
(1.27514 0.0135884 0)
(1.2661 0.0135188 0)
(1.2571 0.0134429 0)
(1.24817 0.0133606 0)
(1.23925 0.0132727 0)
(1.23051 0.0131784 0)
(1.22156 0.0130795 0)
(1.21331 0.0129743 0)
(1.20369 0.0128622 0)
(1.19735 0.0127579 0)
(1.18347 0.0125951 0)
(1.00001 -0.000200582 0)
(1.00017 -0.000601971 0)
(1.00048 -0.0010039 0)
(1.00096 -0.00140671 0)
(1.0016 -0.00181083 0)
(1.00241 -0.00221662 0)
(1.00338 -0.00262445 0)
(1.0045 -0.00303463 0)
(1.0058 -0.00344748 0)
(1.00726 -0.00386329 0)
(1.00888 -0.00428234 0)
(1.01068 -0.00470485 0)
(1.01264 -0.00513103 0)
(1.01478 -0.00556106 0)
(1.01709 -0.00599506 0)
(1.01957 -0.00643312 0)
(1.02223 -0.00687528 0)
(1.02506 -0.00732154 0)
(1.02808 -0.00777182 0)
(1.03128 -0.00822602 0)
(1.03466 -0.00868394 0)
(1.03822 -0.00914535 0)
(1.04197 -0.00960995 0)
(1.04591 -0.0100773 0)
(1.05003 -0.0105471 0)
(1.05434 -0.0110187 0)
(1.05885 -0.0114915 0)
(1.06354 -0.0119649 0)
(1.06842 -0.0124381 0)
(1.07349 -0.0129103 0)
(1.07876 -0.0133806 0)
(1.08421 -0.0138481 0)
(1.08985 -0.0143117 0)
(1.09567 -0.0147704 0)
(1.10168 -0.015223 0)
(1.10786 -0.0156682 0)
(1.11423 -0.016105 0)
(1.12077 -0.0165319 0)
(1.12748 -0.0169478 0)
(1.13435 -0.0173512 0)
(1.14139 -0.017741 0)
(1.14858 -0.0181157 0)
(1.15592 -0.0184741 0)
(1.16339 -0.018815 0)
(1.17101 -0.0191371 0)
(1.17874 -0.0194394 0)
(1.1866 -0.0197207 0)
(1.19457 -0.01998 0)
(1.20263 -0.0202166 0)
(1.21079 -0.0204295 0)
(1.21902 -0.0206182 0)
(1.22733 -0.0207821 0)
(1.2357 -0.0209207 0)
(1.24412 -0.0210339 0)
(1.25258 -0.0211213 0)
(1.26107 -0.0211832 0)
(1.26958 -0.0212195 0)
(1.2781 -0.0212305 0)
(1.28661 -0.0212167 0)
(1.29512 -0.0211786 0)
(1.3036 -0.0211168 0)
(1.31206 -0.0210321 0)
(1.32048 -0.0209254 0)
(1.32884 -0.0207976 0)
(1.33716 -0.0206498 0)
(1.3454 -0.0204831 0)
(1.35358 -0.0202987 0)
(1.36168 -0.0200978 0)
(1.36969 -0.0198818 0)
(1.37762 -0.0196519 0)
(1.38544 -0.0194095 0)
(1.39317 -0.0191559 0)
(1.40079 -0.0188925 0)
(1.40831 -0.0186206 0)
(1.41571 -0.0183415 0)
(1.423 -0.0180566 0)
(1.43017 -0.017767 0)
(1.43722 -0.017474 0)
(1.44416 -0.0171788 0)
(1.45097 -0.0168825 0)
(1.45767 -0.0165862 0)
(1.46424 -0.0162908 0)
(1.4707 -0.0159974 0)
(1.47704 -0.0157067 0)
(1.48327 -0.0154197 0)
(1.48938 -0.0151371 0)
(1.49537 -0.0148595 0)
(1.50126 -0.0145876 0)
(1.50704 -0.0143218 0)
(1.51271 -0.0140628 0)
(1.51828 -0.0138108 0)
(1.52375 -0.0135663 0)
(1.52912 -0.0133294 0)
(1.5344 -0.0131005 0)
(1.53959 -0.0128796 0)
(1.54469 -0.0126669 0)
(1.54971 -0.0124623 0)
(1.55465 -0.012266 0)
(1.55951 -0.0120778 0)
(1.5643 -0.0118975 0)
(1.56902 -0.0117251 0)
(1.57367 -0.0115603 0)
(1.57826 -0.0114028 0)
(1.58279 -0.0112525 0)
(1.58725 -0.011109 0)
(1.59166 -0.0109719 0)
(1.59602 -0.0108408 0)
(1.60033 -0.0107154 0)
(1.60459 -0.0105952 0)
(1.6088 -0.0104797 0)
(1.61297 -0.0103686 0)
(1.61709 -0.0102614 0)
(1.62117 -0.0101574 0)
(1.62521 -0.0100563 0)
(1.62922 -0.0099576 0)
(1.63318 -0.00986067 0)
(1.6371 -0.00976506 0)
(1.64099 -0.00967025 0)
(1.64484 -0.00957573 0)
(1.64866 -0.00948099 0)
(1.65243 -0.00938553 0)
(1.65617 -0.00928887 0)
(1.65987 -0.00919052 0)
(1.66353 -0.00909003 0)
(1.66715 -0.00898692 0)
(1.67072 -0.00888077 0)
(1.67426 -0.00877116 0)
(1.67775 -0.00865768 0)
(1.6812 -0.00853994 0)
(1.68459 -0.00841758 0)
(1.68794 -0.00829027 0)
(1.69124 -0.00815766 0)
(1.69448 -0.00801948 0)
(1.69766 -0.00787543 0)
(1.70079 -0.00772527 0)
(1.70386 -0.00756876 0)
(1.70686 -0.00740569 0)
(1.7098 -0.00723588 0)
(1.71266 -0.00705917 0)
(1.71546 -0.00687541 0)
(1.71818 -0.00668449 0)
(1.72082 -0.00648631 0)
(1.72338 -0.00628079 0)
(1.72586 -0.00606788 0)
(1.72825 -0.00584755 0)
(1.73055 -0.00561977 0)
(1.73276 -0.00538456 0)
(1.73488 -0.00514192 0)
(1.73689 -0.00489189 0)
(1.7388 -0.00463453 0)
(1.74061 -0.00436989 0)
(1.74231 -0.00409805 0)
(1.7439 -0.00381911 0)
(1.74538 -0.00353317 0)
(1.74674 -0.00324033 0)
(1.74799 -0.00294071 0)
(1.74911 -0.00263445 0)
(1.75011 -0.00232169 0)
(1.75098 -0.00200256 0)
(1.75172 -0.00167722 0)
(1.75233 -0.00134581 0)
(1.75281 -0.00100851 0)
(1.75315 -0.000665464 0)
(1.75335 -0.000316849 0)
(1.75341 3.71676e-05 0)
(1.75333 0.000396416 0)
(1.7531 0.000760721 0)
(1.75273 0.00112991 0)
(1.75221 0.0015038 0)
(1.75153 0.00188221 0)
(1.75071 0.00226497 0)
(1.74973 0.00265189 0)
(1.74859 0.00304278 0)
(1.7473 0.00343746 0)
(1.74585 0.00383574 0)
(1.74424 0.00423744 0)
(1.74246 0.00464234 0)
(1.74053 0.00505026 0)
(1.73843 0.00546099 0)
(1.73616 0.00587433 0)
(1.73373 0.00629007 0)
(1.73113 0.00670797 0)
(1.72836 0.00712783 0)
(1.72543 0.00754941 0)
(1.72232 0.00797246 0)
(1.71905 0.00839674 0)
(1.7156 0.008822 0)
(1.71199 0.00924796 0)
(1.7082 0.00967435 0)
(1.70425 0.0101009 0)
(1.70012 0.0105272 0)
(1.69582 0.0109531 0)
(1.69135 0.0113782 0)
(1.68671 0.0118022 0)
(1.6819 0.0122246 0)
(1.67692 0.0126452 0)
(1.67178 0.0130636 0)
(1.66646 0.0134794 0)
(1.66098 0.0138922 0)
(1.65534 0.0143016 0)
(1.64953 0.0147071 0)
(1.64356 0.0151083 0)
(1.63743 0.0155049 0)
(1.63114 0.0158962 0)
(1.6247 0.016282 0)
(1.6181 0.0166616 0)
(1.61135 0.0170347 0)
(1.60445 0.0174007 0)
(1.59741 0.0177593 0)
(1.59023 0.0181098 0)
(1.5829 0.0184519 0)
(1.57544 0.0187851 0)
(1.56785 0.0191089 0)
(1.56013 0.0194229 0)
(1.55229 0.0197265 0)
(1.54432 0.0200195 0)
(1.53625 0.0203013 0)
(1.52806 0.0205716 0)
(1.51976 0.02083 0)
(1.51136 0.0210761 0)
(1.50287 0.0213096 0)
(1.49428 0.0215302 0)
(1.48561 0.0217375 0)
(1.47686 0.0219314 0)
(1.46804 0.0221116 0)
(1.45914 0.0222779 0)
(1.45018 0.02243 0)
(1.44116 0.022568 0)
(1.43209 0.0226917 0)
(1.42298 0.0228009 0)
(1.41382 0.0228957 0)
(1.40463 0.0229761 0)
(1.3954 0.0230421 0)
(1.38616 0.0230938 0)
(1.3769 0.0231312 0)
(1.36762 0.0231544 0)
(1.35834 0.0231638 0)
(1.34906 0.0231593 0)
(1.33978 0.0231412 0)
(1.33051 0.0231099 0)
(1.32126 0.0230654 0)
(1.31203 0.0230082 0)
(1.30282 0.0229385 0)
(1.29365 0.0228566 0)
(1.28451 0.0227629 0)
(1.27541 0.0226578 0)
(1.26636 0.0225416 0)
(1.25734 0.0224147 0)
(1.24841 0.0222775 0)
(1.23947 0.0221302 0)
(1.23073 0.0219738 0)
(1.22176 0.0218067 0)
(1.2135 0.0216359 0)
(1.20386 0.0214412 0)
(1.19753 0.0212844 0)
(1.18363 0.0209921 0)
(1.00001 -0.000280603 0)
(1.00017 -0.000842077 0)
(1.00048 -0.0014043 0)
(1.00096 -0.00196783 0)
(1.0016 -0.00253319 0)
(1.0024 -0.00310091 0)
(1.00337 -0.00367149 0)
(1.00449 -0.00424539 0)
(1.00579 -0.00482307 0)
(1.00724 -0.00540493 0)
(1.00887 -0.00599135 0)
(1.01066 -0.00658268 0)
(1.01262 -0.0071792 0)
(1.01475 -0.00778115 0)
(1.01705 -0.00838873 0)
(1.01953 -0.00900206 0)
(1.02219 -0.0096212 0)
(1.02502 -0.0102462 0)
(1.02803 -0.0108768 0)
(1.03123 -0.011513 0)
(1.0346 -0.0121546 0)
(1.03816 -0.0128011 0)
(1.04191 -0.0134522 0)
(1.04585 -0.0141072 0)
(1.04997 -0.0147657 0)
(1.05428 -0.0154269 0)
(1.05879 -0.0160898 0)
(1.06348 -0.0167537 0)
(1.06837 -0.0174175 0)
(1.07344 -0.0180799 0)
(1.07871 -0.0187398 0)
(1.08417 -0.0193958 0)
(1.08981 -0.0200465 0)
(1.09565 -0.0206904 0)
(1.10167 -0.0213257 0)
(1.10787 -0.0219509 0)
(1.11425 -0.0225642 0)
(1.1208 -0.0231639 0)
(1.12753 -0.023748 0)
(1.13442 -0.0243147 0)
(1.14148 -0.0248622 0)
(1.14869 -0.0253887 0)
(1.15605 -0.0258923 0)
(1.16355 -0.0263713 0)
(1.17119 -0.0268239 0)
(1.17896 -0.0272486 0)
(1.18684 -0.0276439 0)
(1.19484 -0.0280083 0)
(1.20294 -0.0283406 0)
(1.21113 -0.0286397 0)
(1.2194 -0.0289046 0)
(1.22774 -0.0291347 0)
(1.23614 -0.0293292 0)
(1.2446 -0.0294878 0)
(1.25309 -0.0296103 0)
(1.26161 -0.0296967 0)
(1.27016 -0.0297471 0)
(1.27871 -0.0297621 0)
(1.28726 -0.029742 0)
(1.2958 -0.0296877 0)
(1.30432 -0.0296001 0)
(1.3128 -0.0294803 0)
(1.32125 -0.0293296 0)
(1.32965 -0.0291492 0)
(1.33799 -0.0289406 0)
(1.34626 -0.0287056 0)
(1.35446 -0.0284456 0)
(1.36258 -0.0281626 0)
(1.37062 -0.0278583 0)
(1.37856 -0.0275345 0)
(1.3864 -0.0271932 0)
(1.39415 -0.0268363 0)
(1.40178 -0.0264656 0)
(1.40931 -0.026083 0)
(1.41672 -0.0256904 0)
(1.42402 -0.0252897 0)
(1.4312 -0.0248825 0)
(1.43826 -0.0244706 0)
(1.4452 -0.0240557 0)
(1.45202 -0.0236393 0)
(1.45872 -0.023223 0)
(1.4653 -0.0228081 0)
(1.47176 -0.022396 0)
(1.47809 -0.0219879 0)
(1.48432 -0.021585 0)
(1.49042 -0.0211883 0)
(1.49642 -0.0207987 0)
(1.5023 -0.0204172 0)
(1.50807 -0.0200444 0)
(1.51374 -0.0196811 0)
(1.5193 -0.0193279 0)
(1.52476 -0.018985 0)
(1.53013 -0.0186531 0)
(1.5354 -0.0183323 0)
(1.54058 -0.0180229 0)
(1.54568 -0.017725 0)
(1.55069 -0.0174386 0)
(1.55562 -0.0171638 0)
(1.56048 -0.0169004 0)
(1.56526 -0.0166482 0)
(1.56997 -0.016407 0)
(1.57462 -0.0161766 0)
(1.5792 -0.0159566 0)
(1.58372 -0.0157465 0)
(1.58818 -0.015546 0)
(1.59258 -0.0153545 0)
(1.59694 -0.0151716 0)
(1.60124 -0.0149966 0)
(1.60549 -0.0148289 0)
(1.6097 -0.0146679 0)
(1.61386 -0.014513 0)
(1.61799 -0.0143635 0)
(1.62207 -0.0142186 0)
(1.62611 -0.0140778 0)
(1.63011 -0.0139402 0)
(1.63407 -0.0138052 0)
(1.638 -0.0136721 0)
(1.64189 -0.01354 0)
(1.64574 -0.0134084 0)
(1.64955 -0.0132764 0)
(1.65333 -0.0131434 0)
(1.65707 -0.0130088 0)
(1.66078 -0.0128717 0)
(1.66444 -0.0127316 0)
(1.66806 -0.0125879 0)
(1.67165 -0.0124398 0)
(1.67519 -0.0122869 0)
(1.67869 -0.0121285 0)
(1.68214 -0.0119642 0)
(1.68554 -0.0117933 0)
(1.6889 -0.0116155 0)
(1.6922 -0.0114302 0)
(1.69545 -0.0112371 0)
(1.69865 -0.0110358 0)
(1.70178 -0.0108258 0)
(1.70486 -0.010607 0)
(1.70787 -0.0103789 0)
(1.71082 -0.0101414 0)
(1.71369 -0.00989412 0)
(1.7165 -0.00963697 0)
(1.71923 -0.00936977 0)
(1.72188 -0.00909237 0)
(1.72445 -0.00880467 0)
(1.72694 -0.0085066 0)
(1.72934 -0.0081981 0)
(1.73165 -0.00787915 0)
(1.73387 -0.00754976 0)
(1.73599 -0.00720996 0)
(1.73802 -0.00685979 0)
(1.73994 -0.00649932 0)
(1.74176 -0.00612865 0)
(1.74347 -0.00574789 0)
(1.74507 -0.00535716 0)
(1.74655 -0.00495661 0)
(1.74792 -0.00454639 0)
(1.74918 -0.00412667 0)
(1.75031 -0.00369764 0)
(1.75131 -0.00325949 0)
(1.75219 -0.00281242 0)
(1.75294 -0.00235664 0)
(1.75356 -0.00189237 0)
(1.75404 -0.00141983 0)
(1.75439 -0.000939245 0)
(1.7546 -0.000450858 0)
(1.75466 4.50967e-05 0)
(1.75459 0.00054838 0)
(1.75437 0.00105875 0)
(1.754 0.00157595 0)
(1.75348 0.00209975 0)
(1.75281 0.00262988 0)
(1.75199 0.00316609 0)
(1.75102 0.00370813 0)
(1.74988 0.00425574 0)
(1.74859 0.00480867 0)
(1.74715 0.00536663 0)
(1.74554 0.00592938 0)
(1.74376 0.00649663 0)
(1.74183 0.00706811 0)
(1.73973 0.00764353 0)
(1.73747 0.00822261 0)
(1.73504 0.00880505 0)
(1.73244 0.00939054 0)
(1.72967 0.00997877 0)
(1.72674 0.0105694 0)
(1.72363 0.0111622 0)
(1.72036 0.0117566 0)
(1.71691 0.0123525 0)
(1.71329 0.0129493 0)
(1.70951 0.0135468 0)
(1.70555 0.0141444 0)
(1.70142 0.0147419 0)
(1.69711 0.0153387 0)
(1.69264 0.0159344 0)
(1.688 0.0165285 0)
(1.68318 0.0171206 0)
(1.6782 0.0177101 0)
(1.67305 0.0182965 0)
(1.66773 0.0188793 0)
(1.66224 0.0194579 0)
(1.65659 0.0200317 0)
(1.65077 0.0206001 0)
(1.64479 0.0211626 0)
(1.63865 0.0217184 0)
(1.63235 0.0222671 0)
(1.6259 0.0228078 0)
(1.61929 0.0233401 0)
(1.61253 0.0238632 0)
(1.60562 0.0243764 0)
(1.59856 0.0248791 0)
(1.59136 0.0253706 0)
(1.58402 0.0258503 0)
(1.57655 0.0263175 0)
(1.56894 0.0267715 0)
(1.5612 0.0272118 0)
(1.55334 0.0276376 0)
(1.54536 0.0280484 0)
(1.53726 0.0284436 0)
(1.52905 0.0288226 0)
(1.52074 0.0291849 0)
(1.51232 0.02953 0)
(1.50381 0.0298574 0)
(1.4952 0.0301666 0)
(1.48651 0.0304573 0)
(1.47774 0.0307291 0)
(1.46889 0.0309817 0)
(1.45997 0.0312147 0)
(1.45099 0.031428 0)
(1.44195 0.0316214 0)
(1.43286 0.0317946 0)
(1.42372 0.0319476 0)
(1.41454 0.0320804 0)
(1.40532 0.032193 0)
(1.39608 0.0322853 0)
(1.38681 0.0323575 0)
(1.37753 0.0324096 0)
(1.36823 0.032442 0)
(1.35892 0.0324548 0)
(1.34962 0.0324482 0)
(1.34032 0.0324226 0)
(1.33103 0.0323783 0)
(1.32176 0.0323157 0)
(1.31251 0.0322351 0)
(1.30328 0.032137 0)
(1.29409 0.0320219 0)
(1.28493 0.0318903 0)
(1.27581 0.0317425 0)
(1.26674 0.0315793 0)
(1.25771 0.031401 0)
(1.24876 0.0312084 0)
(1.2398 0.0310015 0)
(1.23104 0.0307824 0)
(1.22206 0.0305473 0)
(1.21379 0.0303092 0)
(1.20413 0.030034 0)
(1.19779 0.0298182 0)
(1.18387 0.0294019 0)
(1.00001 -0.000360384 0)
(1.00017 -0.0010815 0)
(1.00048 -0.00180359 0)
(1.00096 -0.00252738 0)
(1.0016 -0.00325357 0)
(1.0024 -0.00398282 0)
(1.00336 -0.00471577 0)
(1.00448 -0.00545305 0)
(1.00577 -0.00619524 0)
(1.00722 -0.00694286 0)
(1.00884 -0.00769643 0)
(1.01063 -0.00845637 0)
(1.01258 -0.00922308 0)
(1.01471 -0.00999687 0)
(1.01701 -0.010778 0)
(1.01948 -0.0115666 0)
(1.02213 -0.0123629 0)
(1.02496 -0.0131667 0)
(1.02797 -0.013978 0)
(1.03116 -0.0147966 0)
(1.03453 -0.0156222 0)
(1.03809 -0.0164544 0)
(1.04183 -0.0172925 0)
(1.04576 -0.018136 0)
(1.04989 -0.0189841 0)
(1.0542 -0.0198357 0)
(1.05871 -0.0206899 0)
(1.0634 -0.0215454 0)
(1.06829 -0.022401 0)
(1.07337 -0.023255 0)
(1.07865 -0.0241059 0)
(1.08411 -0.024952 0)
(1.08977 -0.0257914 0)
(1.09562 -0.0266221 0)
(1.10165 -0.0274421 0)
(1.10787 -0.028249 0)
(1.11426 -0.0290408 0)
(1.12084 -0.029815 0)
(1.12759 -0.0305693 0)
(1.13451 -0.0313013 0)
(1.14159 -0.0320085 0)
(1.14883 -0.0326886 0)
(1.15623 -0.0333392 0)
(1.16376 -0.033958 0)
(1.17144 -0.0345429 0)
(1.17924 -0.0350916 0)
(1.18717 -0.0356022 0)
(1.1952 -0.036073 0)
(1.20334 -0.0365022 0)
(1.21158 -0.0368884 0)
(1.21989 -0.0372304 0)
(1.22828 -0.0375272 0)
(1.23673 -0.037778 0)
(1.24523 -0.0379824 0)
(1.25377 -0.0381399 0)
(1.26234 -0.0382507 0)
(1.27093 -0.0383149 0)
(1.27953 -0.0383331 0)
(1.28812 -0.0383061 0)
(1.29671 -0.0382347 0)
(1.30527 -0.0381202 0)
(1.31379 -0.0379641 0)
(1.32228 -0.0377678 0)
(1.33072 -0.0375333 0)
(1.33909 -0.0372624 0)
(1.3474 -0.0369573 0)
(1.35563 -0.03662 0)
(1.36379 -0.036253 0)
(1.37185 -0.0358585 0)
(1.37982 -0.0354389 0)
(1.38769 -0.0349968 0)
(1.39545 -0.0345345 0)
(1.40311 -0.0340546 0)
(1.41065 -0.0335595 0)
(1.41808 -0.0330515 0)
(1.42539 -0.0325331 0)
(1.43258 -0.0320066 0)
(1.43965 -0.0314741 0)
(1.4466 -0.0309378 0)
(1.45342 -0.0303998 0)
(1.46012 -0.029862 0)
(1.4667 -0.0293261 0)
(1.47316 -0.028794 0)
(1.4795 -0.0282673 0)
(1.48572 -0.0277473 0)
(1.49182 -0.0272355 0)
(1.49781 -0.0267331 0)
(1.50368 -0.0262412 0)
(1.50945 -0.0257607 0)
(1.51511 -0.0252925 0)
(1.52066 -0.0248374 0)
(1.52611 -0.0243959 0)
(1.53147 -0.0239685 0)
(1.53673 -0.0235556 0)
(1.54191 -0.0231575 0)
(1.54699 -0.0227743 0)
(1.55199 -0.0224061 0)
(1.55692 -0.0220528 0)
(1.56176 -0.0217143 0)
(1.56653 -0.0213904 0)
(1.57123 -0.0210808 0)
(1.57587 -0.020785 0)
(1.58044 -0.0205028 0)
(1.58495 -0.0202334 0)
(1.5894 -0.0199764 0)
(1.5938 -0.019731 0)
(1.59815 -0.0194967 0)
(1.60245 -0.0192727 0)
(1.6067 -0.0190581 0)
(1.6109 -0.0188522 0)
(1.61506 -0.0186542 0)
(1.61918 -0.018463 0)
(1.62325 -0.018278 0)
(1.62729 -0.0180981 0)
(1.63129 -0.0179224 0)
(1.63526 -0.01775 0)
(1.63918 -0.01758 0)
(1.64307 -0.0174114 0)
(1.64693 -0.0172433 0)
(1.65075 -0.0170748 0)
(1.65453 -0.016905 0)
(1.65827 -0.016733 0)
(1.66198 -0.0165578 0)
(1.66565 -0.0163788 0)
(1.66928 -0.0161949 0)
(1.67287 -0.0160056 0)
(1.67642 -0.0158099 0)
(1.67993 -0.0156071 0)
(1.68339 -0.0153966 0)
(1.6868 -0.0151777 0)
(1.69017 -0.0149498 0)
(1.69348 -0.0147123 0)
(1.69675 -0.0144646 0)
(1.69995 -0.0142063 0)
(1.7031 -0.0139369 0)
(1.70619 -0.0136559 0)
(1.70921 -0.0133631 0)
(1.71217 -0.0130579 0)
(1.71506 -0.0127403 0)
(1.71788 -0.0124099 0)
(1.72062 -0.0120665 0)
(1.72328 -0.0117099 0)
(1.72587 -0.0113401 0)
(1.72837 -0.0109568 0)
(1.73078 -0.0105601 0)
(1.73311 -0.01015 0)
(1.73534 -0.00972632 0)
(1.73748 -0.00928923 0)
(1.73951 -0.00883878 0)
(1.74145 -0.00837506 0)
(1.74328 -0.00789818 0)
(1.745 -0.00740829 0)
(1.74661 -0.00690556 0)
(1.74811 -0.00639017 0)
(1.74949 -0.00586232 0)
(1.75076 -0.00532225 0)
(1.7519 -0.00477017 0)
(1.75291 -0.00420635 0)
(1.7538 -0.00363105 0)
(1.75456 -0.00304453 0)
(1.75519 -0.00244708 0)
(1.75568 -0.00183899 0)
(1.75604 -0.00122055 0)
(1.75626 -0.000592059 0)
(1.75633 4.61673e-05 0)
(1.75626 0.000693822 0)
(1.75605 0.00135059 0)
(1.75569 0.00201616 0)
(1.75518 0.0026902 0)
(1.75451 0.0033724 0)
(1.7537 0.00406242 0)
(1.75273 0.00475995 0)
(1.7516 0.00546464 0)
(1.75032 0.00617617 0)
(1.74887 0.00689419 0)
(1.74726 0.00761836 0)
(1.7455 0.00834834 0)
(1.74356 0.00908376 0)
(1.74147 0.00982427 0)
(1.73921 0.0105695 0)
(1.73678 0.011319 0)
(1.73418 0.0120725 0)
(1.73141 0.0128296 0)
(1.72848 0.0135898 0)
(1.72537 0.0143526 0)
(1.7221 0.0151177 0)
(1.71865 0.0158847 0)
(1.71503 0.0166529 0)
(1.71124 0.0174219 0)
(1.70728 0.0181912 0)
(1.70314 0.0189603 0)
(1.69884 0.0197286 0)
(1.69436 0.0204955 0)
(1.68971 0.0212604 0)
(1.68489 0.0220227 0)
(1.6799 0.0227817 0)
(1.67474 0.0235368 0)
(1.66941 0.0242872 0)
(1.66391 0.0250323 0)
(1.65825 0.0257712 0)
(1.65242 0.0265033 0)
(1.64643 0.0272277 0)
(1.64028 0.0279436 0)
(1.63396 0.0286503 0)
(1.62749 0.0293468 0)
(1.62087 0.0300325 0)
(1.61409 0.0307063 0)
(1.60716 0.0313674 0)
(1.60009 0.0320151 0)
(1.59287 0.0326483 0)
(1.58551 0.0332663 0)
(1.57802 0.0338682 0)
(1.57039 0.0344532 0)
(1.56263 0.0350204 0)
(1.55475 0.0355691 0)
(1.54674 0.0360984 0)
(1.53862 0.0366076 0)
(1.53038 0.0370959 0)
(1.52204 0.0375627 0)
(1.5136 0.0380073 0)
(1.50506 0.0384291 0)
(1.49643 0.0388275 0)
(1.48771 0.039202 0)
(1.47891 0.0395521 0)
(1.47003 0.0398773 0)
(1.46108 0.0401774 0)
(1.45207 0.0404521 0)
(1.443 0.0407009 0)
(1.43388 0.0409239 0)
(1.42471 0.0411208 0)
(1.4155 0.0412915 0)
(1.40625 0.0414362 0)
(1.39698 0.0415547 0)
(1.38768 0.0416473 0)
(1.37836 0.0417142 0)
(1.36904 0.0417554 0)
(1.3597 0.0417714 0)
(1.35037 0.0417624 0)
(1.34104 0.0417289 0)
(1.33172 0.0416713 0)
(1.32242 0.04159 0)
(1.31314 0.0414857 0)
(1.30389 0.0413588 0)