/*--------------------------------*- C++ -*----------------------------------*\
| =========                 |                                                 |
| \\      /  F ield         | OpenFOAM: The Open Source CFD Toolbox           |
|  \\    /   O peration     | Version:  2306                                  |
|   \\  /    A nd           | Website:  www.openfoam.com                      |
|    \\/     M anipulation  |                                                 |
\*---------------------------------------------------------------------------*/
FoamFile
{
    version     2.0;
    format      ascii;
    arch        "LSB;label=32;scalar=64";
    class       volScalarField;
    location    "6";
    object      Keff;
}
// * * * * * * * * * * * * * * * * * * * * * * * * * * * * * * * * * * * * * //

dimensions      [1 1 -3 -1 0 0 0];

internalField   nonuniform List<scalar> 
32768
(
67.2037
67.2017
67.1976
67.1914
67.183
67.1726
67.16
67.1454
67.1286
67.1097
67.0886
67.0653
67.0398
67.0121
66.9822
66.95
66.9155
66.8787
66.8396
66.7981
66.7543
66.7081
66.6595
66.6084
66.5549
66.499
66.4406
66.3797
66.3164
66.2506
66.1824
66.1116
66.0385
65.9629
65.885
65.8046
65.722
65.6371
65.5499
65.4606
65.3692
65.2757
65.1803
65.083
64.9839
64.8831
64.7807
64.6768
64.5716
64.4651
64.3574
64.2488
64.1392
64.0289
63.9179
63.8064
63.6945
63.5824
63.4702
63.3579
63.2458
63.1339
63.0224
62.9114
62.801
62.6912
62.5823
62.4742
62.3671
62.2611
62.1562
62.0526
61.9503
61.8493
61.7498
61.6518
61.5553
61.4605
61.3673
61.2758
61.1861
61.0982
61.0121
60.928
60.8457
60.7654
60.6872
60.611
60.5369
60.465
60.3953
60.3278
60.2626
60.1997
60.1393
60.0813
60.0258
59.9729
59.9226
59.875
59.8301
59.788
59.7488
59.7125
59.6792
59.6489
59.6218
59.5978
59.577
59.5594
59.5452
59.5344
59.5269
59.5229
59.5224
59.5253
59.5319
59.542
59.5556
59.5729
59.5938
59.6183
59.6464
59.678
59.7133
59.7522
59.7945
59.8404
59.8898
59.9426
59.9988
60.0583
60.1212
60.1872
60.2564
60.3286
60.4039
60.4821
60.5631
60.6468
60.7332
60.822
60.9134
61.007
61.1029
61.2008
61.3007
61.4024
61.5058
61.6108
61.7173
61.8251
61.934
62.044
62.1549
62.2666
62.3789
62.4916
62.6047
62.7181
62.8315
62.9448
63.058
63.1708
63.2833
63.3951
63.5063
63.6167
63.7261
63.8346
63.942
64.0481
64.153
64.2565
64.3585
64.459
64.5579
64.6551
64.7506
64.8444
64.9363
65.0263
65.1145
65.2007
65.285
65.3673
65.4477
65.526
65.6023
65.6766
65.7489
65.8192
65.8875
65.9538
66.0182
66.0806
66.141
66.1995
66.2562
66.311
66.3639
66.415
66.4643
66.5118
66.5576
66.6016
66.6439
66.6845
66.7233
66.7605
66.7959
66.8296
66.8615
66.8917
66.9201
66.9468
66.9716
66.9947
67.016
67.0356
67.0534
67.0696
67.0841
67.0971
67.1087
67.1189
67.1278
67.1356
67.1423
67.1481
67.1531
67.1574
67.1611
67.1642
67.167
67.1694
67.1716
67.1735
67.1753
67.177
67.1787
67.1803
67.182
67.1837
67.1854
67.1872
67.1891
67.191
67.1931
67.1952
67.1975
67.1999
67.2022
67.2051
67.207
67.2117
67.2037
67.2017
67.1976
67.1914
67.183
67.1726
67.1601
67.1454
67.1286
67.1097
67.0886
67.0653
67.0399
67.0122
66.9822
66.95
66.9156
66.8788
66.8397
66.7982
66.7544
66.7082
66.6595
66.6085
66.555
66.499
66.4406
66.3797
66.3164
66.2505
66.1822
66.1115
66.0383
65.9626
65.8846
65.8042
65.7215
65.6365
65.5492
65.4598
65.3683
65.2747
65.1791
65.0817
64.9825
64.8816
64.779
64.675
64.5696
64.463
64.3552
64.2464
64.1366
64.0262
63.915
63.8034
63.6914
63.5791
63.4668
63.3544
63.2421
63.1301
63.0185
62.9074
62.7968
62.687
62.5779
62.4697
62.3626
62.2565
62.1515
62.0478
61.9455
61.8444
61.7449
61.6468
61.5503
61.4554
61.3622
61.2707
61.1809
61.0929
61.0068
60.9226
60.8403
60.76
60.6818
60.6055
60.5314
60.4594
60.3897
60.3221
60.2569
60.194
60.1335
60.0755
60.02
59.967
59.9166
59.869
59.824
59.7819
59.7426
59.7063
59.6729
59.6426
59.6154
59.5913
59.5705
59.5529
59.5387
59.5278
59.5203
59.5162
59.5157
59.5186
59.5252
59.5352
59.5489
59.5662
59.587
59.6115
59.6396
59.6713
59.7066
59.7455
59.7879
59.8338
59.8832
59.936
59.9923
60.0519
60.1147
60.1808
60.2501
60.3224
60.3978
60.476
60.5571
60.6409
60.7274
60.8164
60.9078
61.0016
61.0975
61.1956
61.2956
61.3974
61.501
61.6061
61.7127
61.8207
61.9298
62.0399
62.1509
62.2627
62.3752
62.4881
62.6014
62.7148
62.8284
62.9419
63.0552
63.1682
63.2808
63.3928
63.5041
63.6146
63.7242
63.8328
63.9403
64.0466
64.1516
64.2552
64.3573
64.4579
64.5569
64.6543
64.7499
64.8437
64.9357
65.0258
65.1141
65.2004
65.2847
65.3671
65.4475
65.5258
65.6022
65.6765
65.7489
65.8192
65.8875
65.9539
66.0182
66.0806
66.1411
66.1996
66.2563
66.311
66.364
66.4151
66.4644
66.5119
66.5576
66.6016
66.6439
66.6845
66.7233
66.7605
66.7959
66.8296
66.8615
66.8917
66.9201
66.9467
66.9716
66.9946
67.0159
67.0355
67.0533
67.0694
67.084
67.097
67.1085
67.1187
67.1277
67.1354
67.1422
67.148
67.153
67.1573
67.1609
67.1641
67.1669
67.1693
67.1714
67.1734
67.1752
67.1769
67.1786
67.1802
67.1819
67.1836
67.1853
67.1871
67.189
67.1909
67.193
67.1951
67.1974
67.1998
67.2021
67.205
67.2069
67.2116
67.2037
67.2017
67.1976
67.1914
67.1831
67.1726
67.1601
67.1455
67.1287
67.1098
67.0887
67.0654
67.04
67.0123
66.9824
66.9502
66.9157
66.879
66.8399
66.7984
66.7546
66.7083
66.6597
66.6086
66.5551
66.4991
66.4406
66.3797
66.3163
66.2503
66.182
66.1111
66.0378
65.962
65.8839
65.8033
65.7204
65.6353
65.5478
65.4582
65.3665
65.2727
65.1769
65.0792
64.9797
64.8785
64.7757
64.6714
64.5657
64.4588
64.3507
64.2416
64.1316
64.0208
63.9094
63.7974
63.6851
63.5726
63.4599
63.3473
63.2348
63.1225
63.0107
62.8993
62.7885
62.6784
62.5692
62.4608
62.3535
62.2472
62.1422
62.0383
61.9358
61.8347
61.735
61.6368
61.5402
61.4452
61.3519
61.2603
61.1705
61.0824
60.9963
60.912
60.8296
60.7493
60.6709
60.5946
60.5204
60.4484
60.3785
60.3109
60.2456
60.1826
60.122
60.0639
60.0082
59.9552
59.9047
59.8569
59.8119
59.7697
59.7303
59.6939
59.6604
59.63
59.6027
59.5785
59.5576
59.5399
59.5256
59.5146
59.507
59.5029
59.5023
59.5052
59.5117
59.5217
59.5354
59.5526
59.5735
59.598
59.6261
59.6578
59.6931
59.732
59.7745
59.8205
59.87
59.9229
59.9793
60.0389
60.1019
60.1682
60.2375
60.31
60.3855
60.4639
60.5452
60.6292
60.7158
60.805
60.8967
60.9907
61.0869
61.1851
61.2854
61.3875
61.4913
61.5967
61.7036
61.8118
61.9212
62.0316
62.143
62.2551
62.3678
62.481
62.5946
62.7084
62.8223
62.9361
63.0497
63.163
63.2758
63.3881
63.4997
63.6105
63.7204
63.8293
63.937
64.0436
64.1488
64.2526
64.355
64.4558
64.555
64.6526
64.7484
64.8424
64.9345
65.0248
65.1132
65.1996
65.2841
65.3666
65.4471
65.5255
65.602
65.6764
65.7488
65.8192
65.8876
65.9539
66.0183
66.0808
66.1413
66.1998
66.2565
66.3112
66.3642
66.4153
66.4645
66.5121
66.5578
66.6018
66.644
66.6846
66.7234
66.7605
66.7959
66.8296
66.8615
66.8916
66.92
66.9466
66.9714
66.9945
67.0158
67.0353
67.0531
67.0692
67.0838
67.0968
67.1083
67.1185
67.1274
67.1352
67.1419
67.1477
67.1527
67.157
67.1607
67.1638
67.1666
67.169
67.1712
67.1731
67.1749
67.1767
67.1783
67.18
67.1816
67.1833
67.1851
67.1869
67.1887
67.1907
67.1928
67.1949
67.1971
67.1996
67.2019
67.2048
67.2067
67.2114
67.2037
67.2017
67.1976
67.1914
67.1831
67.1727
67.1602
67.1455
67.1288
67.1099
67.0889
67.0656
67.0402
67.0125
66.9826
66.9505
66.916
66.8792
66.8401
66.7987
66.7548
66.7086
66.6599
66.6088
66.5552
66.4992
66.4407
66.3796
66.3161
66.2501
66.1816
66.1106
66.0371
65.9612
65.8828
65.802
65.7189
65.6335
65.5458
65.4558
65.3638
65.2696
65.1735
65.0754
64.9755
64.8739
64.7707
64.666
64.5599
64.4525
64.344
64.2344
64.1239
64.0127
63.9008
63.7885
63.6757
63.5627
63.4497
63.3366
63.2237
63.1111
62.9989
62.8871
62.776
62.6657
62.5561
62.4475
62.3399
62.2334
62.1281
62.024
61.9213
61.82
61.7202
61.6218
61.5251
61.43
61.3365
61.2448
61.1548
61.0667
60.9804
60.896
60.8136
60.7331
60.6546
60.5782
60.5039
60.4317
60.3618
60.294
60.2286
60.1655
60.1048
60.0465
59.9907
59.9375
59.8869
59.8389
59.7937
59.7514
59.7118
59.6752
59.6416
59.611
59.5836
59.5593
59.5382
59.5204
59.5059
59.4949
59.4872
59.483
59.4823
59.4851
59.4915
59.5015
59.5151
59.5324
59.5532
59.5777
59.6058
59.6376
59.673
59.7119
59.7545
59.8006
59.8502
59.9032
59.9597
60.0195
60.0827
60.1491
60.2187
60.2914
60.3671
60.4458
60.5273
60.6116
60.6985
60.788
60.88
60.9743
61.0708
61.1695
61.2701
61.3726
61.4768
61.5826
61.6899
61.7986
61.9084
62.0192
62.131
62.2436
62.3568
62.4704
62.5845
62.6987
62.813
62.9273
63.0414
63.1551
63.2684
63.3812
63.4932
63.6044
63.7147
63.824
63.9321
64.039
64.1446
64.2488
64.3515
64.4527
64.5522
64.65
64.7461
64.8404
64.9328
65.0233
65.1119
65.1985
65.2832
65.3658
65.4465
65.5251
65.6017
65.6762
65.7487
65.8192
65.8876
65.9541
66.0185
66.081
66.1415
66.2001
66.2568
66.3116
66.3645
66.4156
66.4648
66.5123
66.558
66.602
66.6442
66.6847
66.7235
66.7606
66.7959
66.8295
66.8614
66.8915
66.9199
66.9465
66.9713
66.9943
67.0155
67.035
67.0528
67.0689
67.0834
67.0964
67.1079
67.1181
67.127
67.1348
67.1415
67.1473
67.1523
67.1566
67.1603
67.1634
67.1662
67.1686
67.1708
67.1727
67.1746
67.1763
67.178
67.1796
67.1813
67.183
67.1847
67.1865
67.1884
67.1904
67.1924
67.1946
67.1968
67.1992
67.2016
67.2044
67.2064
67.211
67.2037
67.2017
67.1976
67.1914
67.1831
67.1727
67.1603
67.1457
67.1289
67.1101
67.0891
67.0658
67.0404
67.0128
66.983
66.9508
66.9164
66.8796
66.8405
66.7991
66.7552
66.709
66.6603
66.6091
66.5555
66.4994
66.4408
66.3796
66.316
66.2498
66.1811
66.1099
66.0362
65.96
65.8814
65.8003
65.7169
65.6311
65.543
65.4527
65.3602
65.2656
65.169
65.0704
64.97
64.8679
64.7641
64.6588
64.5521
64.4441
64.335
64.2248
64.1137
64.0019
63.8894
63.7765
63.6632
63.5496
63.436
63.3224
63.209
63.0958
62.9831
62.8709
62.7594
62.6486
62.5387
62.4297
62.3217
62.2149
62.1093
62.005
61.902
61.8005
61.7004
61.6019
61.5049
61.4096
61.316
61.2241
61.134
61.0457
60.9593
60.8748
60.7922
60.7116
60.6329
60.5564
60.4819
60.4096
60.3395
60.2716
60.206
60.1427
60.0818
60.0233
59.9673
59.9139
59.8631
59.815
59.7696
59.727
59.6872
59.6504
59.6166
59.5858
59.5581
59.5337
59.5124
59.4944
59.4798
59.4685
59.4607
59.4564
59.4556
59.4583
59.4647
59.4746
59.4881
59.5053
59.5262
59.5507
59.5788
59.6106
59.6461
59.6851
59.7278
59.774
59.8237
59.877
59.9336
59.9937
60.0571
60.1237
60.1936
60.2666
60.3426
60.4216
60.5034
60.5881
60.6754
60.7654
60.8577
60.9525
61.0495
61.1486
61.2497
61.3527
61.4575
61.5638
61.6717
61.7809
61.8913
62.0027
62.1151
62.2283
62.342
62.4563
62.571
62.6858
62.8008
62.9156
63.0303
63.1447
63.2586
63.3719
63.4845
63.5963
63.7071
63.8169
63.9256
64.033
64.1391
64.2438
64.3469
64.4485
64.5484
64.6467
64.7431
64.8377
64.9305
65.0213
65.1102
65.1971
65.282
65.3649
65.4457
65.5245
65.6013
65.676
65.7486
65.8192
65.8877
65.9543
66.0188
66.0813
66.1419
66.2005
66.2572
66.312
66.3649
66.416
66.4652
66.5127
66.5584
66.6023
66.6445
66.6849
66.7237
66.7607
66.796
66.8295
66.8613
66.8914
66.9197
66.9462
66.971
66.994
67.0152
67.0346
67.0524
67.0685
67.083
67.0959
67.1074
67.1176
67.1265
67.1343
67.141
67.1468
67.1518
67.156
67.1597
67.1629
67.1657
67.1681
67.1703
67.1722
67.1741
67.1758
67.1775
67.1791
67.1808
67.1825
67.1843
67.1861
67.188
67.19
67.192
67.1942
67.1964
67.1988
67.2012
67.204
67.206
67.2106
67.2037
67.2017
67.1976
67.1915
67.1832
67.1728
67.1604
67.1458
67.1291
67.1103
67.0893
67.0661
67.0408
67.0132
66.9834
66.9513
66.9169
66.8801
66.8411
66.7996
66.7557
66.7095
66.6607
66.6095
66.5558
66.4996
66.4409
66.3796
66.3158
66.2495
66.1806
66.1091
66.0352
65.9587
65.8797
65.7983
65.7144
65.6282
65.5396
65.4488
65.3558
65.2606
65.1634
65.0642
64.9632
64.8603
64.7559
64.6499
64.5424
64.4337
64.3238
64.2129
64.101
63.9884
63.8752
63.7615
63.6475
63.5332
63.4189
63.3046
63.1905
63.0768
62.9634
62.8507
62.7386
62.6273
62.5169
62.4074
62.299
62.1918
62.0858
61.9812
61.8779
61.776
61.6757
61.5769
61.4797
61.3842
61.2904
61.1983
61.108
61.0195
60.9329
60.8482
60.7655
60.6847
60.6059
60.5292
60.4545
60.382
60.3117
60.2436
60.1777
60.1142
60.0531
59.9944
59.9382
59.8845
59.8334
59.785
59.7394
59.6965
59.6565
59.6194
59.5853
59.5543
59.5264
59.5016
59.4801
59.462
59.4471
59.4357
59.4277
59.4232
59.4222
59.4248
59.4311
59.4409
59.4544
59.4716
59.4924
59.5169
59.5451
59.5769
59.6125
59.6516
59.6944
59.7408
59.7907
59.8441
59.901
59.9613
60.025
60.092
60.1622
60.2355
60.3119
60.3913
60.4736
60.5587
60.6466
60.737
60.8299
60.9252
61.0228
61.1225
61.2243
61.3279
61.4333
61.5403
61.6489
61.7588
61.8699
61.9821
62.0952
62.2091
62.3237
62.4387
62.5541
62.6697
62.7855
62.9011
63.0165
63.1316
63.2463
63.3603
63.4736
63.5861
63.6977
63.8082
63.9175
64.0255
64.1322
64.2375
64.3412
64.4433
64.5438
64.6425
64.7394
64.8345
64.9276
65.0188
65.1081
65.1953
65.2805
65.3637
65.4448
65.5238
65.6008
65.6757
65.7485
65.8192
65.8879
65.9545
66.0191
66.0817
66.1424
66.201
66.2577
66.3125
66.3654
66.4165
66.4657
66.5132
66.5588
66.6027
66.6448
66.6852
66.7239
66.7608
66.796
66.8295
66.8613
66.8913
66.9195
66.946
66.9707
66.9936
67.0148
67.0342
67.0519
67.068
67.0824
67.0953
67.1068
67.117
67.1258
67.1336
67.1403
67.1461
67.1511
67.1554
67.1591
67.1622
67.165
67.1674
67.1696
67.1716
67.1734
67.1752
67.1769
67.1786
67.1802
67.182
67.1837
67.1855
67.1874
67.1894
67.1915
67.1937
67.1959
67.1983
67.2006
67.2035
67.2055
67.2101
67.2037
67.2017
67.1977
67.1915
67.1832
67.1729
67.1605
67.146
67.1293
67.1106
67.0896
67.0665
67.0412
67.0137
66.9839
66.9518
66.9175
66.8808
66.8417
66.8003
66.7564
66.7101
66.6613
66.6101
66.5563
66.5
66.4412
66.3797
66.3157
66.2492
66.18
66.1083
66.034
65.9572
65.8778
65.7959
65.7116
65.6248
65.5357
65.4443
65.3506
65.2547
65.1568
65.0568
64.955
64.8514
64.746
64.6392
64.5308
64.4212
64.3104
64.1986
64.0858
63.9723
63.8582
63.7435
63.6286
63.5135
63.3983
63.2832
63.1684
63.0538
62.9398
62.8263
62.7136
62.6017
62.4907
62.3807
62.2718
62.1641
62.0577
61.9526
61.8489
61.7467
61.646
61.5469
61.4495
61.3537
61.2596
61.1673
61.0768
60.9882
60.9014
60.8165
60.7335
60.6525
60.5735
60.4966
60.4217
60.349
60.2784
60.2101
60.144
60.0802
60.0188
59.9598
59.9033
59.8493
59.7979
59.7492
59.7032
59.66
59.6197
59.5823
59.5479
59.5165
59.4883
59.4633
59.4415
59.423
59.4079
59.3963
59.388
59.3834
59.3822
59.3847
59.3908
59.4005
59.4139
59.431
59.4518
59.4764
59.5046
59.5365
59.5721
59.6114
59.6543
59.7009
59.751
59.8047
59.8619
59.9225
59.9865
60.0539
60.1245
60.1982
60.2751
60.355
60.4378
60.5235
60.6119
60.7029
60.7965
60.8925
60.9907
61.0912
61.1937
61.2981
61.4043
61.5121
61.6215
61.7322
61.8442
61.9573
62.0713
62.1861
62.3016
62.4176
62.5339
62.6505
62.7671
62.8836
63
63.116
63.2316
63.3465
63.4607
63.574
63.6864
63.7977
63.9078
64.0166
64.1241
64.23
64.3344
64.4372
64.5383
64.6376
64.735
64.8306
64.9243
65.016
65.1056
65.1933
65.2789
65.3624
65.4438
65.5231
65.6003
65.6754
65.7484
65.8193
65.8882
65.9549
66.0196
66.0823
66.143
66.2017
66.2584
66.3132
66.3661
66.4172
66.4664
66.5137
66.5593
66.6031
66.6452
66.6855
66.7241
66.761
66.7961
66.8295
66.8612
66.8911
66.9193
66.9457
66.9703
66.9932
67.0143
67.0336
67.0513
67.0673
67.0817
67.0946
67.1061
67.1162
67.1251
67.1328
67.1395
67.1453
67.1503
67.1546
67.1582
67.1614
67.1642
67.1666
67.1688
67.1708
67.1727
67.1744
67.1762
67.1778
67.1795
67.1813
67.1831
67.1849
67.1868
67.1888
67.1909
67.193
67.1953
67.1977
67.2
67.2029
67.2048
67.2094
67.2037
67.2017
67.1977
67.1915
67.1833
67.173
67.1607
67.1462
67.1296
67.1109
67.09
67.067
67.0417
67.0142
66.9845
66.9525
66.9182
66.8815
66.8425
66.8011
66.7572
66.7109
66.6621
66.6108
66.5569
66.5005
66.4415
66.3799
66.3157
66.2489
66.1795
66.1074
66.0328
65.9555
65.8757
65.7933
65.7084
65.621
65.5312
65.4391
65.3446
65.248
65.1492
65.0483
64.9456
64.841
64.7347
64.6268
64.5174
64.4067
64.2948
64.1819
64.068
63.9535
63.8382
63.7226
63.6066
63.4905
63.3743
63.2582
63.1425
63.027
62.9121
62.7979
62.6844
62.5717
62.46
62.3494
62.2399
62.1317
62.0247
61.9192
61.8151
61.7125
61.6114
61.512
61.4142
61.3182
61.2238
61.1313
61.0405
60.9516
60.8646
60.7795
60.6963
60.615
60.5358
60.4586
60.3835
60.3105
60.2397
60.171
60.1047
60.0406
59.9788
59.9195
59.8626
59.8083
59.7566
59.7075
59.6611
59.6175
59.5768
59.539
59.5043
59.4725
59.444
59.4186
59.3965
59.3777
59.3623
59.3503
59.3419
59.3369
59.3356
59.3379
59.3438
59.3534
59.3667
59.3838
59.4046
59.4291
59.4573
59.4893
59.5251
59.5645
59.6076
59.6544
59.7048
59.7587
59.8162
59.8772
59.9416
60.0094
60.0805
60.1547
60.2322
60.3126
60.3961
60.4824
60.5715
60.6632
60.7575
60.8543
60.9533
61.0546
61.158
61.2633
61.3704
61.4792
61.5895
61.7013
61.8143
61.9284
62.0435
62.1593
62.2759
62.3929
62.5103
62.628
62.7457
62.8633
62.9808
63.0978
63.2144
63.3304
63.4456
63.56
63.6733
63.7856
63.8966
64.0063
64.1146
64.2214
64.3266
64.4301
64.5319
64.6319
64.73
64.8262
64.9205
65.0127
65.1029
65.191
65.277
65.3609
65.4427
65.5223
65.5998
65.6752
65.7484
65.8195
65.8885
65.9554
66.0203
66.083
66.1438
66.2025
66.2593
66.3141
66.367
66.418
66.4672
66.5145
66.56
66.6037
66.6457
66.686
66.7244
66.7612
66.7963
66.8296
66.8611
66.891
66.919
66.9453
66.9699
66.9927
67.0137
67.033
67.0506
67.0666
67.081
67.0938
67.1052
67.1153
67.1242
67.1319
67.1386
67.1443
67.1493
67.1536
67.1573
67.1605
67.1633
67.1657
67.1679
67.1699
67.1718
67.1736
67.1753
67.177
67.1787
67.1805
67.1823
67.1841
67.1861
67.1881
67.1901
67.1923
67.1946
67.197
67.1993
67.2022
67.2041
67.2087
67.2037
67.2017
67.1977
67.1916
67.1834
67.1732
67.1608
67.1464
67.1299
67.1113
67.0905
67.0675
67.0423
67.0149
66.9853
66.9534
66.9191
66.8825
66.8435
66.8021
66.7583
66.7119
66.6631
66.6117
66.5578
66.5012
66.4421
66.3803
66.3159
66.2488
66.179
66.1066
66.0315
65.9538
65.8734
65.7904
65.7049
65.6168
65.5262
65.4333
65.338
65.2404
65.1406
65.0388
64.9349
64.8292
64.7217
64.6127
64.5021
64.3902
64.2771
64.1629
64.0478
63.9319
63.8155
63.6986
63.5814
63.4641
63.3468
63.2297
63.1128
62.9964
62.8805
62.7653
62.6509
62.5375
62.425
62.3136
62.2035
62.0946
61.9871
61.881
61.7764
61.6734
61.5719
61.4721
61.374
61.2776
61.183
61.0901
60.9991
60.91
60.8227
60.7373
60.6538
60.5724
60.4929
60.4154
60.34
60.2667
60.1956
60.1266
60.0599
59.9955
59.9334
59.8736
59.8164
59.7616
59.7095
59.6599
59.6131
59.5691
59.528
59.4897
59.4545
59.4224
59.3934
59.3676
59.3451
59.3259
59.3102
59.2979
59.2891
59.2839
59.2823
59.2844
59.2901
59.2996
59.3128
59.3298
59.3505
59.3751
59.4034
59.4355
59.4713
59.5109
59.5542
59.6012
59.6519
59.7062
59.7641
59.8255
59.8903
59.9586
60.0302
60.105
60.1831
60.2642
60.3483
60.4354
60.5252
60.6178
60.7129
60.8106
60.9106
61.0128
61.1172
61.2235
61.3317
61.4416
61.553
61.6659
61.7801
61.8954
62.0116
62.1287
62.2465
62.3648
62.4834
62.6023
62.7213
62.8402
62.9588
63.0771
63.1949
63.3121
63.4285
63.544
63.6584
63.7718
63.8839
63.9946
64.1039
64.2116
64.3178
64.4222
64.5248
64.6256
64.7245
64.8214
64.9163
65.0091
65.0999
65.1885
65.275
65.3593
65.4415
65.5215
65.5994
65.675
65.7485
65.8198
65.889
65.9561
66.021
66.0839
66.1447
66.2035
66.2603
66.3152
66.368
66.419
66.4681
66.5154
66.5608
66.6045
66.6464
66.6865
66.7249
66.7615
66.7964
66.8296
66.8611
66.8908
66.9188
66.945
66.9694
66.9921
67.0131
67.0323
67.0498
67.0657
67.0801
67.0929
67.1043
67.1143
67.1231
67.1308
67.1375
67.1432
67.1482
67.1525
67.1562
67.1594
67.1622
67.1647
67.1669
67.1689
67.1708
67.1726
67.1744
67.1761
67.1778
67.1796
67.1814
67.1833
67.1852
67.1872
67.1893
67.1915
67.1938
67.1962
67.1985
67.2014
67.2033
67.2079
67.2037
67.2017
67.1977
67.1917
67.1835
67.1733
67.1611
67.1467
67.1303
67.1117
67.091
67.0681
67.0431
67.0158
66.9862
66.9544
66.9202
66.8836
66.8447
66.8033
66.7595
66.7132
66.6643
66.6129
66.5588
66.5022
66.4429
66.3809
66.3162
66.2488
66.1787
66.1058
66.0303
65.952
65.871
65.7874
65.7011
65.6123
65.5209
65.427
65.3307
65.232
65.1312
65.0281
64.9231
64.8161
64.7074
64.5969
64.485
64.3717
64.2571
64.1415
64.025
63.9078
63.7899
63.6716
63.5531
63.4345
63.3159
63.1975
63.0794
62.9618
62.8448
62.7286
62.6132
62.4988
62.3855
62.2734
62.1625
62.0529
61.9448
61.8381
61.733
61.6294
61.5275
61.4273
61.3288
61.2321
61.1371
61.044
60.9526
60.8632
60.7756
60.69
60.6063
60.5245
60.4447
60.367
60.2913
60.2177
60.1462
60.0769
60.0098
59.9449
59.8824
59.8222
59.7645
59.7093
59.6567
59.6067
59.5594
59.5148
59.4732
59.4345
59.3987
59.3661
59.3366
59.3104
59.2874
59.2678
59.2517
59.239
59.2299
59.2244
59.2225
59.2243
59.2298
59.2391
59.2522
59.2691
59.2898
59.3143
59.3427
59.3749
59.4109
59.4506
59.4942
59.5415
59.5925
59.6471
59.7054
59.7673
59.8326
59.9014
59.9736
60.0491
60.1278
60.2097
60.2946
60.3824
60.4732
60.5666
60.6628
60.7614
60.8624
60.9658
61.0712
61.1787
61.2881
61.3992
61.5119
61.6261
61.7416
61.8582
61.9758
62.0943
62.2135
62.3332
62.4532
62.5735
62.6939
62.8142
62.9342
63.0539
63.1731
63.2916
63.4093
63.5261
63.6418
63.7564
63.8697
63.9816
64.092
64.2008
64.308
64.4134
64.5169
64.6186
64.7183
64.816
64.9117
65.0052
65.0966
65.1858
65.2729
65.3577
65.4404
65.5208
65.599
65.675
65.7487
65.8203
65.8897
65.957
66.0221
66.085
66.1459
66.2048
66.2616
66.3164
66.3693
66.4202
66.4693
66.5165
66.5618
66.6054
66.6471
66.6871
66.7254
66.7619
66.7967
66.8297
66.8611
66.8907
66.9185
66.9446
66.9689
66.9915
67.0124
67.0315
67.049
67.0648
67.0791
67.0918
67.1031
67.1132
67.1219
67.1296
67.1363
67.142
67.147
67.1513
67.155
67.1582
67.161
67.1635
67.1657
67.1678
67.1697
67.1715
67.1733
67.175
67.1768
67.1786
67.1804
67.1823
67.1843
67.1863
67.1884
67.1906
67.1929
67.1953
67.1976
67.2005
67.2024
67.207
67.2037
67.2017
67.1978
67.1917
67.1837
67.1735
67.1613
67.1471
67.1307
67.1123
67.0917
67.0689
67.0439
67.0167
66.9873
66.9555
66.9214
66.885
66.8461
66.8048
66.761
66.7147
66.6658
66.6143
66.5602
66.5034
66.4439
66.3817
66.3168
66.2491
66.1785
66.1053
66.0292
65.9503
65.8687
65.7843
65.6973
65.6075
65.5152
65.4202
65.3228
65.223
65.1209
65.0166
64.9102
64.8018
64.6915
64.5796
64.4661
64.3512
64.2351
64.1179
63.9998
63.8809
63.7615
63.6417
63.5216
63.4015
63.2814
63.1616
63.0422
62.9233
62.8051
62.6877
62.5713
62.4559
62.3416
62.2285
62.1168
62.0065
61.8976
61.7903
61.6846
61.5806
61.4782
61.3775
61.2786
61.1815
61.0862
60.9928
60.9011
60.8114
60.7236
60.6376
60.5536
60.4716
60.3915
60.3134
60.2374
60.1634
60.0916
60.0219
59.9543
59.889
59.826
59.7654
59.7072
59.6515
59.5983
59.5477
59.4998
59.4548
59.4125
59.3732
59.3369
59.3037
59.2737
59.2469
59.2235
59.2034
59.1868
59.1737
59.1642
59.1583
59.1561
59.1576
59.1629
59.172
59.185
59.2018
59.2224
59.2469
59.2753
59.3076
59.3437
59.3837
59.4275
59.4751
59.5264
59.5815
59.6402
59.7026
59.7685
59.8379
59.9108
59.987
60.0664
60.1491
60.2349
60.3237
60.4153
60.5098
60.607
60.7067
60.8089
60.9135
61.0202
61.129
61.2397
61.3522
61.4663
61.5819
61.6988
61.817
61.9361
62.0561
62.1768
62.2981
62.4197
62.5416
62.6635
62.7854
62.907
63.0282
63.1489
63.2689
63.3881
63.5064
63.6235
63.7395
63.8541
63.9673
64.079
64.189
64.2973
64.4038
64.5084
64.6111
64.7117
64.8103
64.9067
65.0011
65.0932
65.1831
65.2707
65.3561
65.4393
65.5201
65.5987
65.6751
65.7492
65.821
65.8906
65.9581
66.0233
66.0864
66.1474
66.2063
66.2631
66.3179
66.3708
66.4217
66.4706
66.5177
66.563
66.6064
66.648
66.6879
66.726
66.7624
66.797
66.8299
66.8611
66.8905
66.9182
66.9442
66.9684
66.9908
67.0116
67.0306
67.048
67.0638
67.0779
67.0906
67.1019
67.1119
67.1206
67.1283
67.1349
67.1406
67.1456
67.1499
67.1536
67.1568
67.1596
67.1621
67.1644
67.1665
67.1684
67.1703
67.1721
67.1739
67.1757
67.1775
67.1793
67.1812
67.1832
67.1853
67.1874
67.1896
67.1919
67.1943
67.1966
67.1995
67.2014
67.2059
67.2037
67.2018
67.1978
67.1918
67.1838
67.1737
67.1616
67.1475
67.1312
67.1129
67.0924
67.0698
67.0449
67.0179
66.9885
66.9569
66.9229
66.8866
66.8478
66.8066
66.7628
66.7165
66.6677
66.6161
66.5619
66.505
66.4454
66.3829
66.3177
66.2496
66.1787
66.1049
66.0283
65.9488
65.8665
65.7813
65.6933
65.6026
65.5092
65.4132
65.3145
65.2134
65.1099
65.0041
64.8962
64.7862
64.6744
64.5607
64.4455
64.3289
64.211
64.092
63.9721
63.8514
63.7302
63.6087
63.4869
63.3651
63.2434
63.1221
63.0012
62.8809
62.7614
62.6427
62.525
62.4085
62.2931
62.1791
62.0665
61.9554
61.8458
61.7378
61.6315
61.5269
61.424
61.3229
61.2235
61.126
61.0304
60.9366
60.8447
60.7546
60.6665
60.5803
60.496
60.4136
60.3332
60.2548
60.1784
60.1041
60.0318
59.9617
59.8937
59.8279
59.7644
59.7032
59.6445
59.5881
59.5343
59.4832
59.4347
59.389
59.3461
59.3061
59.2692
59.2354
59.2047
59.1774
59.1533
59.1327
59.1156
59.102
59.092
59.0857
59.0832
59.0844
59.0894
59.0983
59.1111
59.1278
59.1483
59.1729
59.2013
59.2337
59.27
59.3101
59.3542
59.4021
59.4538
59.5093
59.5686
59.6315
59.698
59.7681
59.8416
59.9186
59.9989
60.0825
60.1692
60.259
60.3517
60.4473
60.5456
60.6466
60.7501
60.8559
60.964
61.0742
61.1864
61.3004
61.4161
61.5333
61.6518
61.7716
61.8924
62.0141
62.1366
62.2595
62.3829
62.5066
62.6302
62.7538
62.8772
63.0001
63.1225
63.2442
63.365
63.4849
63.6036
63.7211
63.8372
63.9518
64.0648
64.1762
64.2858
64.3935
64.4992
64.603
64.7047
64.8042
64.9016
64.9967
65.0896
65.1803
65.2686
65.3546
65.4383
65.5196
65.5987
65.6754
65.7498
65.822
65.8918
65.9595
66.0249
66.0881
66.1491
66.2081
66.2649
66.3197
66.3725
66.4234
66.4723
66.5192
66.5644
66.6076
66.6491
66.6888
66.7268
66.763
66.7974
66.8302
66.8612
66.8904
66.918
66.9438
66.9678
66.9901
67.0108
67.0297
67.047
67.0626
67.0767
67.0893
67.1005
67.1105
67.1192
67.1268
67.1334
67.1391
67.1441
67.1483
67.1521
67.1553
67.1581
67.1607
67.163
67.1651
67.167
67.1689
67.1708
67.1726
67.1744
67.1763
67.1781
67.1801
67.1821
67.1842
67.1863
67.1885
67.1908
67.1932
67.1956
67.1984
67.2003
67.2049
67.2037
67.2018
67.1979
67.1919
67.184
67.174
67.162
67.1479
67.1318
67.1136
67.0933
67.0708
67.0461
67.0192
66.99
66.9585
66.9247
66.8885
66.8498
66.8087
66.765
66.7188
66.6699
66.6183
66.5641
66.507
66.4472
66.3845
66.319
66.2506
66.1792
66.1049
66.0277
65.9475
65.8644
65.7784
65.6895
65.5977
65.5031
65.4058
65.3059
65.2033
65.0983
64.9909
64.8813
64.7696
64.6559
64.5404
64.4232
64.3047
64.1848
64.0638
63.9419
63.8193
63.6962
63.5727
63.449
63.3254
63.2019
63.0789
62.9563
62.8345
62.7135
62.5934
62.4744
62.3567
62.2402
62.1252
62.0116
61.8996
61.7892
61.6805
61.5735
61.4683
61.3649
61.2633
61.1636
61.0657
60.9697
60.8756
60.7833
60.693
60.6046
60.518
60.4334
60.3508
60.2701
60.1913
60.1145
60.0398
59.9671
59.8965
59.828
59.7617
59.6976
59.6358
59.5764
59.5195
59.465
59.4132
59.364
59.3175
59.2739
59.2333
59.1957
59.1611
59.1298
59.1018
59.0771
59.0558
59.0381
59.024
59.0135
59.0068
59.0038
59.0047
59.0094
59.0181
59.0306
59.0472
59.0677
59.0922
59.1206
59.1531
59.1896
59.23
59.2743
59.3226
59.3747
59.4307
59.4905
59.554
59.6211
59.6919
59.7663
59.8441
59.9253
60.0098
60.0976
60.1884
60.2823
60.3791
60.4787
60.581
60.6859
60.7931
60.9027
61.0145
61.1283
61.2439
61.3613
61.4802
61.6005
61.7221
61.8448
61.9684
62.0927
62.2176
62.3429
62.4684
62.594
62.7196
62.8448
62.9696
63.0939
63.2174
63.34
63.4616
63.5821
63.7012
63.819
63.9352
64.0497
64.1625
64.2735
64.3825
64.4895
64.5945
64.6973
64.7979
64.8963
64.9923
65.0861
65.1775
65.2665
65.3532
65.4375
65.5194
65.5989
65.676
65.7508
65.8232
65.8933
65.9612
66.0267
66.0901
66.1512
66.2102
66.2671
66.3219
66.3746
66.4254
66.4741
66.521
66.566
66.6091
66.6504
66.6899
66.7277
66.7637
66.7979
66.8305
66.8613
66.8904
66.9177
66.9433
66.9672
66.9894
67.0099
67.0287
67.0458
67.0614
67.0754
67.0879
67.0991
67.1089
67.1176
67.1251
67.1317
67.1374
67.1424
67.1467
67.1504
67.1536
67.1565
67.1591
67.1614
67.1635
67.1655
67.1675
67.1694
67.1712
67.1731
67.175
67.1769
67.1788
67.1809
67.183
67.1851
67.1874
67.1897
67.1921
67.1944
67.1973
67.1992
67.2037
67.2037
67.2018
67.1979
67.1921
67.1842
67.1743
67.1624
67.1485
67.1325
67.1144
67.0943
67.0719
67.0474
67.0207
66.9917
66.9604
66.9267
66.8907
66.8522
66.8111
66.7676
66.7214
66.6725
66.621
66.5667
66.5095
66.4495
66.3866
66.3208
66.252
66.1802
66.1054
66.0275
65.9466
65.8627
65.7757
65.6858
65.5929
65.497
65.3984
65.2969
65.1928
65.0861
64.977
64.8655
64.7518
64.6362
64.5186
64.3994
64.2786
64.1566
64.0334
63.9093
63.7845
63.6592
63.5336
63.4079
63.2823
63.1569
63.0319
62.9076
62.7841
62.6614
62.5399
62.4195
62.3004
62.1827
62.0666
61.952
61.839
61.7278
61.6184
61.5107
61.4049
61.301
61.1989
61.0987
61.0005
60.9041
60.8097
60.7171
60.6265
60.5378
60.451
60.3661
60.2831
60.2021
60.123
60.0458
59.9706
59.8975
59.8263
59.7573
59.6905
59.6258
59.5634
59.5033
59.4456
59.3904
59.3378
59.2878
59.2406
59.1962
59.1548
59.1164
59.0811
59.049
59.0202
58.9948
58.9729
58.9545
58.9398
58.9288
58.9215
58.9181
58.9186
58.9229
58.9313
58.9436
58.96
58.9804
59.0049
59.0334
59.066
59.1026
59.1433
59.1879
59.2365
59.2891
59.3456
59.4059
59.4701
59.5379
59.6095
59.6847
59.7634
59.8456
59.9311
60.02
60.112
60.2071
60.3052
60.4062
60.5099
60.6163
60.7251
60.8363
60.9498
61.0653
61.1827
61.3019
61.4228
61.545
61.6686
61.7933
61.9189
62.0453
62.1722
62.2996
62.4273
62.555
62.6826
62.8099
62.9368
63.0631
63.1886
63.3132
63.4367
63.559
63.68
63.7995
63.9174
64.0336
64.148
64.2605
64.371
64.4794
64.5856
64.6897
64.7914
64.8908
64.9879
65.0826
65.1748
65.2646
65.352
65.4369
65.5194
65.5994
65.6769
65.7521
65.8249
65.8952
65.9633
66.029
66.0925
66.1537
66.2127
66.2696
66.3243
66.377
66.4277
66.4763
66.523
66.5679
66.6108
66.6519
66.6912
66.7288
66.7646
66.7986
66.8309
66.8615
66.8904
66.9175
66.9429
66.9666
66.9887
67.009
67.0276
67.0446
67.06
67.0739
67.0864
67.0975
67.1072
67.1158
67.1234
67.1299
67.1356
67.1406
67.1448
67.1486
67.1518
67.1547
67.1573
67.1597
67.1619
67.1639
67.1659
67.1678
67.1697
67.1716
67.1736
67.1755
67.1775
67.1796
67.1817
67.1839
67.1861
67.1884
67.1909
67.1932
67.196
67.198
67.2024
67.2037
67.2018
67.198
67.1922
67.1844
67.1746
67.1629
67.1491
67.1333
67.1154
67.0954
67.0733
67.049
67.0225
66.9937
66.9626
66.9291
66.8932
66.8549
66.814
66.7706
66.7245
66.6757
66.6242
66.5698
66.5126
66.4524
66.3893
66.3232
66.254
66.1818
66.1064
66.0279
65.9462
65.8614
65.7734
65.6824
65.5882
65.4911
65.3909
65.2879
65.1821
65.0735
64.9625
64.849
64.7332
64.6153
64.4955
64.3739
64.2508
64.1264
64.0008
63.8743
63.7472
63.6195
63.4916
63.3636
63.2357
63.1082
62.9813
62.855
62.7296
62.6052
62.482
62.3601
62.2397
62.1207
62.0033
61.8877
61.7738
61.6617
61.5515
61.4431
61.3367
61.2322
61.1297
61.0291
60.9305
60.8338
60.7391
60.6462
60.5554
60.4664
60.3793
60.2941
60.2108
60.1294
60.0499
59.9724
59.8968
59.8231
59.7515
59.6819
59.6144
59.5491
59.486
59.4252
59.3667
59.3107
59.2573
59.2065
59.1584
59.1131
59.0708
59.0315
58.9953