/*--------------------------------*- C++ -*----------------------------------*\
| =========                 |                                                 |
| \\      /  F ield         | OpenFOAM: The Open Source CFD Toolbox           |
|  \\    /   O peration     | Version:  2306                                  |
|   \\  /    A nd           | Website:  www.openfoam.com                      |
|    \\/     M anipulation  |                                                 |
\*---------------------------------------------------------------------------*/
FoamFile
{
    version     2.0;
    format      ascii;
    arch        "LSB;label=32;scalar=64";
    class       volScalarField;
    location    "6";
    object      p;
}
// * * * * * * * * * * * * * * * * * * * * * * * * * * * * * * * * * * * * * //

dimensions      [0 2 -2 0 0 0 0];

internalField   nonuniform List<scalar> 
32768
(
0.263956
0.263822
0.26353
0.26307
0.262443
0.261651
0.260695
0.259571
0.258278
0.256815
0.255179
0.253368
0.251379
0.249211
0.24686
0.244323
0.241598
0.238681
0.235568
0.232257
0.228744
0.225025
0.221098
0.216957
0.212601
0.208025
0.203226
0.198201
0.192948
0.187462
0.181742
0.175786
0.169591
0.163156
0.15648
0.149561
0.142401
0.134998
0.127355
0.119472
0.111351
0.102996
0.0944094
0.0855954
0.0765589
0.0673054
0.0578409
0.0481725
0.0383075
0.0282543
0.0180216
0.0076188
-0.00294408
-0.0136566
-0.0245078
-0.0354864
-0.0465806
-0.0577786
-0.0690681
-0.0804368
-0.0918722
-0.103362
-0.114893
-0.126454
-0.138032
-0.149615
-0.161191
-0.172748
-0.184276
-0.195763
-0.207199
-0.218573
-0.229876
-0.241097
-0.252228
-0.263259
-0.274183
-0.284991
-0.295675
-0.306227
-0.316639
-0.326906
-0.337019
-0.346971
-0.356756
-0.366366
-0.375795
-0.385036
-0.394082
-0.402926
-0.411561
-0.419979
-0.428174
-0.436137
-0.443862
-0.45134
-0.458565
-0.465526
-0.472218
-0.478632
-0.484759
-0.490592
-0.496124
-0.501345
-0.506248
-0.510827
-0.515073
-0.51898
-0.522542
-0.525751
-0.528603
-0.531092
-0.533213
-0.534964
-0.536339
-0.537337
-0.537955
-0.538191
-0.538047
-0.537521
-0.536614
-0.535328
-0.533667
-0.531633
-0.529229
-0.526463
-0.523338
-0.519862
-0.516041
-0.511884
-0.507399
-0.502596
-0.497485
-0.492076
-0.48638
-0.48041
-0.474177
-0.467694
-0.460975
-0.454032
-0.44688
-0.439534
-0.432006
-0.424313
-0.416469
-0.408488
-0.400386
-0.392178
-0.383879
-0.375503
-0.367066
-0.358581
-0.350063
-0.341527
-0.332985
-0.324452
-0.315939
-0.307461
-0.299028
-0.290651
-0.282344
-0.274114
-0.265973
-0.257929
-0.249992
-0.242169
-0.234467
-0.226894
-0.219455
-0.212156
-0.205002
-0.197997
-0.191145
-0.184448
-0.177911
-0.171533
-0.165317
-0.159265
-0.153376
-0.147651
-0.142089
-0.136689
-0.131452
-0.126375
-0.121456
-0.116694
-0.112087
-0.107632
-0.103327
-0.0991683
-0.0951536
-0.0912798
-0.0875437
-0.083942
-0.0804715
-0.0771286
-0.0739101
-0.0708123
-0.067832
-0.0649655
-0.0622094
-0.0595602
-0.0570145
-0.0545689
-0.05222
-0.0499644
-0.0477989
-0.0457201
-0.0437248
-0.0418098
-0.0399721
-0.0382084
-0.0365158
-0.0348912
-0.0333318
-0.0318346
-0.0303969
-0.0290159
-0.0276892
-0.026414
-0.0251881
-0.0240091
-0.0228748
-0.0217831
-0.0207321
-0.0197198
-0.0187444
-0.0178043
-0.0168977
-0.0160232
-0.0151792
-0.0143642
-0.0135768
-0.0128158
-0.0120796
-0.0113672
-0.0106771
-0.0100081
-0.00935906
-0.00872873
-0.00811594
-0.00751954
-0.00693838
-0.00637135
-0.00581735
-0.00527527
-0.00474405
-0.00422265
-0.00370993
-0.00320507
-0.00270652
-0.00221448
-0.00172505
-0.00124396
-0.000753483
-0.00028716
0.264118
0.263984
0.263693
0.263233
0.262607
0.261816
0.260859
0.259737
0.258445
0.256982
0.255347
0.253537
0.25155
0.249383
0.247034
0.244498
0.241774
0.238858
0.235747
0.232437
0.228925
0.225207
0.22128
0.21714
0.212783
0.208207
0.203408
0.198383
0.193128
0.187641
0.18192
0.175961
0.169763
0.163325
0.156645
0.149722
0.142556
0.135148
0.127499
0.119609
0.111481
0.103118
0.0945228
0.0856997
0.0766535
0.0673898
0.0579147
0.0482351
0.0383586
0.0282934
0.0180485
0.00763326
-0.00294227
-0.0136676
-0.0245316
-0.035523
-0.0466301
-0.0578407
-0.0691427
-0.0805236
-0.091971
-0.103472
-0.115015
-0.126586
-0.138175
-0.149767
-0.161353
-0.172919
-0.184455
-0.19595
-0.207393
-0.218774
-0.230083
-0.24131
-0.252446
-0.263482
-0.274411
-0.285222
-0.29591
-0.306466
-0.316882
-0.327152
-0.337267
-0.347223
-0.357011
-0.366624
-0.376056
-0.3853
-0.394349
-0.403196
-0.411835
-0.420257
-0.428455
-0.436422
-0.444151
-0.451634
-0.458862
-0.465829
-0.472525
-0.478944
-0.485076
-0.490914
-0.496451
-0.501677
-0.506585
-0.511169
-0.51542
-0.519332
-0.522897
-0.526111
-0.528967
-0.53146
-0.533585
-0.535338
-0.536716
-0.537716
-0.538336
-0.538574
-0.53843
-0.537905
-0.536998
-0.535713
-0.53405
-0.532014
-0.529609
-0.52684
-0.523713
-0.520233
-0.516409
-0.512247
-0.507758
-0.50295
-0.497833
-0.492418
-0.486716
-0.480738
-0.474498
-0.468008
-0.46128
-0.454329
-0.447169
-0.439813
-0.432276
-0.424574
-0.416719
-0.408729
-0.400616
-0.392398
-0.384088
-0.375701
-0.367253
-0.358757
-0.350228
-0.341681
-0.333128
-0.324584
-0.31606
-0.307571
-0.299127
-0.29074
-0.282422
-0.274182
-0.266031
-0.257978
-0.250031
-0.242199
-0.234489
-0.226907
-0.21946
-0.212154
-0.204992
-0.19798
-0.191122
-0.184419
-0.177875
-0.171492
-0.165272
-0.159215
-0.153322
-0.147593
-0.142027
-0.136625
-0.131384
-0.126305
-0.121384
-0.116621
-0.112012
-0.107556
-0.103249
-0.09909
-0.0950749
-0.0912008
-0.0874646
-0.0838631
-0.0803928
-0.0770505
-0.0738325
-0.0707355
-0.067756
-0.0648905
-0.0621355
-0.0594875
-0.0569431
-0.0544988
-0.0521513
-0.0498972
-0.0477331
-0.0456558
-0.0436621
-0.0417488
-0.0399126
-0.0381505
-0.0364595
-0.0348366
-0.0332788
-0.0317832
-0.0303471
-0.0289678
-0.0276426
-0.0263691
-0.0251447
-0.0239673
-0.0228345
-0.0217444
-0.0206948
-0.019684
-0.0187101
-0.0177714
-0.0168662
-0.0159931
-0.0151504
-0.0143367
-0.0135507
-0.0127909
-0.0120561
-0.0113449
-0.010656
-0.00998825
-0.00934039
-0.00871123
-0.0080996
-0.00750433
-0.0069243
-0.00635837
-0.00580545
-0.00526446
-0.0047343
-0.00421396
-0.00370228
-0.00319845
-0.00270092
-0.00220993
-0.00172142
-0.00124148
-0.000751549
-0.000287289
0.264443
0.26431
0.264019
0.26356
0.262934
0.262144
0.26119
0.260068
0.258778
0.257318
0.255685
0.253878
0.251893
0.249729
0.247381
0.244849
0.242127
0.239213
0.236104
0.232797
0.229286
0.22557
0.221644
0.217505
0.213149
0.208573
0.203774
0.198747
0.19349
0.188
0.182275
0.176312
0.170108
0.163663
0.156976
0.150044
0.142869
0.13545
0.127788
0.119885
0.111742
0.103363
0.0947504
0.085909
0.0768434
0.0675592
0.0580626
0.0483607
0.038461
0.0283719
0.0181025
0.00766221
-0.00293873
-0.0136897
-0.0245795
-0.0355968
-0.0467295
-0.0579655
-0.0692926
-0.0806981
-0.0921694
-0.103694
-0.115259
-0.126852
-0.138461
-0.150074
-0.161678
-0.173262
-0.184815
-0.196325
-0.207782
-0.219177
-0.230498
-0.241736
-0.252883
-0.263929
-0.274867
-0.285687
-0.296382
-0.306945
-0.317368
-0.327644
-0.337766
-0.347727
-0.357521
-0.36714
-0.376578
-0.385829
-0.394884
-0.403738
-0.412383
-0.420812
-0.429018
-0.436993
-0.44473
-0.452222
-0.459459
-0.466435
-0.473141
-0.479569
-0.485711
-0.49156
-0.497106
-0.502342
-0.507261
-0.511854
-0.516115
-0.520036
-0.523611
-0.526833
-0.529697
-0.532197
-0.534329
-0.536089
-0.537472
-0.538477
-0.5391
-0.539342
-0.5392
-0.538676
-0.537769
-0.536483
-0.534818
-0.53278
-0.530371
-0.527598
-0.524464
-0.520978
-0.517146
-0.512976
-0.508477
-0.503659
-0.498531
-0.493103
-0.487388
-0.481397
-0.475142
-0.468637
-0.461893
-0.454925
-0.447747
-0.440374
-0.432818
-0.425096
-0.417222
-0.409211
-0.401078
-0.392838
-0.384507
-0.376098
-0.367628
-0.35911
-0.350559
-0.34199
-0.333415
-0.324848
-0.316303
-0.307792
-0.299326
-0.290919
-0.282579
-0.274319
-0.266149
-0.258076
-0.25011
-0.24226
-0.234532
-0.226934
-0.219471
-0.212149
-0.204973
-0.197947
-0.191075
-0.18436
-0.177805
-0.171411
-0.165181
-0.159115
-0.153213
-0.147476
-0.141904
-0.136495
-0.131249
-0.126165
-0.12124
-0.116473
-0.111861
-0.107402
-0.103094
-0.0989332
-0.0949171
-0.0910425
-0.0873062
-0.0837049
-0.0802352
-0.0768938
-0.0736771
-0.0705816
-0.0676039
-0.0647403
-0.0619875
-0.0593419
-0.0568
-0.0543584
-0.0520137
-0.0497624
-0.0476014
-0.0455271
-0.0435365
-0.0416263
-0.0397934
-0.0380346
-0.0363468
-0.0347271
-0.0331726
-0.0316803
-0.0302475
-0.0288714
-0.0275494
-0.026279
-0.0250578
-0.0238835
-0.0227538
-0.0216667
-0.0206202
-0.0196123
-0.0186413
-0.0177054
-0.0168031
-0.0159327
-0.0150928
-0.0142818
-0.0134984
-0.0127412
-0.0120089
-0.0113002
-0.0106138
-0.00994849
-0.00930302
-0.00867621
-0.00806688
-0.00747389
-0.0068961
-0.00633239
-0.00578166
-0.00524282
-0.00471479
-0.00419656
-0.00368697
-0.00318522
-0.00268973
-0.00220079
-0.00171429
-0.0012364
-0.000748468
-0.000286432
0.26493
0.264797
0.264507
0.264049
0.263425
0.262637
0.261684
0.260566
0.259279
0.257821
0.256192
0.254388
0.252407
0.250246
0.247903
0.245374
0.242656
0.239747
0.236641
0.233337
0.229829
0.226116
0.222192
0.218054
0.213699
0.209123
0.204322
0.199293
0.194034
0.18854
0.182809
0.176839
0.170627
0.164172
0.157473
0.150529
0.143338
0.135903
0.128222
0.120299
0.112134
0.103731
0.0950926
0.0862237
0.0771289
0.0678139
0.058285
0.0485493
0.0386147
0.0284896
0.0181832
0.00770521
-0.00293402
-0.0137237
-0.0246524
-0.0357085
-0.0468798
-0.0581542
-0.0695189
-0.0809614
-0.0924688
-0.104028
-0.115627
-0.127253
-0.138893
-0.150535
-0.162167
-0.173778
-0.185356
-0.196889
-0.208368
-0.219783
-0.231122
-0.242378
-0.253541
-0.264601
-0.275552
-0.286385
-0.297091
-0.307665
-0.318098
-0.328383
-0.338515
-0.348485
-0.358287
-0.367915
-0.377362
-0.386622
-0.395687
-0.40455
-0.413206
-0.421645
-0.429863
-0.43785
-0.445599
-0.453103
-0.460354
-0.467344
-0.474064
-0.480507
-0.486665
-0.492528
-0.49809
-0.503342
-0.508275
-0.512884
-0.517159
-0.521094
-0.524683
-0.527918
-0.530794
-0.533306
-0.535448
-0.537217
-0.538608
-0.53962
-0.54025
-0.540495
-0.540357
-0.539834
-0.538928
-0.53764
-0.535973
-0.533931
-0.531517
-0.528736
-0.525594
-0.522098
-0.518255
-0.514072
-0.509559
-0.504725
-0.49958
-0.494134
-0.4884
-0.482388
-0.476111
-0.469582
-0.462815
-0.455822
-0.448618
-0.441216
-0.433633
-0.425882
-0.417978
-0.409936
-0.401772
-0.393501
-0.385137
-0.376696
-0.368193
-0.359642
-0.351057
-0.342454
-0.333846
-0.325246
-0.316668
-0.308124
-0.299626
-0.291186
-0.282816
-0.274525
-0.266325
-0.258223
-0.250229
-0.242351
-0.234597
-0.226973
-0.219486
-0.212141
-0.204943
-0.197896
-0.191005
-0.184271
-0.177699
-0.171289
-0.165044
-0.158963
-0.153049
-0.147301
-0.141718
-0.1363
-0.131046
-0.125954
-0.121023
-0.11625
-0.111634
-0.107172
-0.102861
-0.0986976
-0.09468
-0.0908046
-0.0870681
-0.0834672
-0.0799985
-0.0766585
-0.0734436
-0.0703505
-0.0673754
-0.0645149
-0.0617653
-0.0591233
-0.0565852
-0.0541476
-0.0518071
-0.0495602
-0.0474036
-0.045334
-0.0433481
-0.0414427
-0.0396146
-0.0378606
-0.0361778
-0.034563
-0.0330133
-0.0315259
-0.030098
-0.0287267
-0.0274096
-0.026144
-0.0249275
-0.0237579
-0.0226328
-0.0215503
-0.0205082
-0.0195048
-0.0185382
-0.0176066
-0.0167085
-0.0158423
-0.0150064
-0.0141995
-0.0134201
-0.0126668
-0.0119383
-0.0112333
-0.0105506
-0.00988892
-0.00924702
-0.00862373
-0.00801787
-0.00742829
-0.00685386
-0.00629346
-0.005746
-0.0052104
-0.00468557
-0.0041705
-0.00366404
-0.00316539
-0.00267299
-0.0021871
-0.00170365
-0.00122879
-0.000743909
-0.00028489
0.265579
0.265446
0.265157
0.2647
0.264078
0.263293
0.262343
0.261228
0.259945
0.258492
0.256867
0.255068
0.253092
0.250936
0.248598
0.246075
0.243362
0.240458
0.237357
0.234057
0.230554
0.226843
0.222922
0.218787
0.214433
0.209857
0.205055
0.200024
0.19476
0.189261
0.183523
0.177543
0.171321
0.164853
0.158139
0.151177
0.143966
0.136509
0.128804
0.120853
0.112658
0.104223
0.0955505
0.0866447
0.0775108
0.0681544
0.0585822
0.0488014
0.0388199
0.0286464
0.0182904
0.00776181
-0.00292882
-0.0137704
-0.0247512
-0.0358595
-0.0470827
-0.0584084
-0.0698237
-0.0813157
-0.0928714
-0.104478
-0.116122
-0.127791
-0.139473
-0.151155
-0.162824
-0.17447
-0.186081
-0.197646
-0.209154
-0.220595
-0.231959
-0.243237
-0.254421
-0.265501
-0.276469
-0.287318
-0.29804
-0.308627
-0.319073
-0.329371
-0.339515
-0.349497
-0.359311
-0.36895
-0.378409
-0.387681
-0.396758
-0.405634
-0.414303
-0.422758
-0.43099
-0.438993
-0.446759
-0.454281
-0.46155
-0.468558
-0.475298
-0.481761
-0.487938
-0.493822
-0.499404
-0.504676
-0.509631
-0.514259
-0.518554
-0.522509
-0.526115
-0.529368
-0.532261
-0.534788
-0.536944
-0.538725
-0.540128
-0.541149
-0.541786
-0.542038
-0.541904
-0.541384
-0.540478
-0.539189
-0.537519
-0.535471
-0.533049
-0.530259
-0.527106
-0.523596
-0.519738
-0.515538
-0.511006
-0.506151
-0.500984
-0.495514
-0.489753
-0.483714
-0.477408
-0.470848
-0.464048
-0.457021
-0.449782
-0.442344
-0.434723
-0.426933
-0.418989
-0.410907
-0.402701
-0.394387
-0.38598
-0.377496
-0.368948
-0.360353
-0.351724
-0.343076
-0.334423
-0.325779
-0.317156
-0.308568
-0.300027
-0.291545
-0.283132
-0.274801
-0.26656
-0.258419
-0.250388
-0.242473
-0.234684
-0.227026
-0.219506
-0.21213
-0.204903
-0.197828
-0.19091
-0.184152
-0.177556
-0.171125
-0.16486
-0.158761
-0.15283
-0.147066
-0.14147
-0.136039
-0.130774
-0.125673
-0.120733
-0.115953
-0.111331
-0.106863
-0.102548
-0.0983826
-0.0943631
-0.0904867
-0.08675
-0.0831496
-0.0796822
-0.0763441
-0.0731318
-0.0700417
-0.0670702
-0.0642137
-0.0614686
-0.0588314
-0.0562984
-0.0538662
-0.0515314
-0.0492903
-0.0471398
-0.0450763
-0.0430967
-0.0411977
-0.039376
-0.0376286
-0.0359523
-0.0343441
-0.032801
-0.0313201
-0.0298987
-0.0285339
-0.0272232
-0.025964
-0.0247538
-0.0235904
-0.0224716
-0.0213951
-0.0203591
-0.0193615
-0.0184007
-0.0174749
-0.0165825
-0.0157218
-0.0148914
-0.0140898
-0.0133157
-0.0125676
-0.0118442
-0.0111442
-0.0104664
-0.00980958
-0.00917245
-0.00855384
-0.00795259
-0.00736756
-0.00679761
-0.00624163
-0.00569853
-0.00516724
-0.00464666
-0.0041358
-0.00363351
-0.00313899
-0.00265069
-0.00216888
-0.00168948
-0.00121867
-0.000737822
-0.000282798
0.266389
0.266256
0.265968
0.265514
0.264894
0.264112
0.263167
0.262056
0.260777
0.25933
0.257711
0.255918
0.253948
0.251799
0.249468
0.246951
0.244245
0.241347
0.238253
0.234958
0.23146
0.227755
0.223837
0.219704
0.215352
0.210776
0.205973
0.200939
0.195671
0.190165
0.184418
0.178428
0.172191
0.165707
0.158974
0.15199
0.144755
0.13727
0.129534
0.121549
0.113317
0.104842
0.0961257
0.0871735
0.0779903
0.0685819
0.0589551
0.0491173
0.0390767
0.0288423
0.0184238
0.00783136
-0.00292405
-0.013831
-0.0248776
-0.0360516
-0.0473402
-0.0587305
-0.0702095
-0.0817639
-0.0933804
-0.105046
-0.116747
-0.128471
-0.140204
-0.151936
-0.163652
-0.175342
-0.186995
-0.198598
-0.210142
-0.221616
-0.233011
-0.244318
-0.255527
-0.266631
-0.277621
-0.288489
-0.29923
-0.309834
-0.320297
-0.33061
-0.340768
-0.350764
-0.360592
-0.370246
-0.37972
-0.389006
-0.398099
-0.406992
-0.415678
-0.42415
-0.432401
-0.440424
-0.448211
-0.455754
-0.463046
-0.470078
-0.476842
-0.48333
-0.489533
-0.495443
-0.501051
-0.506349
-0.511329
-0.515983
-0.520303
-0.524282
-0.527912
-0.531187
-0.5341
-0.536647
-0.538821
-0.540618
-0.542035
-0.543068
-0.543715
-0.543975
-0.543846
-0.543329
-0.542424
-0.541133
-0.539458
-0.537403
-0.534973
-0.532171
-0.529003
-0.525477
-0.5216
-0.517379
-0.512823
-0.507942
-0.502746
-0.497246
-0.491453
-0.485378
-0.479036
-0.472437
-0.465597
-0.458528
-0.451244
-0.443761
-0.436092
-0.428254
-0.42026
-0.412126
-0.403868
-0.395501
-0.38704
-0.3785
-0.369898
-0.361246
-0.352561
-0.343857
-0.335148
-0.326448
-0.317769
-0.309126
-0.300531
-0.291995
-0.28353
-0.275146
-0.266855
-0.258665
-0.250586
-0.242626
-0.234792
-0.227092
-0.219531
-0.212116
-0.204851
-0.197742
-0.190791
-0.184002
-0.177377
-0.170919
-0.164628
-0.158507
-0.152554
-0.146771
-0.141157
-0.135711
-0.130432
-0.125319
-0.120369
-0.11558
-0.11095
-0.106476
-0.102157
-0.0979874
-0.0939656
-0.0900879
-0.0863511
-0.0827515
-0.0792857
-0.0759501
-0.072741
-0.0696549
-0.0666879
-0.0638365
-0.061097
-0.0584659
-0.0559394
-0.053514
-0.0511862
-0.0489525
-0.0468096
-0.0447539
-0.0427822
-0.0408912
-0.0390777
-0.0373384
-0.0356703
-0.0340703
-0.0325355
-0.0310628
-0.0296495
-0.0282929
-0.0269903
-0.025739
-0.0245368
-0.0233812
-0.0222701
-0.0212012
-0.0201727
-0.0191826
-0.0182291
-0.0173105
-0.0164251
-0.0155714
-0.0147478
-0.0139529
-0.0131853
-0.0124437
-0.0117267
-0.011033
-0.0103614
-0.00971056
-0.00907937
-0.00846662
-0.00787113
-0.00729177
-0.00672742
-0.00617695
-0.00563929
-0.00511337
-0.00459811
-0.0040925
-0.00359541
-0.00310606
-0.00262288
-0.00214615
-0.00167182
-0.00120603
-0.000730227
-0.000280183
0.267359
0.267228
0.266941
0.266489
0.265872
0.265094
0.264153
0.263048
0.261775
0.260334
0.258722
0.256937
0.254975
0.252834
0.250511
0.248003
0.245305
0.242415
0.239328
0.236041
0.23255
0.22885
0.224937
0.220808
0.216458
0.211882
0.207078
0.202041
0.196767
0.191254
0.185496
0.179493
0.173241
0.166738
0.159982
0.152972
0.145707
0.138188
0.130415
0.122389
0.114113
0.105588
0.0968199
0.0878117
0.0785688
0.0690974
0.0594045
0.0494977
0.0393855
0.0290773
0.0185829
0.00791306
-0.00292092
-0.0139072
-0.0250335
-0.0362871
-0.0476549
-0.0591236
-0.0706796
-0.0823094
-0.0939994
-0.105736
-0.117506
-0.129295
-0.141092
-0.152883
-0.164656
-0.176399
-0.188101
-0.19975
-0.211337
-0.222851
-0.234282
-0.245622
-0.256862
-0.267994
-0.27901
-0.289902
-0.300664
-0.311289
-0.32177
-0.332102
-0.342277
-0.35229
-0.362134
-0.371805
-0.381295
-0.390599
-0.39971
-0.408623
-0.417329
-0.425822
-0.434096
-0.442143
-0.449955
-0.457525
-0.464844
-0.471905
-0.478699
-0.485217
-0.491451
-0.497392
-0.503032
-0.508362
-0.513374
-0.518059
-0.52241
-0.526418
-0.530076
-0.533378
-0.536317
-0.538887
-0.541083
-0.5429
-0.544334
-0.545382
-0.546041
-0.54631
-0.546188
-0.545674
-0.54477
-0.543477
-0.541798
-0.539735
-0.537293
-0.534477
-0.531293
-0.527747
-0.523846
-0.5196
-0.515015
-0.510103
-0.504873
-0.499336
-0.493503
-0.487387
-0.481
-0.474355
-0.467466
-0.460346
-0.453009
-0.445471
-0.437745
-0.429848
-0.421794
-0.413598
-0.405277
-0.396846
-0.388319
-0.379713
-0.371044
-0.362325
-0.353572
-0.3448
-0.336023
-0.327255
-0.318509
-0.3098
-0.301138
-0.292538
-0.284009
-0.275563
-0.267211
-0.258962
-0.250825
-0.242809
-0.234922
-0.22717
-0.21956
-0.212098
-0.204789
-0.197637
-0.190646
-0.183819
-0.17716
-0.170669
-0.164348
-0.158199
-0.152221
-0.146415
-0.14078
-0.135316
-0.13002
-0.124892
-0.119929
-0.115129
-0.110491
-0.10601
-0.101684
-0.0975111
-0.0934865
-0.0896075
-0.0858705
-0.082272
-0.0788083
-0.0754758
-0.0722707
-0.0691893
-0.0662279
-0.0633828
-0.0606501
-0.0580263
-0.0555076
-0.0530905
-0.0507713
-0.0485466
-0.0464128
-0.0443665
-0.0424044
-0.0405231
-0.0387193
-0.0369899
-0.0353317
-0.0337417
-0.0322167
-0.030754
-0.0293506
-0.0280037
-0.0267108
-0.0254692
-0.0242765
-0.0231303
-0.0220285
-0.0209688
-0.0199493
-0.0189681
-0.0180234
-0.0171134
-0.0162364
-0.015391
-0.0145757
-0.0137888
-0.0130292
-0.0122953
-0.0115859
-0.0108998
-0.0102355
-0.00959194
-0.00896788
-0.00836214
-0.00777357
-0.00720101
-0.00664335
-0.0060995
-0.00556836
-0.00504888
-0.00453998
-0.00404066
-0.00354981
-0.00306663
-0.00258958
-0.00211894
-0.00165066
-0.00119089
-0.000721135
-0.00027705
0.268489
0.268358
0.268073
0.267624
0.267011
0.266238
0.265302
0.264203
0.262938
0.261505
0.259901
0.258125
0.256172
0.254041
0.251728
0.24923
0.246542
0.243662
0.240584
0.237306
0.233823
0.23013
0.226223
0.222099
0.217751
0.213177
0.208372
0.203332
0.198052
0.19253
0.186761
0.180743
0.174472
0.167946
0.161164
0.154124
0.146825
0.139267
0.13145
0.123376
0.115047
0.106466
0.0976356
0.0885613
0.0792481
0.0697025
0.0599316
0.0499433
0.0397466
0.0293511
0.0187671
0.00800589
-0.0029209
-0.0140009
-0.0252213
-0.0365689
-0.0480302
-0.0595912
-0.0712381
-0.0829567
-0.0947332
-0.106553
-0.118404
-0.130271
-0.142141
-0.154002
-0.165841
-0.177646
-0.189406
-0.201109
-0.212745
-0.224305
-0.235779
-0.247157
-0.258432
-0.269596
-0.280641
-0.29156
-0.302347
-0.312995
-0.323497
-0.333848
-0.344043
-0.354075
-0.363938
-0.373628
-0.383138
-0.392462
-0.401594
-0.410529
-0.419258
-0.427777
-0.436077
-0.444152
-0.451994
-0.459595
-0.466947
-0.474041
-0.48087
-0.487424
-0.493695
-0.499674
-0.505351
-0.510719
-0.515768
-0.52049
-0.524877
-0.52892
-0.532613
-0.535947
-0.538916
-0.541514
-0.543736
-0.545576
-0.547031
-0.548096
-0.54877
-0.549051
-0.548936
-0.548428
-0.547525
-0.54623
-0.544544
-0.542472
-0.540017
-0.537185
-0.533981
-0.530411
-0.526484
-0.522207
-0.517589
-0.51264
-0.50737
-0.50179
-0.495912
-0.489747
-0.483308
-0.476608
-0.469661
-0.462481
-0.455082
-0.447479
-0.439687
-0.431721
-0.423596
-0.415328
-0.406933
-0.398425
-0.389822
-0.381139
-0.37239
-0.363592
-0.35476
-0.345908
-0.337051
-0.328203
-0.319379
-0.310591
-0.301852
-0.293175
-0.284571
-0.276052
-0.267628
-0.25931
-0.251105
-0.243024
-0.235073
-0.227261
-0.219593
-0.212076
-0.204714
-0.197513
-0.190475
-0.183604
-0.176904
-0.170375
-0.164019
-0.157837
-0.151829
-0.145996
-0.140337
-0.13485
-0.129535
-0.12439
-0.119413
-0.114601
-0.109952
-0.105463
-0.101131
-0.0969525
-0.0929249
-0.0890444
-0.0853074
-0.0817102
-0.0782491
-0.0749203
-0.07172
-0.0686444
-0.0656896
-0.0628518
-0.0601272
-0.0575121
-0.0550027
-0.0525953
-0.0502863
-0.0480721
-0.0459491
-0.0439139
-0.041963
-0.0400931
-0.0383008
-0.036583
-0.0349365
-0.033358
-0.0318447
-0.0303936
-0.0290017
-0.0276663
-0.0263848
-0.0251545
-0.0239729
-0.0228377
-0.0217468
-0.0206978
-0.0196889
-0.0187181
-0.0177836
-0.0168837
-0.0160167
-0.015181
-0.0143752
-0.0135978
-0.0128473
-0.0121225
-0.011422
-0.0107446
-0.0100889
-0.00945384
-0.0088381
-0.00824054
-0.00766
-0.00709537
-0.00654552
-0.00600936
-0.00548581
-0.00497382
-0.00447233
-0.00398034
-0.00349674
-0.00302075
-0.00255083
-0.00208727
-0.00162606
-0.00117329
-0.000710558
-0.000273405
0.269778
0.269648
0.269365
0.268919
0.268311
0.267543
0.266614
0.265522
0.264265
0.262841
0.261247
0.259481
0.25754
0.25542
0.253119
0.250633
0.247957
0.245088
0.242022
0.238754
0.235281
0.231596
0.227697
0.223578
0.219235
0.214663
0.209857
0.204814
0.199528
0.193996
0.188215
0.18218
0.175888
0.169337
0.162525
0.155451
0.148112
0.140509
0.132643
0.124514
0.116124
0.107477
0.0985754
0.0894248
0.0800304
0.0703989
0.0605376
0.050455
0.0401604
0.0296637
0.0189759
0.00810864
-0.00292575
-0.0141144
-0.0254439
-0.0369004
-0.0484699
-0.0601378
-0.0718897
-0.0837111
-0.0955874
-0.107504
-0.119448
-0.131403
-0.143358
-0.155299
-0.167214
-0.17909
-0.190915
-0.20268
-0.214373
-0.225984
-0.237505
-0.248927
-0.260242
-0.271441
-0.282519
-0.293468
-0.304282
-0.314955
-0.32548
-0.335854
-0.34607
-0.356122
-0.366007
-0.375717
-0.385249
-0.394595
-0.403752
-0.412711
-0.421468
-0.430015
-0.438345
-0.446453
-0.454328
-0.461965
-0.469355
-0.476488
-0.483358
-0.489954
-0.496268
-0.50229
-0.508011
-0.513423
-0.518516
-0.523282
-0.527711
-0.531795
-0.535527
-0.538899
-0.541903
-0.544535
-0.546786
-0.548654
-0.550133
-0.551219
-0.55191
-0.552204
-0.552099
-0.551596
-0.550695
-0.549397
-0.547705
-0.545623
-0.543153
-0.540302
-0.537075
-0.533479
-0.529521
-0.525209
-0.520553
-0.515562
-0.510246
-0.504616
-0.498685
-0.492464
-0.485965
-0.479203
-0.47219
-0.464941
-0.457471
-0.449793
-0.441924
-0.433879
-0.425672
-0.417321
-0.40884
-0.400246
-0.391554
-0.382781
-0.373942
-0.365053
-0.356128
-0.347184
-0.338235
-0.329296
-0.32038
-0.311502
-0.302673
-0.293908
-0.285218
-0.276615
-0.268108
-0.259709
-0.251427
-0.24327
-0.235247
-0.227364
-0.21963
-0.212049
-0.204627
-0.197368
-0.190276
-0.183355
-0.176607
-0.170034
-0.163638
-0.157419
-0.151377
-0.145513
-0.139826
-0.134314
-0.128977
-0.123812
-0.118818
-0.113992
-0.109331
-0.104833
-0.100494
-0.0963103
-0.0922794
-0.0883974
-0.0846605
-0.081065
-0.0776071
-0.0742827
-0.071088
-0.0680191
-0.0650721
-0.0622429
-0.0595278
-0.0569228
-0.0544241
-0.052028
-0.0497307
-0.0475287
-0.0454182
-0.0433957
-0.0414578
-0.039601
-0.037822
-0.0361176
-0.0344844
-0.0329194
-0.0314195
-0.0299817
-0.028603
-0.0272808
-0.0260123
-0.0247949
-0.0236262
-0.0225036
-0.0214251
-0.0203885
-0.0193917
-0.0184328
-0.01751
-0.0166216
-0.0157659
-0.0149414
-0.0141465
-0.0133798
-0.0126399
-0.0119255
-0.0112352
-0.0105677
-0.00992186
-0.00929641
-0.00869015
-0.00810192
-0.00753057
-0.00697497
-0.00643403
-0.00590664
-0.00539175
-0.00488831
-0.00439525
-0.00391162
-0.00343628
-0.00296848
-0.00250669
-0.0020512
-0.00159802
-0.00115323
-0.000698508
-0.000269253
0.271224
0.271095
0.270815
0.270372
0.269769
0.269007
0.268086
0.267003
0.265755
0.264342
0.26276
0.261006
0.259078
0.256971
0.254684
0.252211
0.249549
0.246694
0.243641
0.240386
0.236924
0.23325
0.22936
0.225248
0.22091
0.216341
0.211536
0.206489
0.201198
0.195656
0.18986
0.183807
0.177493
0.170914
0.164069
0.156956
0.149573
0.14192
0.133997
0.125805
0.117347
0.108625
0.0996425
0.090405
0.0809181
0.0711886
0.0612243
0.0510339
0.0406272
0.0300149
0.0192084
0.00821989
-0.00293756
-0.0142504
-0.0257046
-0.0372856
-0.0489786
-0.0607685
-0.0726403
-0.0845787
-0.0965686
-0.108595
-0.120644
-0.132701
-0.144752
-0.156783
-0.168783
-0.180738
-0.192638
-0.204471
-0.216227
-0.227896
-0.23947
-0.250939
-0.262297
-0.273536
-0.284649
-0.29563
-0.306474
-0.317173
-0.327724
-0.338122
-0.34836
-0.358435
-0.368342
-0.378075
-0.38763
-0.397002
-0.406184
-0.415171
-0.423958
-0.432537
-0.440902
-0.449045
-0.45696
-0.464638
-0.47207
-0.479249
-0.486165
-0.492809
-0.499172
-0.505244
-0.511017
-0.516479
-0.521623
-0.526438
-0.530916
-0.535048
-0.538825
-0.54224
-0.545286
-0.547955
-0.550242
-0.552141
-0.553648
-0.554758
-0.555469
-0.555778
-0.555685
-0.555188
-0.554289
-0.552989
-0.55129
-0.549195
-0.546709
-0.543837
-0.540584
-0.536958
-0.532965
-0.528614
-0.523915
-0.518876
-0.513508
-0.507823
-0.501831
-0.495546
-0.488981
-0.482147
-0.47506
-0.467733
-0.460182
-0.45242
-0.444464
-0.436329
-0.42803
-0.419584
-0.411006
-0.402313
-0.393522
-0.384646
-0.375704
-0.366711
-0.357682
-0.348634
-0.33958
-0.330536
-0.321517
-0.312535
-0.303606
-0.29474
-0.285952
-0.277252
-0.268651
-0.260161
-0.25179
-0.243547
-0.235441
-0.22748
-0.21967
-0.212016
-0.204526
-0.197202
-0.190049
-0.183071
-0.176269
-0.169647
-0.163204
-0.156943
-0.150863
-0.144963
-0.139245
-0.133705
-0.128343
-0.123157
-0.118144
-0.113302
-0.108628
-0.104119
-0.099772
-0.095583
-0.0915486
-0.0876651
-0.0839286
-0.0803353
-0.076881
-0.0735619
-0.0703738
-0.0673127
-0.0643746
-0.0615553
-0.058851
-0.0562576
-0.0537712
-0.051388
-0.0491041
-0.0469159
-0.0448196
-0.0428116
-0.0408885
-0.0390466
-0.0372827
-0.0355934
-0.0339754
-0.0324256
-0.0309409
-0.0295181
-0.0281545
-0.0268472
-0.0255935
-0.0243907
-0.0232364
-0.0221281
-0.0210637
-0.0200409
-0.0190577
-0.0181123
-0.0172027
-0.0163272
-0.0154843
-0.0146723
-0.0138897
-0.0131351
-0.0124071
-0.0117043
-0.0110254
-0.0103692
-0.00973441
-0.0091198
-0.0085242
-0.00794645
-0.00738541
-0.00683996
-0.006309
-0.00579146
-0.00528628
-0.00479243
-0.00430885
-0.00383457
-0.00336851
-0.00290989
-0.00245722
-0.00201077
-0.0015666
-0.00113075
-0.000685002
-0.000264598
0.272826
0.272699
0.272421
0.271983
0.271386
0.270631
0.269718
0.268645
0.267408
0.266007
0.264438
0.262698
0.260785
0.258694
0.256422
0.253965
0.25132
0.24848
0.245443
0.242202
0.238754
0.235093
0.231214
0.227111
0.22278
0.218215
0.21341
0.208362
0.203064
0.197512
0.191702
0.185629
0.17929
0.172681
0.1658
0.158644
0.151211
0.143503
0.135517
0.127255
0.11872
0.109914
0.100841
0.0915055
0.0819142
0.072074
0.0619932
0.051681
0.0411477
0.0304045
0.0194636
0.00833794
-0.00295878
-0.0144122
-0.0260074
-0.0377292
-0.0495618
-0.0614895
-0.0734964
-0.0855667
-0.0976846
-0.109835
-0.122002
-0.134172
-0.14633
-0.158462
-0.170557
-0.182601
-0.194582
-0.206491
-0.218316
-0.230048
-0.24168
-0.253201
-0.264606
-0.275887
-0.287038
-0.298053
-0.308928
-0.319656
-0.330233
-0.340655
-0.350917
-0.361016
-0.370946
-0.380704
-0.390284
-0.399682
-0.408893
-0.417911
-0.42673
-0.435345
-0.443748
-0.451932
-0.45989
-0.467614
-0.475095
-0.482325
-0.489294
-0.495993
-0.502412
-0.508541
-0.514371
-0.519892
-0.525093
-0.529965
-0.534499
-0.538685
-0.542514
-0.545979
-0.549072
-0.551785
-0.554112
-0.556047
-0.557585
-0.558723
-0.559456
-0.559784
-0.559703
-0.559215
-0.558318
-0.557015
-0.555309
-0.553201
-0.550697
-0.547801
-0.544519
-0.540859
-0.536828
-0.532433
-0.527685
-0.522593
-0.517167
-0.511419
-0.505361
-0.499005
-0.492364
-0.485451
-0.47828
-0.470866
-0.463224
-0.455368
-0.447315
-0.439079
-0.430677
-0.422124
-0.413438
-0.404635
-0.39573
-0.386741
-0.377683
-0.368573
-0.359428
-0.350261
-0.34109
-0.331929
-0.322793
-0.313696
-0.304652
-0.295674
-0.286774
-0.277966
-0.26926
-0.260666
-0.252196
-0.243857
-0.235658
-0.227607
-0.219712
-0.211977
-0.20441
-0.197013
-0.189792
-0.182749
-0.175888
-0.16921
-0.162716
-0.156407
-0.150284
-0.144346
-0.138592
-0.133021
-0.127632
-0.122421
-0.117388
-0.112528
-0.10784
-0.10332
-0.0989639
-0.0947688
-0.0907308
-0.0868459
-0.0831101
-0.0795194
-0.0760697
-0.0727566
-0.0695761
-0.066524
-0.063596
-0.0607881
-0.058096
-0.0555158
-0.0530433
-0.0506747
-0.0484059
-0.0462333
-0.044153
-0.0421614
-0.0402548
-0.0384297
-0.0366827
-0.0350104
-0.0334094
-0.0318766
-0.0304088
-0.029003
-0.0276562
-0.0263655
-0.0251283
-0.0239418
-0.0228036
-0.0217113
-0.0206625
-0.0196552
-0.0186872
-0.0177567
-0.0168618
-0.0160009
-0.0151721
-0.014374
-0.0136051
-0.012864
-0.0121491
-0.0114593
-0.0107931
-0.0101493
-0.00952678
-0.0089242
-0.00834042
-0.00777429
-0.00722468
-0.00669047
-0.00617059
-0.00566396
-0.00516954
-0.0046863
-0.00421321
-0.0037493
-0.0032935
-0.00284506
-0.00240247
-0.00196604
-0.00153183
-0.00110587
-0.000670059
-0.000259447
0.274583
0.274457
0.274183
0.273749
0.273158
0.272412
0.271509
0.270446
0.269223
0.267835
0.266281
0.264557
0.262661
0.260588
0.258334
0.255896
0.253268
0.250447
0.247428
0.244204
0.240772
0.237126
0.23326
0.229168
0.224845
0.220286
0.215484
0.210434
0.205131
0.199569
0.193744
0.187651
0.181285
0.174643
0.167722
0.16052
0.153034
0.145263
0.137208
0.128869
0.120249
0.111349
0.102174
0.0927299
0.0830219
0.073058
0.0628467
0.0523979
0.0417225
0.0308324
0.0197406
0.00846086
-0.00299225
-0.0146035
-0.026357
-0.0382365
-0.0502257
-0.0623077
-0.0744658
-0.0866834
-0.0989441
-0.111232
-0.123531
-0.135826
-0.148103