/*--------------------------------*- C++ -*----------------------------------*\
| =========                 |                                                 |
| \\      /  F ield         | OpenFOAM: The Open Source CFD Toolbox           |
|  \\    /   O peration     | Version:  2306                                  |
|   \\  /    A nd           | Website:  www.openfoam.com                      |
|    \\/     M anipulation  |                                                 |
\*---------------------------------------------------------------------------*/
FoamFile
{
    version     2.0;
    format      ascii;
    arch        "LSB;label=32;scalar=64";
    class       surfaceScalarField;
    location    "6";
    object      phi;
}
// * * * * * * * * * * * * * * * * * * * * * * * * * * * * * * * * * * * * * //

dimensions      [0 3 -1 0 0 0 0];

oriented        oriented;

internalField   nonuniform List<scalar> 
65152
(
0.00625051
-5.0735e-07
0.00625203
-1.52394e-06
0.00625457
-2.54112e-06
0.00625813
-3.56003e-06
0.00626271
-4.58237e-06
0.00626832
-5.60922e-06
0.00627497
-6.6413e-06
0.00628264
-7.67934e-06
0.00629137
-8.72417e-06
0.00630115
-9.77658e-06
0.00631198
-1.08373e-05
0.00632389
-1.19069e-05
0.00633688
-1.29859e-05
0.00635095
-1.40748e-05
0.00636612
-1.51739e-05
0.00638241
-1.62836e-05
0.00639981
-1.74039e-05
0.00641835
-1.85348e-05
0.00643802
-1.96763e-05
0.00645885
-2.0828e-05
0.00648084
-2.19896e-05
0.006504
-2.31604e-05
0.00652834
-2.43398e-05
0.00655387
-2.55269e-05
0.00658059
-2.67205e-05
0.00660851
-2.79195e-05
0.00663763
-2.91224e-05
0.00666796
-3.03275e-05
0.00669949
-3.15331e-05
0.00673223
-3.27371e-05
0.00676617
-3.39375e-05
0.0068013
-3.51319e-05
0.00683761
-3.63177e-05
0.00687511
-3.74924e-05
0.00691376
-3.86531e-05
0.00695356
-3.97969e-05
0.00699448
-4.09208e-05
0.0070365
-4.20217e-05
0.0070796
-4.30963e-05
0.00712374
-4.41416e-05
0.00716889
-4.51542e-05
0.00721502
-4.6131e-05
0.00726209
-4.70689e-05
0.00731006
-4.79647e-05
0.00735887
-4.88154e-05
0.00740849
-4.96183e-05
0.00745886
-5.03707e-05
0.00750993
-5.10701e-05
0.00756165
-5.17143e-05
0.00761395
-5.23013e-05
0.00766678
-5.28293e-05
0.00772007
-5.3297e-05
0.00777378
-5.37031e-05
0.00782782
-5.40469e-05
0.00788215
-5.43278e-05
0.0079367
-5.45456e-05
0.0079914
-5.47004e-05
0.00804619
-5.47925e-05
0.00810101
-5.48228e-05
0.0081558
-5.47922e-05
0.00821051
-5.47018e-05
0.00826506
-5.45531e-05
0.00831941
-5.43479e-05
0.00837349
-5.4088e-05
0.00842727
-5.37753e-05
0.00848068
-5.3412e-05
0.00853368
-5.30003e-05
0.00858622
-5.25426e-05
0.00863827
-5.20411e-05
0.00868976
-5.14981e-05
0.00874068
-5.0916e-05
0.00879098
-5.0297e-05
0.00884062
-4.96433e-05
0.00888958
-4.8957e-05
0.00893782
-4.82399e-05
0.00898531
-4.74939e-05
0.00903203
-4.67206e-05
0.00907795
-4.59215e-05
0.00912305
-4.50978e-05
0.0091673
-4.42508e-05
0.00921068
-4.33812e-05
0.00925317
-4.24897e-05
0.00929475
-4.1577e-05
0.00933539
-4.06432e-05
0.00937508
-3.96886e-05
0.00941379
-3.87132e-05
0.00945151
-3.77166e-05
0.00948821
-3.66987e-05
0.00952387
-3.5659e-05
0.00955847
-3.45969e-05
0.00959198
-3.35117e-05
0.00962438
-3.24029e-05
0.00965565
-3.12695e-05
0.00968576
-3.01109e-05
0.00971469
-2.89263e-05
0.0097424
-2.7715e-05
0.00976888
-2.64762e-05
0.00979409
-2.52093e-05
0.009818
-2.39139e-05
0.00984059
-2.25894e-05
0.00986183
-2.12355e-05
0.00988168
-1.98522e-05
0.00990012
-1.84392e-05
0.00991711
-1.69969e-05
0.00993264
-1.55255e-05
0.00994667
-1.40254e-05
0.00995916
-1.24973e-05
0.00997011
-1.0942e-05
0.00997947
-9.36053e-06
0.00998722
-7.75406e-06
0.00999334
-6.12392e-06
0.00999782
-4.47162e-06
0.0100006
-2.79881e-06
0.0100017
-1.10733e-06
0.0100011
6.00924e-07
0.0099988
2.32385e-06
0.00999474
4.05926e-06
0.00998893
5.80488e-06
0.00998137
7.55832e-06
0.00997206
9.31712e-06
0.00996098
1.10788e-05
0.00994814
1.28406e-05
0.00993354
1.46001e-05
0.00991718
1.63545e-05
0.00989908
1.81012e-05
0.00987924
1.98374e-05
0.00985768
2.15604e-05
0.00983442
2.32674e-05
0.00980946
2.49558e-05
0.00978284
2.66228e-05
0.00975457
2.82658e-05
0.00972469
2.98821e-05
0.00969322
3.1469e-05
0.0096602
3.30239e-05
0.00962565
3.45442e-05
0.00958963
3.60276e-05
0.00955215
3.74713e-05
0.00951328
3.88731e-05
0.00947305
4.02306e-05
0.00943151
4.15415e-05
0.00938871
4.28035e-05
0.00934469
4.40146e-05
0.00929952
4.51728e-05
0.00925324
4.62759e-05
0.00920592
4.73223e-05
0.00915761
4.83101e-05
0.00910837
4.92379e-05
0.00905827
5.0104e-05
0.00900736
5.09072e-05
0.00895571
5.16463e-05
0.00890339
5.23202e-05
0.00885047
5.29282e-05
0.008797
5.34694e-05
0.00874305
5.39435e-05
0.0086887
5.435e-05
0.00863401
5.46889e-05
0.00857905
5.49601e-05
0.00852389
5.5164e-05
0.00846859
5.5301e-05
0.00841322
5.53717e-05
0.00835784
5.5377e-05
0.00830252
5.53179e-05
0.00824733
5.51956e-05
0.00819232
5.50115e-05
0.00813755
5.47671e-05
0.00808308
5.44642e-05
0.00802898
5.41047e-05
0.00797529
5.36906e-05
0.00792206
5.32241e-05
0.00786936
5.27073e-05
0.00781721
5.21428e-05
0.00776568
5.15329e-05
0.0077148
5.08803e-05
0.00766461
5.01874e-05
0.00761516
4.94571e-05
0.00756646
4.8692e-05
0.00751857
4.78948e-05
0.0074715
4.70682e-05
0.00742529
4.6215e-05
0.00737995
4.53377e-05
0.00733551
4.44392e-05
0.00729199
4.3522e-05
0.0072494
4.25887e-05
0.00720776
4.16417e-05
0.00716707
4.06835e-05
0.00712736
3.97164e-05
0.00708861
3.87427e-05
0.00705085
3.77644e-05
0.00701407
3.67837e-05
0.00697826
3.58025e-05
0.00694344
3.48226e-05
0.0069096
3.38456e-05
0.00687672
3.28733e-05
0.00684482
3.1907e-05
0.00681387
3.0948e-05
0.00678387
2.99976e-05
0.00675481
2.90567e-05
0.00672669
2.81263e-05
0.00669948
2.7207e-05
0.00667318
2.62991e-05
0.00664778
2.54029e-05
0.00662326
2.45183e-05
0.00659961
2.36446e-05
0.00657683
2.27812e-05
0.00655491
2.19267e-05
0.00653383
2.10795e-05
0.00651359
2.02377e-05
0.00649419
1.93991e-05
0.00647563
1.85612e-05
0.00645791
1.77219e-05
0.00644103
1.68789e-05
0.006425
1.60306e-05
0.00640982
1.5176e-05
0.00639551
1.43149e-05
0.00638206
1.34479e-05
0.00636948
1.2577e-05
0.00635778
1.17051e-05
0.00634694
1.08362e-05
0.00633697
9.97517e-06
0.00632784
9.12773e-06
0.00631954
8.29999e-06
0.00631204
7.4983e-06
0.00630531
6.72893e-06
0.00629931
5.99775e-06
0.006294
5.30999e-06
0.00628933
4.67004e-06
0.00628525
4.08128e-06
0.00628171
3.54597e-06
0.00627864
3.06522e-06
0.006276
2.63906e-06
0.00627373
2.26645e-06
0.00627179
1.94544e-06
0.00627012
1.67331e-06
0.00626867
1.44676e-06
0.00626741
1.26203e-06
0.00626629
1.11511e-06
0.00626529
1.00187e-06
0.00626437
9.182e-07
0.00626351
8.60143e-07
0.00626269
8.23956e-07
0.00626188
8.06186e-07
0.00626108
8.03712e-07
0.00626026
8.13765e-07
0.00625943
8.33935e-07
0.00625857
8.62158e-07
0.00625767
8.96708e-07
0.00625674
9.36145e-07
0.00625576
9.79343e-07
0.00625473
1.02532e-06
0.00625366
1.07354e-06
0.00625253
1.12306e-06
0.00625136
1.17453e-06
0.00625013
1.22497e-06
0.00624885
1.2812e-06
0.00624753
1.32405e-06
1.40674e-06
0.00625051
-1.0152e-06
0.00625203
-3.04602e-06
0.00625457
-5.07932e-06
0.00625813
-7.11708e-06
0.0062627
-9.16139e-06
0.00626831
-1.12143e-05
0.00627495
-1.32777e-05
0.00628262
-1.53531e-05
0.00629134
-1.74421e-05
0.00630111
-1.95464e-05
0.00631194
-2.16674e-05
0.00632384
-2.38061e-05
0.00633681
-2.59639e-05
0.00635088
-2.81415e-05
0.00636605
-3.03398e-05
0.00638232
-3.25591e-05
0.00639972
-3.47999e-05
0.00641825
-3.70621e-05
0.00643792
-3.93454e-05
0.00645874
-4.16495e-05
0.00648072
-4.39733e-05
0.00650388
-4.6316e-05
0.00652821
-4.86759e-05
0.00655374
-5.10512e-05
0.00658046
-5.344e-05
0.00660838
-5.58395e-05
0.0066375
-5.8247e-05
0.00666783
-6.06593e-05
0.00669937
-6.30726e-05
0.00673212
-6.54831e-05
0.00676607
-6.78864e-05
0.00680121
-7.02778e-05
0.00683755
-7.26523e-05
0.00687506
-7.50046e-05
0.00691374
-7.73291e-05
0.00695356
-7.96199e-05
0.00699451
-8.18709e-05
0.00703656
-8.4076e-05
0.0070797
-8.62287e-05
0.00712388
-8.83226e-05
0.00716907
-9.03512e-05
0.00721525
-9.23081e-05
0.00726237
-9.4187e-05
0.00731039
-9.59816e-05
0.00735926
-9.76861e-05
0.00740893
-9.92946e-05
0.00745936
-0.000100802
0.0075105
-0.000102203
0.00756228
-0.000103494
0.00761464
-0.000104669
0.00766754
-0.000105727
0.00772091
-0.000106663
0.00777468
-0.000107477
0.0078288
-0.000108165
0.0078832
-0.000108727
0.00793782
-0.000109162
0.00799259
-0.000109472
0.00804745
-0.000109655
0.00810234
-0.000109715
0.0081572
-0.000109652
0.00821197
-0.00010947
0.00826659
-0.000109171
0.008321
-0.000108759
0.00837515
-0.000108237
0.00842898
-0.000107609
0.00848245
-0.00010688
0.0085355
-0.000106055
0.0085881
-0.000105137
0.00864019
-0.000104131
0.00869173
-0.000103043
0.00874269
-0.000101877
0.00879303
-0.000100636
0.00884272
-9.93267e-05
0.00889171
-9.79519e-05
0.00893999
-9.65158e-05
0.00898752
-9.50221e-05
0.00903427
-9.34739e-05
0.00908022
-9.18742e-05
0.00912535
-9.02257e-05
0.00916963
-8.85305e-05
0.00921304
-8.67904e-05
0.00925556
-8.50069e-05
0.00929716
-8.31809e-05
0.00933783
-8.1313e-05
0.00937754
-7.94037e-05
0.00941628
-7.74527e-05
0.00945403
-7.54598e-05
0.00949075
-7.34243e-05
0.00952644
-7.13452e-05
0.00956106
-6.92214e-05
0.0095946
-6.70516e-05
0.00962703
-6.48344e-05
0.00965833
-6.25682e-05
0.00968847
-6.02515e-05
0.00971743
-5.78828e-05
0.00974518
-5.54606e-05
0.00977168
-5.29834e-05
0.00979692
-5.045e-05
0.00982087
-4.78592e-05
0.00984349
-4.52103e-05
0.00986476
-4.25025e-05
0.00988464
-3.97356e-05
0.00990311
-3.69093e-05
0.00992014
-3.40241e-05
0.00993569
-3.10805e-05
0.00994975
-2.80793e-05
0.00996227
-2.5022e-05
0.00997324
-2.19102e-05
0.00998262
-1.87458e-05
0.0099904
-1.55312e-05
0.00999655
-1.22691e-05
0.010001
-8.96258e-06
0.0100039
-5.61486e-06
0.010005
-2.22961e-06
0.0100044
1.18925e-06
0.0100021
4.63759e-06
0.00999802
8.11102e-06
0.00999222
1.1605e-05
0.00998467
1.51146e-05
0.00997535
1.86351e-05
0.00996427
2.21612e-05
0.00995142
2.56879e-05
0.00993681
2.92099e-05
0.00992044
3.27218e-05
0.00990232
3.62181e-05
0.00988247
3.96935e-05
0.00986089
4.31425e-05
0.00983759
4.65596e-05
0.00981261
4.99395e-05
0.00978596
5.32765e-05
0.00975766
5.65655e-05
0.00972774
5.98009e-05
0.00969623
6.29776e-05
0.00966316
6.60903e-05
0.00962857
6.91338e-05
0.0095925
7.21031e-05
0.00955498
7.49933e-05
0.00951605
7.77996e-05
0.00947576
8.05171e-05
0.00943416
8.31413e-05
0.0093913
8.56678e-05
0.00934722
8.80922e-05
0.00930198
9.04106e-05
0.00925564
9.26189e-05
0.00920825
9.47136e-05
0.00915987
9.66911e-05
0.00911056
9.85482e-05
0.00906038
0.000100282
0.0090094
0.00010189
0.00895767
0.000103369
0.00890528
0.000104718
0.00885227
0.000105935
0.00879872
0.000107018
0.0087447
0.000107966
0.00869027
0.000108779
0.0086355
0.000109457
0.00858046
0.000109999
0.00852522
0.000110407
0.00846984
0.00011068
0.00841439
0.000110821
0.00835894
0.00011083
0.00830355
0.000110711
0.00824828
0.000110465
0.00819319
0.000110095
0.00813835
0.000109605
0.00808382
0.000108997
0.00802965
0.000108276
0.0079759
0.000107446
0.00792261
0.00010651
0.00786984
0.000105474
0.00781764
0.000104343
0.00776606
0.00010312
0.00771512
0.000101812
0.00766489
0.000100424
0.00761538
9.89606e-05
0.00756665
9.74276e-05
0.00751871
9.58304e-05
0.00747161
9.41744e-05
0.00742536
9.24652e-05
0.00737999
9.0708e-05
0.00733552
8.89083e-05
0.00729197
8.70712e-05
0.00724935
8.5202e-05
0.00720769
8.33055e-05
0.00716699
8.13866e-05
0.00712725
7.94501e-05
0.0070885
7.75003e-05
0.00705072
7.55416e-05
0.00701392
7.35781e-05
0.00697811
7.16136e-05
0.00694328
6.96518e-05
0.00690943
6.76961e-05
0.00687656
6.57497e-05
0.00684465
6.38154e-05
0.0068137
6.1896e-05
0.0067837
5.99938e-05
0.00675465
5.81108e-05
0.00672653
5.62487e-05
0.00669933
5.44089e-05
0.00667303
5.25922e-05
0.00664764
5.07989e-05
0.00662313
4.90287e-05
0.00659949
4.72807e-05
0.00657672
4.55532e-05
0.0065548
4.38437e-05
0.00653373
4.21489e-05
0.0065135
4.0465e-05
0.00649412
3.87875e-05
0.00647557
3.71117e-05
0.00645786
3.5433e-05
0.00644099
3.37471e-05
0.00642497
3.20508e-05
0.0064098
3.03419e-05
0.0063955
2.862e-05
0.00638206
2.68866e-05
0.00636949
2.51453e-05
0.00635779
2.34021e-05
0.00634696
2.16649e-05
0.00633699
1.99435e-05
0.00632787
1.82493e-05
0.00631958
1.65945e-05
0.00631209
1.49918e-05
0.00630536
1.34536e-05
0.00629937
1.19919e-05
0.00629406
1.06169e-05
0.00628939
9.33757e-06
0.00628531
8.16053e-06
0.00628177
7.09035e-06
0.0062787
6.12927e-06
0.00627607
5.27731e-06
0.0062738
4.53242e-06
0.00627185
3.89069e-06
0.00627018
3.34671e-06
0.00626873
2.89384e-06
0.00626747
2.52458e-06
0.00626636
2.2309e-06
0.00626535
2.00455e-06
0.00626443
1.83732e-06
0.00626357
1.72129e-06
0.00626275
1.64896e-06
0.00626194
1.61345e-06
0.00626114
1.6085e-06
0.00626032
1.62859e-06
0.00625949
1.66888e-06
0.00625862
1.72526e-06
0.00625773
1.79428e-06
0.00625679
1.87306e-06
0.00625581
1.95932e-06
0.00625478
2.0512e-06
0.00625371
2.1474e-06
0.00625259
2.24654e-06
0.00625141
2.34882e-06
0.00625019
2.45094e-06
0.00624891
2.56103e-06
0.00624758
2.65334e-06
2.80782e-06
0.00625051
-1.5217e-06
0.00625203
-4.56575e-06
0.00625456
-7.61359e-06
0.00625811
-1.06684e-05
0.00626268
-1.37331e-05
0.00626828
-1.68107e-05
0.00627491
-1.9904e-05
0.00628257
-2.30154e-05
0.00629127
-2.61476e-05
0.00630103
-2.93027e-05
0.00631185
-3.24829e-05
0.00632373
-3.56902e-05
0.00633669
-3.89261e-05
0.00635074
-4.21921e-05
0.00636589
-4.54893e-05
0.00638215
-4.88184e-05
0.00639953
-5.21799e-05
0.00641804
-5.55739e-05
0.0064377
-5.90001e-05
0.00645851
-6.24576e-05
0.00648048
-6.59453e-05
0.00650362
-6.94615e-05
0.00652795
-7.30041e-05
0.00655347
-7.65703e-05
0.00658019
-8.0157e-05
0.00660811
-8.37604e-05
0.00663724
-8.73762e-05
0.00666758
-9.09995e-05
0.00669913
-9.4625e-05
0.00673189
-9.82466e-05
0.00676587
-0.000101858
0.00680104
-0.000105452
0.00683741
-0.000109021
0.00687496
-0.000112556
0.00691368
-0.000116051
0.00695356
-0.000119495
0.00699457
-0.00012288
0.00703669
-0.000126196
0.00707989
-0.000129433
0.00712415
-0.000132583
0.00716943
-0.000135634
0.0072157
-0.000138577
0.00726292
-0.000141404
0.00731104
-0.000144104
0.00736002
-0.000146668
0.00740981
-0.000149087
0.00746037
-0.000151355
0.00751163
-0.000153462
0.00756354
-0.000155403
0.00761604
-0.000157171
0.00766907
-0.000158762
0.00772258
-0.000160169
0.00777649
-0.000161391
0.00783075
-0.000162425
0.0078853
-0.000163269
0.00794006
-0.000163922
0.00799497
-0.000164385
0.00804997
-0.000164658
0.008105
-0.000164745
0.00816
-0.000164648
0.0082149
-0.000164371
0.00826965
-0.000163919
0.00832418
-0.000163295
0.00837845
-0.000162507
0.00843241
-0.00016156
0.00848599
-0.000160461
0.00853915
-0.000159217
0.00859185
-0.000157834
0.00864403
-0.00015632
0.00869567
-0.000154682
0.00874672
-0.000152926
0.00879715
-0.00015106
0.00884691
-0.00014909
0.00889598
-0.000147023
0.00894433
-0.000144864
0.00899192
-0.000142619
0.00903874
-0.000140292
0.00908476
-0.000137889
0.00912995
-0.000135413
0.00917428
-0.000132868
0.00921775
-0.000130256
0.00926032
-0.000127579
0.00930198
-0.000124838
0.0093427
-0.000122036
0.00938247
-0.000119171
0.00942126
-0.000116245
0.00945906
-0.000113256
0.00949584
-0.000110203
0.00953158
-0.000107086
0.00956625
-0.000103901
0.00959985
-0.000100647
0.00963234
-9.7323e-05
0.0096637
-9.39251e-05
0.0096939
-9.04515e-05
0.00972291
-8.68998e-05
0.00975072
-8.32675e-05
0.00977729
-7.95527e-05
0.00980259
-7.57533e-05
0.0098266
-7.18677e-05
0.00984929
-6.78944e-05
0.00987062
-6.38326e-05
0.00989056
-5.96815e-05
0.00990909
-5.54412e-05
0.00992618
-5.1112e-05
0.0099418
-4.66946e-05
0.00995591
-4.21906e-05
0.00996849
-3.76019e-05
0.00997951
-3.29309e-05
0.00998894
-2.81806e-05
0.00999677
-2.33547e-05
0.010003
-1.8457e-05
0.0100075
-1.34923e-05
0.0100103
-8.46541e-06
0.0100115
-3.38185e-06
0.0100109
1.75238e-06
0.0100086
6.93114e-06
0.0100046
1.21478e-05
0.0099988
1.73955e-05
0.00999125
2.26669e-05
0.00998193
2.79547e-05
0.00997084
3.32513e-05
0.00995798
3.85487e-05
0.00994335
4.38391e-05
0.00992696
4.91145e-05
0.00990881
5.43666e-05
0.00988892
5.95873e-05
0.00986729
6.47684e-05
0.00984395
6.99017e-05
0.00981891
7.4979e-05
0.00979219
7.99921e-05
0.00976382
8.49329e-05
0.00973383
8.97934e-05
0.00970224
9.45656e-05
0.00966909
9.92418e-05
0.00963441
0.000103814
0.00959824
0.000108275
0.00956062
0.000112617
0.00952158
0.000116833
0.00948119
0.000120915
0.00943947
0.000124858
0.00939648
0.000128653
0.00935228
0.000132296
0.00930691
0.000135779
0.00926043
0.000139096
0.0092129
0.000142243
0.00916438
0.000145214
0.00911493
0.000148003
0.0090646
0.000150608
0.00901347
0.000153023
0.00896159
0.000155245
0.00890904
0.00015727
0.00885588
0.000159097
0.00880217
0.000160724
0.00874799
0.000162147
0.0086934
0.000163368
0.00863847
0.000164384
0.00858328
0.000165197
0.00852788
0.000165807
0.00847234
0.000166216
0.00841674
0.000166425
0.00836113
0.000166437
0.00830559
0.000166254
0.00825017
0.000165882
0.00819494
0.000165323
0.00813996
0.000164583
0.00808529
0.000163667
0.00803099
0.00016258
0.00797711
0.000161329
0.0079237
0.00015992
0.00787081
0.00015836
0.0078185
0.000156657
0.0077668
0.000154817
0.00771576
0.000152848
0.00766543
0.000150759
0.00761583
0.000148557
0.00756701
0.00014625
0.00751899
0.000143848
0.00747181
0.000141357
0.00742549
0.000138786
0.00738005
0.000136143
0.00733553
0.000133437
0.00729192
0.000130675
0.00724926
0.000127864
0.00720755
0.000125013
0.00716681
0.000122129
0.00712704
0.000119218
0.00708826
0.000116288
0.00705045
0.000113344
0.00701364
0.000110393
0.00697781
0.000107442
0.00694297
0.000104494
0.00690911
0.000101556
0.00687622
9.86322e-05
0.00684431
9.57268e-05
0.00681337
9.28439e-05
0.00678337
8.9987e-05
0.00675432
8.71592e-05
0.00672621
8.43631e-05
0.00669902
8.16006e-05
0.00667274
7.8873e-05
0.00664735
7.61807e-05
0.00662286
7.35234e-05
0.00659924
7.08996e-05
0.00657649
6.83068e-05
0.00655459
6.57412e-05
0.00653354
6.31979e-05
0.00651333
6.06712e-05
0.00649397
5.81544e-05
0.00647544
5.56404e-05
0.00645775
5.31224e-05
0.0064409
5.05939e-05
0.0064249
4.80499e-05
0.00640976
4.54874e-05
0.00639547
4.29055e-05
0.00638205
4.03066e-05
0.0063695
3.7696e-05
0.00635782
3.50827e-05
0.00634701
3.24785e-05
0.00633705
2.98981e-05
0.00632794
2.73585e-05
0.00631966
2.48779e-05
0.00631218
2.24755e-05
0.00630546
2.01699e-05
0.00629947
1.79788e-05
0.00629417
1.59178e-05
0.00628951
1.40001e-05
0.00628543
1.22357e-05
0.00628189
1.06316e-05
0.00627883
9.19099e-06
0.0062762
7.91397e-06
0.00627393
6.79746e-06
0.00627199
5.83562e-06
0.00627031
5.0203e-06
0.00626886
4.34157e-06
0.0062676
3.78817e-06
0.00626648
3.34807e-06
0.00626548
3.00888e-06
0.00626456
2.75831e-06
0.00626369
2.58446e-06
0.00626287
2.47611e-06
0.00626206
2.4229e-06
0.00626125
2.41548e-06
0.00626043
2.44554e-06
0.0062596
2.50587e-06
0.00625873
2.59028e-06
0.00625783
2.69359e-06
0.00625689
2.81151e-06
0.00625591
2.94061e-06
0.00625489
3.07812e-06
0.00625381
3.22204e-06
0.00625269
3.37047e-06
0.00625151
3.52338e-06
0.00625029
3.67654e-06
0.00624901
3.84076e-06
0.00624768
3.97967e-06
4.20947e-06
0.00625051
-2.02695e-06
0.00625202
-6.08179e-06
0.00625455
-1.01417e-05
0.00625809
-1.4211e-05
0.00626265
-1.82938e-05
0.00626824
-2.23939e-05
0.00627485
-2.65149e-05
0.00628249
-3.06605e-05
0.00629118
-3.48339e-05
0.00630091
-3.90382e-05
0.00631171
-4.32764e-05
0.00632357
-4.7551e-05
0.00633651
-5.18642e-05
0.00635053
-5.6218e-05
0.00636566
-6.06139e-05
0.00638189
-6.50529e-05
0.00639925
-6.95357e-05
0.00641774
-7.40624e-05
0.00643737
-7.86326e-05
0.00645816
-8.32454e-05
0.00648011
-8.78992e-05
0.00650324
-9.25917e-05
0.00652756
-9.73202e-05
0.00655307
-0.000102081
0.00657978
-0.00010687
0.0066077
-0.000111682
0.00663684
-0.000116512
0.00666719
-0.000121352
0.00669876
-0.000126196
0.00673155
-0.000131036
0.00676555
-0.000135863
0.00680077
-0.000140667
0.00683719
-0.000145439
0.0068748
-0.000150167
0.00691359
-0.000154841
0.00695354
-0.000159448
0.00699464
-0.000163977
0.00703686
-0.000168414
0.00708017
-0.000172746
0.00712455
-0.000176961
0.00716996
-0.000181045
0.00721637
-0.000184985
0.00726373
-0.000188769
0.00731201
-0.000192383
0.00736116
-0.000195816
0.00741113
-0.000199055
0.00746186
-0.00020209
0.00751331
-0.000204911
0.00756542
-0.000207509
0.00761812
-0.000209875
0.00767136
-0.000212002
0.00772508
-0.000213885
0.00777921
-0.000215519
0.00783368
-0.000216899
0.00788844
-0.000218025
0.00794341
-0.000218896
0.00799854
-0.000219511
0.00805375
-0.000219873
0.00810899
-0.000219984
0.00816419
-0.000219849
0.00821929
-0.000219473
0.00827424
-0.000218861
0.00832896
-0.000218021
0.00838342
-0.000216961
0.00843754
-0.000215688
0.00849129
-0.000214212
0.00854462
-0.000212541
0.00859747
-0.000210686
0.00864981
-0.000208656
0.00870158
-0.00020646
0.00875277
-0.000204108
0.00880332
-0.000201609
0.0088532
-0.000198973
0.00890238
-0.000196207
0.00895084
-0.000193319
0.00899854
-0.000190317
0.00904545
-0.000187208
0.00909156
-0.000183997
0.00913684
-0.00018069
0.00918126
-0.000177291
0.00922481
-0.000173804
0.00926746
-0.000170232
0.0093092
-0.000166576
0.00935
-0.000162838
0.00938985
-0.000159018
0.00942872
-0.000155116
0.00946659
-0.000151131
0.00950345
-0.000147062
0.00953927
-0.000142907
0.00957403
-0.000138663
0.00960771
-0.000134327
0.00964029
-0.000129897
0.00967173
-0.000125369
0.00970202
-0.000120741
0.00973113
-0.000116007
0.00975903
-0.000111167
0.00978569
-0.000106215
0.00981109
-0.000101151
0.00983519
-9.59711e-05
0.00985797
-9.06737e-05
0.0098794
-8.52576e-05
0.00989944
-7.97218e-05
0.00991806
-7.40662e-05
0.00993524
-6.82912e-05
0.00995095
-6.2398e-05
0.00996514
-5.63883e-05
0.00997781
-5.02649e-05
0.00998891
-4.40308e-05
0.00999842
-3.76903e-05
0.0100063
-3.1248e-05
0.0100126
-2.47094e-05
0.0100171
-1.80805e-05
0.0100201
-1.13681e-05
0.0100212
-4.57941e-06
0.0100207
2.27737e-06
0.0100185
9.19409e-06
0.0100144
1.61619e-05
0.0100087
2.31714e-05
0.0100011
3.0213e-05
0.0099918
3.72768e-05
0.0099807
4.43524e-05
0.00996782
5.14295e-05
0.00995316
5.84974e-05
0.00993673
6.55453e-05
0.00991854
7.25623e-05
0.00989859
7.95375e-05
0.00987689
8.64598e-05
0.00985348
9.33184e-05
0.00982836
0.000100102
0.00980155
0.0001068
0.00977308
0.000113402
0.00974297
0.000119896
0.00971127
0.000126273
0.00967799
0.000132521
0.00964317
0.00013863
0.00960686
0.000144591
0.00956908
0.000150393
0.00952989
0.000156026
0.00948932
0.000161482
0.00944743
0.00016675
0.00940426
0.000171821
0.00935987
0.000176689
0.0093143
0.000181342
0.00926762
0.000185776
0.00921989
0.00018998
0.00917115
0.000193949
0.00912148
0.000197677
0.00907093
0.000201156
0.00901957
0.000204382
0.00896747
0.00020735
0.00891468
0.000210056
0.00886128
0.000212495
0.00880734
0.000214666
0.00875292
0.000216567
0.00869809
0.000218195
0.00864293
0.00021955
0.00858749
0.000220633
0.00853185
0.000221445
0.00847608
0.000221987
0.00842025
0.000222261
0.00836441
0.000222272
0.00830864
0.000222024
0.008253
0.000221521
0.00819756
0.000220768
0.00814237
0.000219773
0.00808749
0.000218543
0.00803299
0.000217084
0.00797891
0.000215406
0.00792531
0.000213517
0.00787225
0.000211425
0.00781976
0.000209142
0.0077679
0.000206677
0.00771671
0.000204039
0.00766623
0.000201241
0.0076165
0.000198292
0.00756754
0.000195204
0.0075194
0.000191987
0.00747211
0.000188653
0.00742568
0.000185212
0.00738015
0.000181676
0.00733553
0.000178055
0.00729185
0.000174359
0.00724911
0.0001706
0.00720734
0.000166786
0.00716654
0.000162929
0.00712672
0.000159037
0.00708789
0.000155119
0.00705005
0.000151184
0.0070132
0.00014724
0.00697735
0.000143295
0.00694248
0.000139356
0.00690861
0.00013543
0.00687572
0.000131524
0.0068438
0.000127642
0.00681286
0.000123791
0.00678287
0.000119976
0.00675383
0.000116199
0.00672573
0.000112465
0.00669855
0.000108777
0.00667229
0.000105135
0.00664693
0.000101541
0.00662246
9.79943e-05
0.00659886
9.44925e-05
0.00657614
9.10325e-05
0.00655427
8.76092e-05
0.00653325
8.42162e-05
0.00651308
8.08457e-05
0.00649374
7.7489e-05
0.00647525
7.41365e-05
0.00645759
7.07791e-05
0.00644077
6.74083e-05
0.00642481
6.40174e-05
0.00640969
6.06021e-05
0.00639544
5.71615e-05
0.00638204
5.36985e-05
0.00636952
5.02203e-05
0.00635786
4.67387e-05
0.00634707
4.32694e-05
0.00633714
3.9832e-05
0.00632805
3.6449e-05
0.00631978
3.31447e-05
0.00631231
2.99446e-05
0.00630561
2.68734e-05
0.00629963
2.39548e-05
0.00629434
2.12094e-05
0.00628969
1.86549e-05
0.00628562
1.63048e-05
0.00628208
1.4168e-05
0.00627902
1.22492e-05
0.00627639
1.05482e-05
0.00627413
9.06111e-06
0.00627218
7.78006e-06
0.00627051
6.69421e-06
0.00626906
5.79031e-06
0.00626779
5.05338e-06
0.00626667
4.46736e-06
0.00626567
4.01575e-06
0.00626474
3.68216e-06
0.00626388
3.45073e-06
0.00626305
3.3065e-06
0.00626223
3.23568e-06
0.00626142
3.22578e-06
0.0062606
3.26576e-06
0.00625976
3.34598e-06
0.0062589
3.45821e-06
0.00625799
3.59556e-06
0.00625705
3.75231e-06
0.00625607
3.92389e-06
0.00625504
4.10663e-06
0.00625396
4.29786e-06
0.00625284
4.49511e-06
0.00625167
4.69819e-06
0.00625044
4.90178e-06
0.00624916
5.11968e-06
0.00624784
5.30449e-06
5.60934e-06
0.0062505
-2.53054e-06
0.00625201
-7.59282e-06
0.00625453
-1.26615e-05
0.00625807
-1.77421e-05
0.00626261
-2.28397e-05
0.00626818
-2.79592e-05
0.00627477
-3.31052e-05
0.00628239
-3.82822e-05
0.00629105
-4.34945e-05
0.00630076
-4.87459e-05
0.00631152
-5.40401e-05
0.00632335
-5.93804e-05
0.00633626
-6.47697e-05
0.00635025
-7.02105e-05
0.00636534
-7.57047e-05
0.00638154
-8.12536e-05
0.00639886
-8.68583e-05
0.00641732
-9.25189e-05
0.00643692
-9.82349e-05
0.00645768
-0.000104005
0.00647961
-0.000109828
0.00650272
-0.0001157
0.00652702
-0.000121619
0.00655252
-0.00012758
0.00657922
-0.000133577
0.00660714
-0.000139604
0.00663629
-0.000145654
0.00666666
-0.00015172
0.00669825
-0.000157791
0.00673107
-0.000163859
0.00676512
-0.000169911
0.00680039
-0.000175937
0.00683688
-0.000181923
0.00687457
-0.000187856
0.00691345
-0.000193722
0.0069535
-0.000199505
0.00699472
-0.000205191
0.00703706
-0.000210762
0.00708052
-0.000216203
0.00712506
-0.000221497
0.00717064
-0.000226628
0.00721723
-0.000231578
0.0072648
-0.000236332
0.00731329
-0.000240874
0.00736266
-0.000245187
0.00741286
-0.000249257
0.00746384
-0.000253071
0.00751554
-0.000256615
0.00756791
-0.000259878
0.00762089
-0.000262849
0.0076744
-0.00026552
0.0077284
-0.000267882
0.00778281
-0.000269931
0.00783758
-0.000271661
0.00789262
-0.00027307
0.00794788
-0.000274158
0.00800329
-0.000274924
0.00805879
-0.00027537
0.00811431
-0.000275502
0.00816978
-0.000275324
0.00822515
-0.000274842
0.00828036
-0.000274064
0.00833533
-0.000273
0.00839003
-0.000271658
0.0084444
-0.000270051
0.00849837
-0.000268188
0.00855191
-0.000266082
0.00860497
-0.000263744
0.0086575
-0.000261188
0.00870947
-0.000258425
0.00876083
-0.000255467
0.00881154
-0.000252326
0.00886158
-0.000249014
0.00891092
-0.000245541
0.00895952
-0.000241916
0.00900735
-0.000238151
0.00905439
-0.000234252
0.00910062
-0.000230228
0.00914602
-0.000226084
0.00919055
-0.000221828
0.00923421
-0.000217463
0.00927697
-0.000212992
0.00931882
-0.000208418
0.00935972
-0.000203744
0.00939967
-0.000198968
0.00943865
-0.000194091
0.00947663
-0.000189111
0.00951359
-0.000184027
0.00954952
-0.000178836
0.00958439
-0.000173534
0.00961818
-0.000168119
0.00965087
-0.000162586
0.00968243
-0.00015693
0.00971284
-0.000151148
0.00974207
-0.000145236
0.00977009
-0.000139189
0.00979688
-0.000133003
0.0098224
-0.000126675
0.00984663
-0.000120201
0.00986954
-0.00011358
0.00989109
-0.00010681
0.00991126
-9.98885e-05
0.00993001
-9.28161e-05
0.00994731
-8.55931e-05
0.00996313
-7.82211e-05
0.00997745
-7.07021e-05
0.00999022
-6.30394e-05
0.0100014
-5.52372e-05
0.010011
-4.73005e-05
0.010019
-3.92352e-05
0.0100254
-3.10483e-05
0.01003
-2.27474e-05
0.010033
-1.43409e-05
0.0100343
-5.83802e-06
0.0100338
2.75092e-06
0.0100316
1.14157e-05
0.0100276
2.01451e-05
0.0100218
2.89274e-05
0.0100143
3.77504e-05
0.010005
4.66016e-05
0.00999385
5.54681e-05
0.00998094
6.43367e-05
0.00996625
7.31941e-05
0.00994976
8.20267e-05
0.00993151
9.08208e-05
0.00991148
9.95627e-05
0.0098897
0.000108239
0.00986619
0.000116835
0.00984095
0.000125337
0.00981402
0.000133732
0.00978542
0.000142007
0.00975516
0.000150147
0.0097233
0.000158139
0.00968985
0.000165971
0.00965485
0.000173628
0.00961834
0.0001811
0.00958036
0.000188372
0.00954096
0.000195434
0.00950017
0.000202272
0.00945804
0.000208875
0.00941463
0.000215233
0.00936998
0.000221334
0.00932416
0.000227167
0.00927721
0.000232724
0.0092292
0.000237994
0.00918018
0.000242969
0.00913021
0.000247641
0.00907937
0.000252001
0.0090277
0.000256044
0.00897529
0.000259762
0.0089222
0.000263152
0.00886848
0.000266207
0.00881423
0.000268926
0.00875949
0.000271304
0.00870434
0.000273341
0.00864886
0.000275035
0.0085931
0.000276388
0.00853715
0.000277399
0.00848106
0.000278072
0.00842492
0.000278409
0.00836877
0.000278415
0.0083127
0.000278095
0.00825677
0.000277455
0.00820103
0.000276503
0.00814556
0.000275247
0.00809041
0.000273694
0.00803564
0.000271855
0.0079813
0.000269741
0.00792746
0.000267362
0.00787415
0.000264729
0.00782144
0.000261856
0.00776936
0.000258755
0.00771796
0.000255438
0.00766728
0.000251919
0.00761736
0.000248213
0.00756823
0.000244331
0.00751993
0.000240289
0.00747248
0.0002361
0.00742592
0.000231779
0.00738026
0.000227338
0.00733552
0.000222791
0.00729173
0.000218151
0.0072489
0.000213433
0.00720703
0.000208647
0.00716616
0.000203807
0.00712627
0.000198923
0.00708738
0.000194009
0.00704949
0.000189073
0.0070126
0.000184128
0.00697672
0.000179181
0.00694183
0.000174243
0.00690794
0.000169322
0.00687504
0.000164426
0.00684312
0.000159563
0.00681217
0.000154738
0.00678219
0.000149957
0.00675316
0.000145227
0.00672507
0.000140551
0.00669792
0.000135932
0.00667168
0.000131372
0.00664635
0.000126873
0.00662191
0.000122433
0.00659835
0.00011805
0.00657567
0.000113721
0.00655384
0.000109438
0.00653286
0.000105193
0.00651273
0.000100978
0.00649344
9.67801e-05
0.00647499
9.25887e-05
0.00645737
8.8392e-05
0.0064406
8.41793e-05
0.00642468
7.99423e-05
0.0064096
7.56755e-05
0.00639539
7.13778e-05
0.00638203
6.70526e-05
0.00636954
6.27091e-05
0.00635792
5.83616e-05
0.00634716
5.40298e-05
0.00633725
4.97381e-05
0.00632819
4.55143e-05
0.00631994
4.13891e-05
0.0063125
3.73939e-05
0.00630581
3.35598e-05
0.00629985
2.9916e-05
0.00629457
2.64886e-05
0.00628992
2.32996e-05
0.00628586
2.03656e-05
0.00628233
1.76981e-05
0.00627928
1.53026e-05
0.00627665
1.31793e-05