/*--------------------------------*- C++ -*----------------------------------*\
| =========                 |                                                 |
| \\      /  F ield         | OpenFOAM: The Open Source CFD Toolbox           |
|  \\    /   O peration     | Version:  2306                                  |
|   \\  /    A nd           | Website:  www.openfoam.com                      |
|    \\/     M anipulation  |                                                 |
\*---------------------------------------------------------------------------*/
FoamFile
{
    version     2.0;
    format      ascii;
    arch        "LSB;label=32;scalar=64";
    class       volScalarField;
    location    "6";
    object      T;
}
// * * * * * * * * * * * * * * * * * * * * * * * * * * * * * * * * * * * * * //

dimensions      [0 0 0 1 0 0 0];

internalField   nonuniform List<scalar> 
32768
(
300
300
300
300
300
300
300
300
300
300
300
300
300
300
300
300
300
300
300
300
300
300
300
300
300
300
300
300
300
300
300
300
300
300
300
300
300
300
300
300
300
300
300
300
300
300
300
300
300
300
300
300
300
300
300
300
300
300
300
300
300
300
300
300
300
300
300
300
300
300
300
300
299.999
299.999
299.999
299.999
299.999
299.999
299.999
299.998
299.998
299.998
299.997
299.997
299.997
299.996
299.995
299.995
299.994
299.993
299.992
299.991
299.99
299.989
299.988
299.986
299.985
299.983
299.981
299.979
299.976
299.974
299.971
299.968
299.964
299.961
299.957
299.953
299.948
299.943
299.938
299.932
299.926
299.92
299.913
299.905
299.897
299.889
299.88
299.87
299.86
299.85
299.838
299.826
299.814
299.8
299.786
299.772
299.756
299.74
299.723
299.705
299.686
299.666
299.646
299.624
299.602
299.578
299.554
299.528
299.502
299.474
299.445
299.415
299.384
299.351
299.317
299.282
299.245
299.206
299.165
299.123
299.079
299.032
298.983
298.931
298.877
298.819
298.757
298.691
298.621
298.545
298.464
298.376
298.28
298.176
298.062
297.937
297.798
297.645
297.476
297.287
297.076
296.841
296.578
296.283
295.952
295.582
295.166
294.7
294.178
293.593
292.94
292.212
291.4
290.498
289.497
288.39
287.167
285.821
284.343
282.726
280.96
279.038
276.952
274.697
272.264
269.65
266.849
263.858
260.673
257.293
253.718
249.947
245.985
241.832
237.495
232.979
228.291
223.439
218.433
213.283
208.001
202.598
197.089
191.486
185.804
180.057
174.26
168.427
162.573
156.712
150.86
145.029
139.233
133.485
127.798
122.182
116.649
111.208
105.869
100.639
95.5223
90.5214
85.6323
80.8411
76.1157
71.3904
66.537
61.3106
55.2466
47.4688
36.3272
18.7179
-11.194
-64.3736
-161.419
-341.011
-675.763
-1301.94
-2475.19
-4674.86
-8799.58
-16533.1
-31029.1
-58191.4
300
300
300
300
300
300
300
300
300
300
300
300
300
300
300
300
300
300
300
300
300
300
300
300
300
300
300
300
300
300
300
300
300
300
300
300
300
300
300
300
300
300
300
300
300
300
300
300
300
300
300
300
300
300
300
300
300
300
300
300
300
300
300
300
300
300
300
300
300
300
300
300
299.999
299.999
299.999
299.999
299.999
299.999
299.998
299.998
299.998
299.997
299.997
299.997
299.996
299.996
299.995
299.994
299.993
299.993
299.992
299.991
299.989
299.988
299.986
299.985
299.983
299.981
299.979
299.977
299.974
299.971
299.968
299.965
299.961
299.957
299.953
299.949
299.944
299.939
299.933
299.927
299.921
299.914
299.906
299.899
299.89
299.881
299.872
299.862
299.851
299.84
299.828
299.816
299.803
299.789
299.774
299.759
299.743
299.726
299.708
299.69
299.671
299.65
299.629
299.607
299.584
299.56
299.535
299.509
299.482
299.454
299.424
299.394
299.362
299.329
299.294
299.258
299.221
299.182
299.141
299.098
299.054
299.007
298.957
298.905
298.85
298.792
298.73
298.664
298.594
298.518
298.437
298.348
298.253
298.148
298.034
297.909
297.77
297.617
297.447
297.258
297.048
296.813
296.549
296.254
295.924
295.553
295.137
294.671
294.149
293.565
292.912
292.183
291.371
290.469
289.468
288.36
287.137
285.791
284.313
282.695
280.929
279.006
276.92
274.664
272.232
269.617
266.816
263.823
260.638
257.258
253.682
249.911
245.948
241.795
237.457
232.94
228.252
223.399
218.393
213.242
207.96
202.557
197.047
191.444
185.762
180.015
174.217
168.384
162.53
156.67
150.817
144.986
139.191
133.443
127.756
122.141
116.608
111.168
105.83
100.6
95.4845
90.4844
85.5962
80.8059
76.0814
71.3571
66.5049
61.2795
55.2167
47.4401
36.2999
18.6923
-11.2177
-64.3947
-161.436
-341.023
-675.766
-1301.94
-2475.16
-4674.82
-8799.53
-16533.1
-31029.3
-58192.3
300
300
300
300
300
300
300
300
300
300
300
300
300
300
300
300
300
300
300
300
300
300
300
300
300
300
300
300
300
300
300
300
300
300
300
300
300
300
300
300
300
300
300
300
300
300
300
300
300
300
300
300
300
300
300
300
300
300
300
300
300
300
300
300
300
300
300
300
300
300
299.999
299.999
299.999
299.999
299.999
299.999
299.999
299.998
299.998
299.998
299.997
299.997
299.997
299.996
299.995
299.995
299.994
299.993
299.992
299.991
299.99
299.989
299.987
299.986
299.984
299.982
299.98
299.978
299.975
299.973
299.97
299.966
299.963
299.959
299.955
299.951
299.946
299.941
299.935
299.93
299.923
299.916
299.909
299.902
299.893
299.885
299.876
299.866
299.856
299.845
299.833
299.821
299.808
299.794
299.78
299.765
299.75
299.733
299.716
299.698
299.679
299.66
299.639
299.618
299.595
299.572
299.548
299.523
299.497
299.47
299.442
299.412
299.382
299.351
299.318
299.284
299.248
299.212
299.173
299.133
299.092
299.048
299.003
298.955
298.905
298.853
298.797
298.739
298.676
298.61
298.539
298.463
298.381
298.293
298.197
298.092
297.978
297.852
297.714
297.561
297.391
297.202
296.991
296.756
296.493
296.198
295.867
295.497
295.081
294.615
294.093
293.509
292.856
292.127
291.315
290.413
289.412
288.304
287.081
285.735
284.257
282.639
280.872
278.95
276.864
274.607
272.175
269.559
266.758
263.765
260.579
257.198
253.622
249.851
245.887
241.734
237.396
232.879
228.189
223.337
218.33
213.179
207.896
202.493
196.983
191.38
185.697
179.95
174.152
168.319
162.465
156.605
150.753
144.923
139.127
133.38
127.694
122.079
116.547
111.108
105.771
100.542
95.4274
90.4286
85.5416
80.7527
76.0297
71.3069
66.4561
61.2324
55.1713
47.3966
36.2583
18.6528
-11.2547
-64.4285
-161.466
-341.047
-675.783
-1301.94
-2475.17
-4674.84
-8799.62
-16533.4
-31030.3
-58194.9
300
300
300
300
300
300
300
300
300
300
300
300
300
300
300
300
300
300
300
300
300
300
300
300
300
300
300
300
300
300
300
300
300
300
300
300
300
300
300
300
300
300
300
300
300
300
300
300
300
300
300
300
300
300
300
300
300
300
300
300
300
300
300
300
300
300
300
300
300
299.999
299.999
299.999
299.999
299.999
299.999
299.998
299.998
299.998
299.998
299.997
299.997
299.996
299.996
299.995
299.994
299.993
299.992
299.991
299.99
299.989
299.987
299.986
299.984
299.982
299.98
299.978
299.975
299.972
299.969
299.966
299.963
299.959
299.955
299.95
299.945
299.94
299.934
299.928
299.922
299.915
299.908
299.9
299.891
299.883
299.873
299.863
299.853
299.842
299.83
299.817
299.804
299.791
299.776
299.761
299.745
299.729
299.711
299.693
299.674
299.654
299.634
299.612
299.59
299.567
299.543
299.518
299.492
299.466
299.438
299.409
299.38
299.349
299.317
299.284
299.25
299.214
299.178
299.14
299.1
299.059
299.016
298.972
298.925
298.877
298.826
298.773
298.716
298.657
298.594
298.527
298.456
298.38
298.297
298.209
298.112
298.007
297.893
297.767
297.629
297.475
297.306
297.117
296.906
296.671
296.408
296.113
295.783
295.412
294.997
294.531
294.009
293.425
292.773
292.044
291.233
290.33
289.33
288.222
286.999
285.653
284.175
282.557
280.79
278.868
276.782
274.525
272.092
269.477
266.675
263.682
260.496
257.115
253.538
249.767
245.802
241.649
237.31
232.793
228.103
223.25
218.243
213.092
207.809
202.406
196.895
191.292
185.609
179.862
174.064
168.231
162.378
156.518
150.666
144.836
139.041
133.295
127.609
121.995
116.465
111.027
105.691
100.463
95.3501
90.3529
85.4677
80.6806
75.9595
71.2387
66.3901
61.1685
55.1097
47.3373
36.2015
18.5987
-11.3056
-64.4759
-161.509
-341.084
-675.816
-1301.97
-2475.21
-4674.93
-8799.86
-16534.1
-31032
-58199.1
300
300
300
300
300
300
300
300
300
300
300
300
300
300
300
300
300
300
300
300
300
300
300
300
300
300
300
300
300
300
300
300
300
300
300
300
300
300
300
300
300
300
300
300
300
300
300
300
300
300
300
300
300
300
300
300
300
300
300
300
300
300
300
300
300
300
300
299.999
299.999
299.999
299.999
299.999
299.999
299.998
299.998
299.998
299.998
299.997
299.997
299.996
299.996
299.995
299.994
299.993
299.992
299.991
299.99
299.989
299.987
299.985
299.984
299.982
299.979
299.977
299.974
299.971
299.968
299.965
299.961
299.957
299.952
299.948
299.943
299.937
299.931
299.925
299.918
299.91
299.903
299.894
299.885
299.876
299.866
299.856
299.844
299.833
299.82
299.807
299.793
299.779
299.764
299.748
299.731
299.714
299.696
299.677
299.657
299.637
299.615
299.593
299.57
299.547
299.522
299.497
299.47
299.443
299.415
299.386
299.356
299.325
299.294
299.261
299.227
299.192
299.156
299.119
299.08
299.041
299
298.957
298.913
298.867
298.82
298.77
298.718
298.663
298.606
298.546
298.482
298.415
298.343
298.266
298.183
298.094
297.998
297.892
297.778
297.652
297.513
297.36
297.19
297.001
296.791
296.556
296.293
295.999
295.669
295.299
294.884
294.418
293.897
293.313
292.661
291.933
291.122
290.22
289.22
288.112
286.89
285.544
284.066
282.448
280.682
278.759
276.673
274.417
271.984
269.369
266.566
263.573
260.387
257.006
253.429
249.657
245.693
241.539
237.2
232.682
227.993
223.139
218.132
212.981
207.697
202.294
196.784
191.18
185.497
179.75
173.953
168.12
162.267
156.407
150.556
144.726
138.932
133.187
127.502
121.889
116.36
110.924
105.589
100.363
95.2522
90.257
85.374
80.5892
75.8705
71.1522
66.3063
61.0875
55.0315
47.2621
36.1294
18.5299
-11.3708
-64.5369
-161.565
-341.136
-675.863
-1302.02
-2475.28
-4675.08
-8800.23
-16535
-31034.4
-58205
300
300
300
300
300
300
300
300
300
300
300
300
300
300
300
300
300
300
300
300
300
300
300
300
300
300
300
300
300
300
300
300
300
300
300
300
300
300
300
300
300
300
300
300
300
300
300
300
300
300
300
300
300
300
300
300
300
300
300
300
300
300
300
300
300
300
299.999
299.999
299.999
299.999
299.999
299.999
299.998
299.998
299.998
299.997
299.997
299.996
299.995
299.995
299.994
299.993
299.992
299.991
299.99
299.988
299.987
299.985
299.983
299.981
299.978
299.976
299.973
299.97
299.966
299.962
299.958
299.954
299.949
299.944
299.938
299.932
299.926
299.919
299.911
299.903
299.895
299.886
299.876
299.866
299.855
299.844
299.831
299.819
299.805
299.791
299.776
299.76
299.744
299.727
299.709
299.69
299.671
299.651
299.629
299.608
299.585
299.562
299.537
299.512
299.486
299.46
299.432
299.404
299.374
299.344
299.314
299.282
299.249
299.216
299.181
299.146
299.11
299.072
299.034
298.995
298.954
298.912
298.869
298.825
298.779
298.732
298.683
298.632
298.578
298.523
298.465
298.404
298.339
298.271
298.198
298.121
298.037
297.948
297.851
297.746
297.631
297.505
297.366
297.213
297.044
296.855
296.645
296.41
296.148
295.854
295.525
295.155
294.741
294.276
293.755
293.172
292.52
291.793
290.982
290.081
289.081
287.975
286.753
285.407
283.93
282.312
280.546
278.624
276.538
274.282
271.849
269.234
266.431
263.438
260.252
256.87
253.293
249.522
245.557
241.403
237.064
232.546
227.856
223.003
217.995
212.844
207.56
202.157
196.647
191.043
185.361
179.613
173.816
167.984
162.131
156.272
150.421
144.592
138.799
133.055
127.371
121.76
116.232
110.798
105.465
100.242
95.1329
90.1402
85.2598
80.4779
75.7622
71.047
66.2043
60.9888
54.9363
47.1705
36.0415
18.446
-11.4505
-64.612
-161.635
-341.201
-675.926
-1302.09
-2475.38
-4675.29
-8800.75
-16536.3
-31037.6
-58212.6
300
300
300
300
300
300
300
300
300
300
300
300
300
300
300
300
300
300
300
300
300
300
300
300
300
300
300
300
300
300
300
300
300
300
300
300
300
300
300
300
300
300
300
300
300
300
300
300
300
300
300
300
300
300
300
300
300
300
300
300
300
300
300
300
299.999
299.999
299.999
299.999
299.999
299.999
299.998
299.998
299.998
299.997
299.997
299.996
299.995
299.995
299.994
299.993
299.992
299.991
299.989
299.988
299.986
299.984
299.982
299.98
299.977
299.974
299.971
299.968
299.964
299.96
299.955
299.95
299.945
299.939
299.933
299.927
299.919
299.912
299.903
299.895
299.885
299.875
299.864
299.853
299.841
299.828
299.815
299.801
299.786
299.77
299.753
299.736
299.718
299.699
299.679
299.659
299.637
299.615
299.592
299.568
299.544
299.518
299.492
299.464
299.436
299.408
299.378
299.348
299.316
299.284
299.252
299.218
299.184
299.149
299.113
299.076
299.039
299
298.961
298.921
298.88
298.838
298.795
298.751
298.706
298.66
298.612
298.563
298.512
298.46
298.405
298.348
298.289
298.227
298.161
298.092
298.019
297.941
297.857
297.768
297.67
297.565
297.45
297.324
297.186
297.033
296.864
296.676
296.466
296.232
295.971
295.677
295.348
294.98
294.566
294.102
293.582
293
292.349
291.623
290.813
289.913
288.914
287.808
286.586
285.242
283.765
282.148
280.382
278.46
276.375
274.119
271.686
269.071
266.269
263.276
260.09
256.708
253.131
249.359
245.394
241.24
236.901
232.383
227.693
222.839
217.832
212.68
207.397
201.993
196.483
190.88
185.197
179.45
173.654
167.822
161.969
156.111
150.261
144.433
138.642
132.898
127.216
121.607
116.081
110.649
105.318
100.098
94.9915
90.0018
85.1246
80.3461
75.6339
70.9225
66.0836
60.8721
54.8236
47.062
35.9374
18.3465
-11.5452
-64.7015
-161.72
-341.28
-676.004
-1302.18
-2475.52
-4675.57
-8801.41
-16537.9
-31041.4
-58221.8
300
300
300
300
300
300
300
300
300
300
300
300
300
300
300
300
300
300
300
300
300
300
300
300
300
300
300
300
300
300
300
300
300
300
300
300
300
300
300
300
300
300
300
300
300
300
300
300
300
300
300
300
300
300
300
300
300
300
300
300
300
300
299.999
299.999
299.999
299.999
299.999
299.999
299.998
299.998
299.998
299.997
299.997
299.996
299.995
299.995
299.994
299.993
299.992
299.99
299.989
299.987
299.985
299.983
299.981
299.978
299.976
299.973
299.969
299.965
299.961
299.957
299.952
299.946
299.941
299.934
299.927
299.92
299.912
299.903
299.894
299.884
299.874
299.863
299.851
299.838
299.824
299.81
299.795
299.779
299.762
299.745
299.726
299.707
299.686
299.665
299.643
299.62
299.596
299.571
299.545
299.519
299.491
299.463
299.434
299.404
299.373
299.341
299.309
299.275
299.241
299.206
299.171
299.135
299.098
299.06
299.022
298.983
298.943
298.903
298.862
298.82
298.777
298.734
298.69
298.646
298.6
298.553
298.506
298.457
298.408
298.357
298.304
298.25
298.194
298.136
298.076
298.012
297.946
297.877
297.803
297.724
297.641
297.551
297.453
297.348
297.234
297.108
296.97
296.818
296.649
296.462
296.253
296.02
295.759
295.467
295.139
294.771
294.358
293.896
293.377
292.796
292.146
291.421
290.612
289.713
288.715
287.61
286.39
285.046
283.57
281.953
280.188
278.267
276.182
273.927
271.494
268.879
266.077
263.085
259.898
256.517
252.94
249.168
245.203
241.049
236.71
232.192
227.502
222.648
217.64
212.489
207.206
201.802
196.292
190.689
185.007
179.26
173.464
167.632
161.781
155.923
150.074
144.248
138.458
132.716
127.036
121.429
115.905
110.475
105.148
99.9299
94.8271
89.841
84.9676
80.1929
75.4849
70.7779
65.9435
60.7366
54.6929
46.9362
35.8167
18.2309
-11.6552
-64.8058
-161.818
-341.374
-676.098
-1302.29
-2475.69
-4675.91
-8802.2
-16539.8
-31046
-58232.7
300
300
300
300
300
300
300
300
300
300
300
300
300
300
300
300
300
300
300
300
300
300
300
300
300
300
300
300
300
300
300
300
300
300
300
300
300
300
300
300
300
300
300
300
300
300
300
300
300
300
300
300
300
300
300
300
300
300
300
300
300
299.999
299.999
299.999
299.999
299.999
299.998
299.998
299.998
299.997
299.997
299.996
299.995
299.995
299.994
299.993
299.991
299.99
299.988
299.987
299.985
299.983
299.98
299.977
299.974
299.971
299.967
299.963
299.958
299.953
299.948
299.942
299.936
299.929
299.921
299.913
299.904
299.894
299.884
299.873
299.861
299.848
299.835
299.82
299.805
299.789
299.772
299.754
299.735
299.715
299.694
299.672
299.649
299.625
299.6
299.574
299.547
299.519
299.49
299.459
299.428
299.396
299.364
299.33
299.295
299.26
299.223
299.186
299.148
299.11
299.071
299.031
298.99
298.949
298.907
298.865
298.822
298.778
298.734
298.69
298.645
298.599
298.553
298.506
298.459
298.411
298.363
298.314
298.264
298.213
298.161
298.108
298.054
297.999
297.941
297.882
297.821
297.757
297.69
297.62
297.546
297.467
297.383
297.294
297.197
297.092
296.978
296.853
296.716
296.564
296.397
296.21
296.003
295.771
295.511
295.22
294.894
294.527
294.116
293.655
293.137
292.558
291.91
291.186
290.378
289.481
288.484
287.38
286.161
284.818
283.343
281.728
279.964
278.043
275.959
273.704
271.272
268.657
265.856
262.863
259.677
256.296
252.719
248.947
244.982
240.828
236.489
231.971
227.281
222.427
217.419
212.268
206.985
201.582
196.072
190.469
184.787
179.041
173.245
167.414
161.564
155.707
149.86
144.035
138.246
132.507
126.829
121.224
115.703
110.276
104.952
99.7376
94.6387
89.6567
84.7876
80.0176
75.3144
70.6124
65.7832
60.5817
54.5435
46.7924
35.6786
18.0988
-11.7812
-64.9256
-161.932
-341.484
-676.209
-1302.42
-2475.89
-4676.31
-8803.13
-16542
-31051.4
-58245.2
300
300
300
300
300
300
300
300
300
300
300
300
300
300
300
300
300
300
300
300
300
300
300
300
300
300
300
300
300
300
300
300
300
300
300
300
300
300
300
300
300
300
300
300
300
300
300
300
300
300
300
300
300
300
300
300
300
300
300
299.999
299.999
299.999
299.999
299.999
299.998
299.998
299.998
299.997
299.997
299.996
299.995
299.995
299.994
299.993
299.991
299.99
299.988
299.986
299.984
299.982
299.979
299.976
299.973
299.969
299.965
299.961
299.956
299.95
299.944
299.938
299.93
299.923
299.914
299.905
299.895
299.884
299.873
299.86
299.847
299.833
299.817
299.801
299.784
299.766
299.746
299.726
299.704
299.681
299.657
299.632
299.606
299.579
299.55
299.52
299.489
299.457
299.424
299.39
299.355
299.318
299.281
299.242
299.203
299.163
299.122
299.08
299.037
298.994
298.949
298.905
298.859
298.813
298.767
298.72
298.673
298.625
298.577
298.529
298.48
298.431
298.381
298.332
298.282
298.232
298.181
298.13
298.079
298.027
297.975
297.922
297.868
297.813
297.757
297.7
297.642
297.582
297.52
297.456
297.389
297.318
297.244
297.166
297.083
296.993
296.897
296.793
296.68
296.556
296.42
296.27
296.104
295.919
295.713
295.482
295.224
294.935
294.61
294.246
293.837
293.377
292.862
292.284
291.638
290.915
290.11
289.214
288.219
287.116
285.899
284.557
283.084
281.469
279.706
277.787
275.703
273.449
271.017
268.403
265.602
262.61
259.424
256.043
252.466
248.694
244.73
240.576
236.237
231.718
227.028
222.175
217.167
212.016
206.733
201.33
195.82
190.218
184.536
178.791
172.996
167.166
161.316
155.461
149.615
143.792
138.005
132.268
126.593
120.991
115.473
110.05
104.73
99.5195
94.425
89.4478
84.5838
79.8191
75.1214
70.4251
65.6019
60.4065
54.3745
46.6298
35.5226
17.9494
-11.9238
-65.0613
-162.061
-341.609
-676.338
-1302.58
-2476.13
-4676.78
-8804.2
-16544.6
-31057.4
-58259.3
300
300
300
300
300
300
300
300
300
300
300
300
300
300
300
300
300
300
300
300
300
300
300
300
300
300
300
300
300
300
300
300
300
300
300
300
300
300
300
300
300
300
300
300
300
300
300
300
300
300
300
300
300
300
300
300
300
300
299.999
299.999
299.999
299.999
299.999
299.998
299.998
299.997
299.997
299.996
299.996
299.995
299.994
299.993
299.991
299.99
299.988
299.986
299.984
299.981
299.978
299.975
299.972
299.968
299.963
299.958
299.953
299.947
299.94
299.933
299.925
299.917
299.907
299.897
299.886
299.874
299.861
299.847
299.832
299.816
299.799
299.78
299.761
299.74
299.718
299.695
299.67
299.644
299.617
299.588
299.558
299.527
299.494
299.46
299.424
299.387
299.349
299.31
299.269
299.228
299.185
299.141
299.096
299.049
299.002
298.954
298.906
298.856
298.806
298.755
298.704
298.652
298.6
298.547
298.494
298.441
298.387
298.334
298.28
298.226
298.172
298.118
298.064
298.01
297.956
297.902
297.848
297.794
297.74
297.686
297.631
297.576
297.521
297.465
297.408
297.35
297.291
297.23
297.168
297.104
297.037
296.967
296.894
296.816
296.733
296.645
296.55
296.448
296.336
296.214
296.08
295.931
295.767
295.584
295.38
295.152
294.896
294.609
294.287
293.925
293.518
293.061
292.547
291.972
291.328
290.608
289.805
288.91
287.917
286.817
285.601
284.261
282.789
281.176
279.414
277.496
275.413
273.16
270.729
268.116
265.315
262.323
259.137
255.757
252.18
248.408
244.444
240.289
235.95
231.432
226.742
221.889
216.881
211.73
206.447
201.045
195.536
189.934
184.253
178.508
172.714
166.885
161.037
155.184
149.339
143.518
137.734
131.999
126.327
120.729
115.215
109.795
104.479
99.2742
94.1849
89.2131
84.3548
79.5962
74.9048
70.2151
65.3986
60.2101
54.1853
46.4478
35.3478
17.7821
-12.0837
-65.2138
-162.207
-341.751
-676.485
-1302.76
-2476.4
-4677.32
-8805.41
-16547.4
-31064.1
-58275
300
300
300
300
300
300
300
300
300
300
300
300
300
300
300
300
300
300
300
300
300
300
300
300
300
300
300
300
300
300
300
300
300
300
300
300
300
300
300
300
300
300
300
300
300
300
300
300
300
300
300
300
300
300
300
300
299.999
299.999
299.999
299.999
299.999
299.998
299.998
299.998
299.997
299.996
299.996
299.995
299.994
299.993
299.991
299.99
299.988
299.986
299.984
299.981
299.978
299.975
299.971
299.966
299.962
299.956
299.95
299.944
299.937
299.929
299.92
299.911
299.9
299.889
299.876
299.863
299.849
299.833
299.816
299.798
299.779
299.758
299.736
299.712
299.687
299.661
299.633
299.603
299.572
299.539
299.504
299.468
299.431
299.391
299.351
299.308
299.264
299.219
299.172
299.124
299.074
299.024
298.971
298.918
298.864
298.809
298.753
298.696
298.638
298.58
298.521
298.462
298.402
298.342
298.282
298.222
298.161
298.101
298.041
297.981
297.921
297.861
297.802
297.743
297.684
297.626
297.568
297.51
297.453
297.396
297.339
297.283
297.226
297.17
297.113
297.056
296.998
296.94
296.881
296.821
296.759
296.695
296.629
296.56
296.488
296.412
296.331
296.245
296.152
296.052
295.942
295.823
295.691
295.545
295.383
295.203
295.002
294.777
294.524
294.24
293.92
293.561
293.157
292.703
292.192
291.62
290.979
290.261
289.46
288.569
287.578
286.48
285.266
283.928
282.457
280.846
279.086
277.168
275.087
272.834
270.404
267.792
264.992
262
258.815
255.434
251.858
248.086
244.122
239.968
235.629
231.111
226.421
221.567
216.56
211.409
206.126
200.724
195.216
189.614
183.934
178.191
172.398
166.57
160.724
154.872
149.03
143.211
137.43
131.698
126.03
120.435
114.925
109.511
104.2
99.0003
93.9167
88.9511
84.0995
79.3477
74.6635
69.9812
65.1723
59.9917
53.9747
46.2453
35.1535
17.596
-12.2616
-65.3838
-162.37
-341.911
-676.652
-1302.96
-2476.71
-4677.93
-8806.76
-16550.6
-31071.5
-58292.2
300
300
300
300
300
300
300
300
300
300
300
300
300
300
300
300
300
300
300
300
300
300
300
300
300
300
300
300
300
300
300
300
300
300
300
300
300
300
300
300
300
300
300
300
300
300
300
300
300
300
300
300
300
300
300
299.999
299.999
299.999
299.999
299.999
299.998
299.998
299.997
299.997
299.996
299.995
299.994
299.993
299.992
299.99
299.988
299.986
299.984
299.981
299.978
299.974
299.97
299.965
299.96
299.955
299.948
299.941
299.933
299.925
299.915
299.905
299.893
299.881
299.867
299.852
299.836
299.818
299.8
299.779
299.758
299.734
299.709
299.683
299.654
299.624
299.592
299.558
299.523
299.485
299.445
299.404
299.361
299.316
299.269
299.22
299.169
299.116
299.062
299.006
298.949
298.89
298.83
298.768
298.705
298.641
298.576
298.51
298.443
298.376
298.308
298.24
298.171
298.102
298.033
297.964
297.895
297.826
297.758
297.69
297.622
297.556
297.489
297.424
297.359
297.295
297.231
297.169
297.107
297.046
296.986
296.926
296.867
296.809
296.751
296.694
296.636
296.579
296.522
296.464
296.405
296.346
296.286
296.224
296.159
296.093
296.023
295.949
295.871
295.787
295.698
295.6
295.494
295.377
295.249
295.107
294.949
294.772
294.574
294.353
294.104
293.823
293.508
293.152
292.751
292.301
291.794
291.225
290.587
289.872
289.075
288.186
287.198
286.102
284.891
283.555
282.087
280.477
278.718
276.802
274.722
272.471
270.042
267.43
264.63
261.639
258.454
255.074
251.497
247.726
243.762
239.608
235.269
230.751
226.061
221.208
216.2
211.05
205.768
200.366
194.858
189.257
183.578
177.836
172.044
166.218
160.373
154.524
148.685
142.869
137.091
131.363
125.698
120.108
114.604
109.194
103.889
98.696
93.6191
88.6606
83.8163
79.0723
74.3962
69.7222
64.9219
59.75
53.742
46.0216
34.9388
17.3903
-12.4583
-65.572
-162.551
-342.089
-676.841
-1303.19
-2477.07
-4678.61
-8808.26
-16554
-31079.6
-58311
300
300
300
300
300
300
300
300
300
300
300
300
300
300
300
300
300
300
300
300
300
300
300
300
300
300
300
300
300
300
300
300
300
300
300
300
300
300
300
300
300
300
300
300
300
300
300
300
300
300
300
300
300
300
299.999
299.999
299.999
299.999
299.998
299.998
299.998
299.997
299.996
299.995
299.994
299.993
299.992
299.99
299.988
299.986
299.984
299.981
299.977
299.974
299.969
299.965
299.959
299.953
299.946
299.939
299.93
299.921
299.91
299.899
299.886
299.873
299.858
299.841
299.823
299.804
299.783
299.76
299.736
299.709
299.681
299.651
299.619
299.585
299.549
299.51
299.469
299.426
299.381
299.334
299.284
299.232
299.178
299.121
299.063
299.002
298.939
298.874
298.808
298.739
298.669
298.597
298.524
298.449
298.373
298.297
298.219
298.14
298.061
297.982
297.902
297.822
297.742
297.662
297.583
297.504
297.425
297.347
297.27
297.194
297.119
297.045
296.972
296.901
296.83
296.761
296.693
296.627
296.562
296.498
296.435
296.374
296.314
296.254
296.196
296.138
296.082
296.025
295.969
295.913
295.856
295.799
295.741
295.682
295.621
295.557
295.491
295.421
295.346
295.267
295.181
295.088
294.986
294.874
294.75
294.612
294.459
294.287
294.094
293.877
293.632
293.356
293.045
292.694
292.298
291.851
291.349
290.784
290.15
289.439
288.645
287.76
286.775
285.682
284.474
283.14
281.674
280.067
278.31
276.396
274.317
272.066
269.638
267.027
264.228
261.238
258.053
254.673
251.097
247.325
243.361
239.207
234.868
230.35
225.66
220.807
215.8
210.65
205.368
199.967
194.459
188.86
183.182
177.441
171.651
165.827
159.984
154.138
148.301
142.489
136.715
130.991
125.331
119.746
114.247
108.844
103.546
98.3596
93.2903
88.3397
83.5039
78.7686
74.1016
69.4369
64.6462
59.4841
53.486
45.7756
34.7028
17.1643
-12.6747
-65.7795
-162.752
-342.288
-677.051
-1303.45
-2477.47
-4679.37
-8809.9
-16557.8
-31088.3
-58331.2
300
300
300
300
300
300
300
300
300
300
300
300
300
300
300
300
300
300
300
300
300
300
300
300
300
300
300
300
300
300
300
300
300
300
300
300
300
300
300
300
300
300
300
300
300
300
300
300
300
300
300
300
299.999
299.999
299.999
299.999
299.999
299.998
299.998
299.997
299.997
299.996
299.995
299.994
299.992
299.991
299.989
299.987
299.984
299.981
299.978
299.974
299.969
299.964
299.959
299.952
299.945
299.937
299.928
299.917
299.906
299.894
299.88
299.865
299.849
299.83
299.811
299.789
299.766
299.741
299.713
299.684
299.652
299.619
299.582
299.544
299.503
299.459
299.413
299.364
299.312
299.258
299.201
299.141
299.078
299.013
298.945
298.875
298.802
298.727
298.649
298.569
298.488
298.404
298.318
298.231
298.143
298.053
297.962
297.87
297.777
297.684
297.591
297.498
297.405
297.312
297.219
297.127
297.036
296.946
296.857
296.77
296.684
296.599
296.516
296.435
296.355
296.278
296.202
296.128
296.057
295.987
295.919
295.853
295.789
295.727
295.667
295.608
295.55
295.494
295.439
295.384
295.331
295.277
295.224
295.171
295.117
295.062
295.005
294.946
294.885
294.82
294.751
294.677
294.597
294.509
294.413
294.307
294.188
294.057
293.909
293.743
293.556
293.344
293.105
292.835
292.53
292.184
291.793
291.352
290.854
290.294
289.664
288.959
288.169
287.287
286.306
285.217
284.012
282.681
281.218
279.613
277.858
275.945
273.868
271.619
269.192
266.582
263.783
260.793
257.609
254.229
250.653
246.881
242.917
238.763
234.423
229.905
225.216
220.363
215.356
210.206
204.925
199.524
194.018
188.419
182.743
177.003
171.215
165.394
159.554
153.71
147.877
142.069
136.299
130.58
124.926
119.347
113.854
108.458
103.168
97.9894
92.9286
87.987
83.1606
78.4351
73.7782
69.124
64.344
59.1928
53.2057
45.5063
34.4446
16.9168
-12.9117
-66.007
-162.972
-342.508
-677.285
-1303.74
-2477.91
-4680.21
-8811.7
-16561.9
-31097.8
-58352.9
300
300
300
300
300
300
300
300
300
300
300
300
300
300
300
300
300
300
300
300
300
300
300
300
300
300
300
300
300
300
300
300
300
300
300
300
300
300
300
300
300
300
300
300
300
300
300
300
300
300
300
299.999
299.999
299.999
299.999
299.998
299.998
299.998
299.997
299.996
299.995
299.994
299.993
299.991
299.989
299.987
299.985
299.982
299.978
299.974
299.97
299.964
299.958
299.952
299.944
299.935
299.926
299.915
299.903
299.889
299.874
299.858
299.84
299.82
299.799
299.775
299.749
299.721
299.691
299.658
299.623
299.585
299.544
299.501
299.454
299.405
299.352
299.297
299.238
299.176
299.11
299.042
298.97
298.895
298.817
298.735
298.651
298.563
298.473
298.38
298.285
298.187
298.087
297.985
297.881
297.776
297.669
297.561
297.453
297.343
297.234
297.124
297.015
296.906
296.797
296.69
296.583
296.478
296.375
296.273
296.173
296.075
295.979
295.886
295.795
295.707
295.622
295.539
295.458
295.381
295.306
295.234
295.165
295.098
295.034
294.973
294.913
294.856
294.801
294.748
294.696
294.646
294.597
294.548
294.5
294.452
294.404
294.355
294.305
294.253
294.198
294.14
294.078
294.011
293.938
293.858
293.769
293.67
293.559
293.435
293.294
293.136
292.956
292.751
292.52
292.256
291.957
291.618
291.234
290.799
290.307
289.752
289.128
288.428
287.643
286.766
285.789
284.704
283.502
282.175
280.715
279.112
277.359
275.449
273.373
271.126
268.7
266.09
263.292
260.303
257.119
253.739
250.162
246.391
242.426
238.272
233.933
229.414
224.725
219.872
214.865
209.716
204.435
199.035
193.53
187.932
182.258
176.52
170.734
164.915
159.079
153.239
147.41
141.606
135.841
130.128
124.48
118.908
113.423
108.035
102.753
97.5833
92.5321
87.6006
82.7847
78.0702
73.4247
68.7822
64.014
58.8749
52.9
45.2127
34.163
16.6471
-13.1703
-66.2557
-163.214
-342.75
-677.545
-1304.06
-2478.4
-4681.12
-8813.65
-16566.3
-31107.9
-58375.9
300
300
300
300
300
300
300
300
300
300
300
300
300
300
300
300
300
300
300
300
300
300
300
300
300
300
300
300
300
300
300
300
300
300
300
300
300
300
300
300
300
300
300
300
300
300
300
300
300
300
299.999
299.999
299.999
299.999
299.998
299.998
299.997
299.997
299.996
299.995
299.993
299.992
299.99
299.988
299.985
299.982
299.979
299.975
299.97
299.965
299.959
299.952
299.944
299.934
299.924
299.913
299.9
299.886
299.87
299.852
299.832
299.811