/*--------------------------------*- C++ -*----------------------------------*\
| =========                 |                                                 |
| \\      /  F ield         | OpenFOAM: The Open Source CFD Toolbox           |
|  \\    /   O peration     | Version:  2306                                  |
|   \\  /    A nd           | Website:  www.openfoam.com                      |
|    \\/     M anipulation  |                                                 |
\*---------------------------------------------------------------------------*/
FoamFile
{
    version     2.0;
    format      ascii;
    arch        "LSB;label=32;scalar=64";
    class       volVectorField;
    location    "6";
    object      U;
}
// * * * * * * * * * * * * * * * * * * * * * * * * * * * * * * * * * * * * * //

dimensions      [0 1 -1 0 0 0 0];

internalField   nonuniform List<vector> 
32768
(
(1.00001 -4.05084e-05 0)
(1.00017 -0.000121731 0)
(1.00049 -0.000203105 0)
(1.00097 -0.000284636 0)
(1.00163 -0.000366427 0)
(1.00244 -0.000448578 0)
(1.00342 -0.000531152 0)
(1.00457 -0.000614207 0)
(1.00588 -0.000697805 0)
(1.00736 -0.000782007 0)
(1.00901 -0.00086687 0)
(1.01083 -0.000952443 0)
(1.01282 -0.00103877 0)
(1.01498 -0.00112589 0)
(1.01732 -0.00121382 0)
(1.01984 -0.00130259 0)
(1.02253 -0.00139222 0)
(1.02541 -0.00148269 0)
(1.02846 -0.001574 0)
(1.0317 -0.00166612 0)
(1.03513 -0.00175904 0)
(1.03874 -0.00185269 0)
(1.04254 -0.00194703 0)
(1.04653 -0.00204197 0)
(1.05071 -0.00213744 0)
(1.05508 -0.00223333 0)
(1.05964 -0.00232953 0)
(1.0644 -0.00242591 0)
(1.06935 -0.00252233 0)
(1.07449 -0.00261861 0)
(1.07982 -0.0027146 0)
(1.08535 -0.00281011 0)
(1.09107 -0.00290493 0)
(1.09697 -0.00299886 0)
(1.10306 -0.00309167 0)
(1.10934 -0.00318312 0)
(1.1158 -0.00327298 0)
(1.12243 -0.00336099 0)
(1.12924 -0.00344692 0)
(1.13622 -0.00353048 0)
(1.14337 -0.00361144 0)
(1.15067 -0.00368954 0)
(1.15813 -0.00376451 0)
(1.16574 -0.00383613 0)
(1.17348 -0.00390414 0)
(1.18136 -0.00396833 0)
(1.18936 -0.00402848 0)
(1.19747 -0.0040844 0)
(1.2057 -0.00413591 0)
(1.21402 -0.00418284 0)
(1.22244 -0.00422507 0)
(1.23093 -0.00426247 0)
(1.23949 -0.00429495 0)
(1.24811 -0.00432245 0)
(1.25678 -0.00434492 0)
(1.2655 -0.00436236 0)
(1.27424 -0.00437476 0)
(1.283 -0.00438215 0)
(1.29177 -0.0043846 0)
(1.30054 -0.00438218 0)
(1.30931 -0.00437499 0)
(1.31805 -0.00436314 0)
(1.32676 -0.00434676 0)
(1.33544 -0.00432601 0)
(1.34407 -0.00430105 0)
(1.35265 -0.00427204 0)
(1.36116 -0.00423916 0)
(1.36961 -0.00420259 0)
(1.37798 -0.00416253 0)
(1.38626 -0.00411914 0)
(1.39446 -0.00407263 0)
(1.40256 -0.00402316 0)
(1.41055 -0.00397092 0)
(1.41844 -0.00391606 0)
(1.42622 -0.00385874 0)
(1.43388 -0.0037991 0)
(1.44142 -0.00373727 0)
(1.44883 -0.00367338 0)
(1.45611 -0.00360752 0)
(1.46326 -0.00353978 0)
(1.47027 -0.00347024 0)
(1.47714 -0.00339895 0)
(1.48387 -0.00332594 0)
(1.49045 -0.00325126 0)
(1.49687 -0.0031749 0)
(1.50315 -0.00309687 0)
(1.50926 -0.00301715 0)
(1.51522 -0.00293572 0)
(1.52101 -0.00285254 0)
(1.52663 -0.00276757 0)
(1.53208 -0.00268075 0)
(1.53735 -0.00259204 0)
(1.54245 -0.00250136 0)
(1.54736 -0.00240867 0)
(1.55208 -0.0023139 0)
(1.55661 -0.00221698 0)
(1.56095 -0.00211787 0)
(1.56509 -0.00201652 0)
(1.56902 -0.00191288 0)
(1.57274 -0.00180692 0)
(1.57625 -0.00169862 0)
(1.57953 -0.00158796 0)
(1.5826 -0.00147493 0)
(1.58543 -0.00135956 0)
(1.58804 -0.00124185 0)
(1.5904 -0.00112186 0)
(1.59253 -0.000999636 0)
(1.5944 -0.000875236 0)
(1.59603 -0.000748746 0)
(1.5974 -0.000620257 0)
(1.59851 -0.000489879 0)
(1.59936 -0.000357729 0)
(1.59994 -0.000223943 0)
(1.60025 -8.86621e-05 0)
(1.6003 4.79559e-05 0)
(1.60006 0.000185744 0)
(1.59955 0.00032453 0)
(1.59876 0.00046413 0)
(1.59769 0.000604355 0)
(1.59635 0.000745009 0)
(1.59471 0.000885887 0)
(1.5928 0.00102678 0)
(1.59061 0.00116749 0)
(1.58813 0.00130779 0)
(1.58537 0.00144747 0)
(1.58234 0.00158631 0)
(1.57902 0.0017241 0)
(1.57544 0.00186061 0)
(1.57158 0.00199563 0)
(1.56745 0.00212895 0)
(1.56306 0.00226034 0)
(1.55841 0.00238959 0)
(1.5535 0.00251649 0)
(1.54834 0.00264084 0)
(1.54293 0.00276243 0)
(1.53728 0.00288105 0)
(1.5314 0.00299651 0)
(1.52529 0.00310861 0)
(1.51896 0.00321717 0)
(1.51242 0.00332201 0)
(1.50567 0.00342294 0)
(1.49872 0.00351979 0)
(1.49159 0.00361241 0)
(1.48427 0.00370064 0)
(1.47678 0.00378432 0)
(1.46912 0.00386333 0)
(1.46132 0.00393753 0)
(1.45337 0.0040068 0)
(1.44529 0.00407104 0)
(1.43708 0.00413016 0)
(1.42876 0.00418407 0)
(1.42034 0.0042327 0)
(1.41182 0.004276 0)
(1.40323 0.00431393 0)
(1.39456 0.00434645 0)
(1.38583 0.00437357 0)
(1.37706 0.00439529 0)
(1.36825 0.00441161 0)
(1.35941 0.00442259 0)
(1.35055 0.00442828 0)
(1.34169 0.00442873 0)
(1.33283 0.00442403 0)
(1.32398 0.00441428 0)
(1.31516 0.00439958 0)
(1.30638 0.00438008 0)
(1.29764 0.00435589 0)
(1.28895 0.00432717 0)
(1.28033 0.00429409 0)
(1.27177 0.00425681 0)
(1.26329 0.00421553 0)
(1.2549 0.00417041 0)
(1.24661 0.00412168 0)
(1.23841 0.00406952 0)
(1.23033 0.00401415 0)
(1.22235 0.00395578 0)
(1.2145 0.00389462 0)
(1.20677 0.0038309 0)
(1.19917 0.00376483 0)
(1.19171 0.00369662 0)
(1.18438 0.0036265 0)
(1.1772 0.00355467 0)
(1.17016 0.00348135 0)
(1.16327 0.00340673 0)
(1.15653 0.00333102 0)
(1.14995 0.00325441 0)
(1.14351 0.00317709 0)
(1.13724 0.00309923 0)
(1.13112 0.00302102 0)
(1.12515 0.0029426 0)
(1.11935 0.00286414 0)
(1.1137 0.00278578 0)
(1.1082 0.00270766 0)
(1.10287 0.0026299 0)
(1.09768 0.00255262 0)
(1.09266 0.00247593 0)
(1.08778 0.00239993 0)
(1.08306 0.00232468 0)
(1.07848 0.00225027 0)
(1.07406 0.00217674 0)
(1.06978 0.00210413 0)
(1.06564 0.00203245 0)
(1.06165 0.00196169 0)
(1.05779 0.00189181 0)
(1.05408 0.00182275 0)
(1.0505 0.0017544 0)
(1.04706 0.00168663 0)
(1.04376 0.00161929 0)
(1.04059 0.0015522 0)
(1.03755 0.00148517 0)
(1.03465 0.00141802 0)
(1.03188 0.00135058 0)
(1.02925 0.00128272 0)
(1.02675 0.00121434 0)
(1.02439 0.00114544 0)
(1.02217 0.00107607 0)
(1.02009 0.00100639 0)
(1.01815 0.000936624 0)
(1.01634 0.000867097 0)
(1.01468 0.000798202 0)
(1.01315 0.000730393 0)
(1.01176 0.000664159 0)
(1.01049 0.000600011 0)
(1.00936 0.000538448 0)
(1.00834 0.00047994 0)
(1.00744 0.000424908 0)
(1.00664 0.000373701 0)
(1.00594 0.000326589 0)
(1.00534 0.000283754 0)
(1.00481 0.000245285 0)
(1.00435 0.000211184 0)
(1.00396 0.000181367 0)
(1.00363 0.000155679 0)
(1.00334 0.000133903 0)
(1.00309 0.000115773 0)
(1.00288 0.000100989 0)
(1.00269 8.92306e-05 0)
(1.00252 8.01669e-05 0)
(1.00237 7.34699e-05 0)
(1.00223 6.88223e-05 0)
(1.00209 6.59247e-05 0)
(1.00196 6.45009e-05 0)
(1.00184 6.43013e-05 0)
(1.00171 6.51043e-05 0)
(1.00158 6.6717e-05 0)
(1.00144 6.89744e-05 0)
(1.0013 7.17383e-05 0)
(1.00115 7.48934e-05 0)
(1.001 7.83498e-05 0)
(1.00084 8.20287e-05 0)
(1.00067 8.58877e-05 0)
(1.0005 8.98496e-05 0)
(1.00031 9.39708e-05 0)
(1.00013 9.80058e-05 0)
(0.999904 0.000102512 0)
(0.99975 0.000105957 0)
(0.999387 0.000112475 0)
(1.00001 -0.000121701 0)
(1.00017 -0.000365414 0)
(1.00049 -0.000609497 0)
(1.00097 -0.000854084 0)
(1.00163 -0.00109945 0)
(1.00244 -0.00134587 0)
(1.00342 -0.00159355 0)
(1.00456 -0.00184267 0)
(1.00588 -0.00209342 0)
(1.00735 -0.00234599 0)
(1.009 -0.00260055 0)
(1.01082 -0.00285725 0)
(1.01281 -0.00311621 0)
(1.01497 -0.00337755 0)
(1.01731 -0.00364135 0)
(1.01983 -0.00390768 0)
(1.02252 -0.00417656 0)
(1.02539 -0.004448 0)
(1.02845 -0.00472196 0)
(1.03169 -0.0049984 0)
(1.03511 -0.0052772 0)
(1.03872 -0.00555823 0)
(1.04252 -0.00584132 0)
(1.04651 -0.00612625 0)
(1.05069 -0.00641276 0)
(1.05506 -0.00670055 0)
(1.05962 -0.00698929 0)
(1.06438 -0.00727857 0)
(1.06933 -0.00756796 0)
(1.07447 -0.00785699 0)
(1.07981 -0.00814515 0)
(1.08534 -0.00843186 0)
(1.09105 -0.00871652 0)
(1.09696 -0.00899851 0)
(1.10306 -0.00927714 0)
(1.10934 -0.00955172 0)
(1.1158 -0.00982153 0)
(1.12244 -0.0100858 0)
(1.12926 -0.0103438 0)
(1.13624 -0.0105947 0)
(1.1434 -0.0108378 0)
(1.15071 -0.0110723 0)
(1.15817 -0.0112975 0)
(1.16578 -0.0115125 0)
(1.17354 -0.0117167 0)
(1.18142 -0.0119095 0)
(1.18943 -0.0120901 0)
(1.19756 -0.012258 0)
(1.20579 -0.0124126 0)
(1.21413 -0.0125535 0)
(1.22255 -0.0126803 0)
(1.23106 -0.0127925 0)
(1.23963 -0.01289 0)
(1.24826 -0.0129725 0)
(1.25695 -0.0130399 0)
(1.26567 -0.0130922 0)
(1.27442 -0.0131293 0)
(1.2832 -0.0131514 0)
(1.29198 -0.0131587 0)
(1.30076 -0.0131513 0)
(1.30954 -0.0131295 0)
(1.31829 -0.0130938 0)
(1.32701 -0.0130445 0)
(1.3357 -0.0129821 0)
(1.34434 -0.012907 0)
(1.35293 -0.0128198 0)
(1.36145 -0.012721 0)
(1.3699 -0.0126111 0)
(1.37828 -0.0124907 0)
(1.38657 -0.0123603 0)
(1.39478 -0.0122206 0)
(1.40288 -0.012072 0)
(1.41088 -0.0119151 0)
(1.41878 -0.0117504 0)
(1.42656 -0.0115783 0)
(1.43423 -0.0113992 0)
(1.44177 -0.0112136 0)
(1.44919 -0.0110218 0)
(1.45648 -0.0108241 0)
(1.46363 -0.0106208 0)
(1.47065 -0.0104121 0)
(1.47752 -0.0101982 0)
(1.48425 -0.00997914 0)
(1.49084 -0.00975505 0)
(1.49727 -0.00952596 0)
(1.50354 -0.00929187 0)
(1.50966 -0.00905272 0)
(1.51562 -0.00880844 0)
(1.52142 -0.00855892 0)
(1.52704 -0.00830403 0)
(1.5325 -0.00804361 0)
(1.53777 -0.00777749 0)
(1.54287 -0.0075055 0)
(1.54779 -0.00722745 0)
(1.55252 -0.00694316 0)
(1.55706 -0.00665244 0)
(1.5614 -0.00635513 0)
(1.56554 -0.00605108 0)
(1.56947 -0.00574017 0)
(1.5732 -0.00542229 0)
(1.57671 -0.00509735 0)
(1.58001 -0.00476533 0)
(1.58308 -0.00442622 0)
(1.58592 -0.00408004 0)
(1.58852 -0.00372686 0)
(1.59089 -0.00336681 0)
(1.59302 -0.00300003 0)
(1.5949 -0.00262673 0)
(1.59653 -0.00224714 0)
(1.59791 -0.00186155 0)
(1.59902 -0.00147027 0)
(1.59987 -0.00107367 0)
(1.60046 -0.000672146 0)
(1.60077 -0.000266135 0)
(1.60082 0.000143898 0)
(1.60059 0.000557453 0)
(1.60008 0.000974006 0)
(1.59929 0.00139301 0)
(1.59822 0.00181389 0)
(1.59687 0.00223606 0)
(1.59524 0.00265891 0)
(1.59333 0.00308182 0)
(1.59113 0.00350416 0)
(1.58865 0.00392528 0)
(1.58589 0.00434454 0)
(1.58285 0.00476128 0)
(1.57954 0.00517485 0)
(1.57595 0.00558461 0)
(1.57209 0.00598988 0)
(1.56795 0.00639003 0)
(1.56356 0.0067844 0)
(1.5589 0.00717236 0)
(1.55398 0.00755327 0)
(1.54882 0.00792651 0)
(1.5434 0.00829145 0)
(1.53775 0.0086475 0)
(1.53186 0.00899406 0)
(1.52574 0.00933054 0)
(1.5194 0.00965639 0)
(1.51285 0.00997105 0)
(1.50609 0.010274 0)
(1.49913 0.0105647 0)
(1.49199 0.0108427 0)
(1.48466 0.0111075 0)
(1.47716 0.0113587 0)
(1.46949 0.0115958 0)
(1.46167 0.0118185 0)
(1.45371 0.0120264 0)
(1.44562 0.0122192 0)
(1.4374 0.0123966 0)
(1.42907 0.0125583 0)
(1.42063 0.0127042 0)
(1.4121 0.0128342 0)
(1.40349 0.0129479 0)
(1.39482 0.0130455 0)
(1.38608 0.0131268 0)
(1.37729 0.0131919 0)
(1.36846 0.0132409 0)
(1.35961 0.0132737 0)
(1.35074 0.0132907 0)
(1.34187 0.0132919 0)
(1.333 0.0132777 0)
(1.32414 0.0132483 0)
(1.31531 0.0132041 0)
(1.30651 0.0131454 0)
(1.29776 0.0130727 0)
(1.28906 0.0129864 0)
(1.28043 0.012887 0)
(1.27186 0.0127749 0)
(1.26338 0.0126509 0)
(1.25498 0.0125153 0)
(1.24667 0.0123689 0)
(1.23847 0.0122122 0)
(1.23037 0.0120459 0)
(1.22239 0.0118706 0)
(1.21453 0.0116869 0)
(1.2068 0.0114955 0)
(1.19919 0.0112971 0)
(1.19172 0.0110923 0)
(1.18439 0.0108817 0)
(1.1772 0.010666 0)
(1.17016 0.0104458 0)
(1.16327 0.0102218 0)
(1.15652 0.00999444 0)
(1.14993 0.00976443 0)
(1.1435 0.00953229 0)
(1.13722 0.00929855 0)
(1.1311 0.00906373 0)
(1.12513 0.00882833 0)
(1.11932 0.0085928 0)
(1.11367 0.00835758 0)
(1.10818 0.00812308 0)
(1.10284 0.00788969 0)
(1.09766 0.00765775 0)
(1.09263 0.00742757 0)
(1.08775 0.00719945 0)
(1.08303 0.00697362 0)
(1.07846 0.0067503 0)
(1.07403 0.00652963 0)
(1.06975 0.00631173 0)
(1.06562 0.00609663 0)
(1.06162 0.0058843 0)
(1.05777 0.00567462 0)
(1.05406 0.00546738 0)
(1.05049 0.00526229 0)
(1.04705 0.00505896 0)
(1.04374 0.00485692 0)
(1.04058 0.00465564 0)
(1.03754 0.00445456 0)
(1.03464 0.00425311 0)
(1.03187 0.0040508 0)
(1.02924 0.00384722 0)
(1.02675 0.00364212 0)
(1.02439 0.00343545 0)
(1.02217 0.00322739 0)
(1.02009 0.00301839 0)
(1.01815 0.00280914 0)
(1.01635 0.00260061 0)
(1.01468 0.00239398 0)
(1.01316 0.0021906 0)
(1.01176 0.00199196 0)
(1.0105 0.00179956 0)
(1.00937 0.00161492 0)
(1.00835 0.00143945 0)
(1.00745 0.0012744 0)
(1.00665 0.00112082 0)
(1.00595 0.000979524 0)
(1.00535 0.000851055 0)
(1.00482 0.000735683 0)
(1.00437 0.000633409 0)
(1.00398 0.000543986 0)
(1.00364 0.000466948 0)
(1.00335 0.000401642 0)
(1.0031 0.000347272 0)
(1.00289 0.000302939 0)
(1.0027 0.000267679 0)
(1.00253 0.000240501 0)
(1.00238 0.000220421 0)
(1.00224 0.000206487 0)
(1.0021 0.000197802 0)
(1.00197 0.000193535 0)
(1.00185 0.00019294 0)
(1.00172 0.00019535 0)
(1.00159 0.000200188 0)
(1.00145 0.000206959 0)
(1.00131 0.000215247 0)
(1.00116 0.000224708 0)
(1.00101 0.000235071 0)
(1.00085 0.000246105 0)
(1.00068 0.000257666 0)
(1.00051 0.000269564 0)
(1.00032 0.000281876 0)
(1.00014 0.000294082 0)
(0.999912 0.000307409 0)
(0.999759 0.000318212 0)
(0.999396 0.000337155 0)
(1.00001 -0.000202922 0)
(1.00017 -0.000608977 0)
(1.00049 -0.00101556 0)
(1.00097 -0.00142305 0)
(1.00162 -0.00183186 0)
(1.00244 -0.00224238 0)
(1.00341 -0.00265499 0)
(1.00456 -0.00307001 0)
(1.00587 -0.00348777 0)
(1.00734 -0.00390859 0)
(1.00899 -0.00433273 0)
(1.0108 -0.00476046 0)
(1.01279 -0.005192 0)
(1.01495 -0.00562752 0)
(1.01729 -0.00606717 0)
(1.0198 -0.00651106 0)
(1.02249 -0.00695924 0)
(1.02536 -0.00741172 0)
(1.02841 -0.00786846 0)
(1.03165 -0.00832934 0)
(1.03507 -0.00879421 0)
(1.03868 -0.00926284 0)
(1.04248 -0.00973495 0)
(1.04647 -0.0102102 0)
(1.05065 -0.0106881 0)
(1.05502 -0.0111682 0)
(1.05958 -0.0116499 0)
(1.06434 -0.0121325 0)
(1.06929 -0.0126154 0)
(1.07443 -0.0130978 0)
(1.07977 -0.0135787 0)
(1.0853 -0.0140573 0)
(1.09103 -0.0145325 0)
(1.09694 -0.0150032 0)
(1.10304 -0.0154684 0)
(1.10933 -0.0159269 0)
(1.1158 -0.0163775 0)
(1.12246 -0.0168188 0)
(1.12928 -0.0172497 0)
(1.13628 -0.0176688 0)
(1.14345 -0.0180748 0)
(1.15077 -0.0184665 0)
(1.15825 -0.0188426 0)
(1.16588 -0.0192018 0)
(1.17365 -0.0195429 0)
(1.18155 -0.0198649 0)
(1.18958 -0.0201666 0)
(1.19773 -0.020447 0)
(1.20599 -0.0207053 0)
(1.21434 -0.0209406 0)
(1.22279 -0.0211522 0)
(1.23131 -0.0213396 0)
(1.23991 -0.0215022 0)
(1.24856 -0.0216399 0)
(1.25727 -0.0217523 0)
(1.26602 -0.0218393 0)
(1.27479 -0.0219011 0)
(1.28359 -0.0219377 0)
(1.29239 -0.0219495 0)
(1.3012 -0.0219368 0)
(1.30999 -0.0219002 0)
(1.31877 -0.0218402 0)
(1.32751 -0.0217575 0)
(1.33622 -0.0216529 0)
(1.34488 -0.0215271 0)
(1.35348 -0.0213811 0)
(1.36203 -0.0212158 0)
(1.3705 -0.0210319 0)
(1.37889 -0.0208306 0)
(1.3872 -0.0206127 0)
(1.39541 -0.0203792 0)
(1.40353 -0.0201309 0)
(1.41155 -0.0198688 0)
(1.41946 -0.0195937 0)
(1.42725 -0.0193063 0)
(1.43493 -0.0190074 0)
(1.44248 -0.0186976 0)
(1.44991 -0.0183776 0)
(1.45721 -0.0180478 0)
(1.46437 -0.0177086 0)
(1.4714 -0.0173606 0)
(1.47828 -0.0170038 0)
(1.48502 -0.0166386 0)
(1.49161 -0.016265 0)
(1.49805 -0.0158831 0)
(1.50434 -0.015493 0)
(1.51046 -0.0150944 0)
(1.51643 -0.0146873 0)
(1.52223 -0.0142716 0)
(1.52787 -0.0138468 0)
(1.53333 -0.0134129 0)
(1.53862 -0.0129696 0)
(1.54373 -0.0125164 0)
(1.54865 -0.0120531 0)
(1.55339 -0.0115794 0)
(1.55794 -0.011095 0)
(1.56229 -0.0105996 0)
(1.56644 -0.0100929 0)
(1.57039 -0.00957474 0)
(1.57412 -0.00904493 0)
(1.57764 -0.00850335 0)
(1.58095 -0.00794991 0)
(1.58403 -0.0073846 0)
(1.58688 -0.00680747 0)
(1.5895 -0.00621864 0)
(1.59188 -0.00561829 0)
(1.59401 -0.00500669 0)
(1.5959 -0.00438417 0)
(1.59754 -0.00375112 0)
(1.59892 -0.00310801 0)
(1.60004 -0.00245539 0)
(1.6009 -0.00179386 0)
(1.60149 -0.00112408 0)
(1.60181 -0.00044679 0)
(1.60186 0.00023724 0)
(1.60163 0.000927174 0)
(1.60113 0.00162213 0)
(1.60034 0.0023212 0)
(1.59927 0.00302342 0)
(1.59793 0.00372781 0)
(1.59629 0.00443334 0)
(1.59438 0.00513898 0)
(1.59218 0.00584367 0)
(1.5897 0.00654634 0)
(1.58693 0.00724592 0)
(1.58389 0.0079413 0)
(1.58057 0.00863141 0)
(1.57697 0.00931513 0)
(1.5731 0.00999139 0)
(1.56896 0.0106591 0)
(1.56455 0.0113172 0)
(1.55988 0.0119646 0)
(1.55495 0.0126002 0)
(1.54977 0.013223 0)
(1.54434 0.013832 0)
(1.53867 0.0144261 0)
(1.53277 0.0150044 0)
(1.52663 0.0155659 0)
(1.52028 0.0161096 0)
(1.51371 0.0166347 0)
(1.50693 0.0171402 0)
(1.49995 0.0176253 0)
(1.49278 0.0180892 0)
(1.48543 0.0185311 0)
(1.47791 0.0189502 0)
(1.47023 0.0193458 0)
(1.46238 0.0197174 0)
(1.4544 0.0200642 0)
(1.44628 0.0203859 0)
(1.43804 0.0206819 0)
(1.42968 0.0209517 0)
(1.42122 0.0211951 0)
(1.41267 0.0214118 0)
(1.40403 0.0216015 0)
(1.39533 0.0217641 0)
(1.38657 0.0218996 0)
(1.37775 0.0220081 0)
(1.3689 0.0220895 0)
(1.36002 0.022144 0)
(1.35113 0.0221721 0)
(1.34223 0.0221739 0)
(1.33334 0.0221498 0)
(1.32446 0.0221004 0)
(1.3156 0.0220263 0)
(1.30678 0.021928 0)
(1.29801 0.0218063 0)
(1.28929 0.0216618 0)
(1.28063 0.0214955 0)
(1.27205 0.0213082 0)
(1.26354 0.0211008 0)
(1.25512 0.0208742 0)
(1.2468 0.0206294 0)
(1.23858 0.0203676 0)
(1.23047 0.0200896 0)
(1.22247 0.0197966 0)
(1.2146 0.0194898 0)
(1.20685 0.01917 0)
(1.19923 0.0188385 0)
(1.19175 0.0184964 0)
(1.18441 0.0181447 0)
(1.17721 0.0177845 0)
(1.17016 0.0174168 0)
(1.16326 0.0170427 0)
(1.15651 0.0166631 0)
(1.14991 0.0162791 0)
(1.14347 0.0158916 0)
(1.13718 0.0155014 0)
(1.13106 0.0151094 0)
(1.12509 0.0147165 0)
(1.11928 0.0143234 0)
(1.11362 0.0139309 0)
(1.10813 0.0135396 0)
(1.10279 0.0131501 0)
(1.0976 0.0127631 0)
(1.09257 0.0123791 0)
(1.0877 0.0119985 0)
(1.08298 0.0116218 0)
(1.0784 0.0112493 0)
(1.07398 0.0108812 0)
(1.0697 0.0105177 0)
(1.06557 0.010159 0)
(1.06158 0.00980489 0)
(1.05773 0.00945523 0)
(1.05402 0.00910967 0)
(1.05045 0.00876772 0)
(1.04702 0.00842872 0)
(1.04372 0.00809191 0)
(1.04055 0.00775638 0)
(1.03752 0.00742122 0)
(1.03462 0.00708548 0)
(1.03186 0.00674833 0)
(1.02923 0.00640909 0)
(1.02674 0.00606734 0)
(1.02438 0.005723 0)
(1.02217 0.00537637 0)
(1.02009 0.00502817 0)
(1.01815 0.00467959 0)
(1.01635 0.00433222 0)
(1.01469 0.00398801 0)
(1.01317 0.00364924 0)
(1.01178 0.00331835 0)
(1.01051 0.00299787 0)
(1.00938 0.00269031 0)
(1.00837 0.00239802 0)
(1.00746 0.00212309 0)
(1.00667 0.00186727 0)
(1.00597 0.00163191 0)
(1.00537 0.00141792 0)
(1.00484 0.00122575 0)
(1.00439 0.00105539 0)
(1.004 0.000906446 0)
(1.00366 0.000778131 0)
(1.00337 0.000669361 0)
(1.00313 0.00057881 0)
(1.00291 0.000504977 0)
(1.00272 0.000446257 0)
(1.00255 0.000401001 0)
(1.0024 0.000367566 0)
(1.00226 0.000344367 0)
(1.00212 0.000329908 0)
(1.00199 0.000322807 0)
(1.00186 0.000321817 0)
(1.00174 0.000325831 0)
(1.0016 0.000333885 0)
(1.00147 0.000345155 0)
(1.00133 0.000358948 0)
(1.00118 0.000374694 0)
(1.00103 0.000391934 0)
(1.00087 0.000410297 0)
(1.0007 0.000429521 0)
(1.00052 0.000449341 0)
(1.00033 0.000469771 0)
(1.00015 0.000490208 0)
(0.999928 0.000512167 0)
(0.999775 0.000530665 0)
(0.999412 0.000561485 0)
(1.00001 -0.000283871 0)
(1.00017 -0.000851859 0)
(1.00049 -0.0014206 0)
(1.00097 -0.00199064 0)
(1.00162 -0.00256255 0)
(1.00243 -0.00313688 0)
(1.00341 -0.00371413 0)
(1.00455 -0.00429479 0)
(1.00585 -0.00487933 0)
(1.00733 -0.00546818 0)
(1.00897 -0.00606173 0)
(1.01078 -0.00666034 0)
(1.01276 -0.00726433 0)
(1.01492 -0.00787395 0)
(1.01725 -0.00848943 0)
(1.01976 -0.00911089 0)
(1.02245 -0.00973844 0)
(1.02531 -0.0103721 0)
(1.02836 -0.0110117 0)
(1.0316 -0.0116573 0)
(1.03502 -0.0123086 0)
(1.03862 -0.0129652 0)
(1.04242 -0.0136267 0)
(1.0464 -0.0142927 0)
(1.05058 -0.0149626 0)
(1.05495 -0.0156356 0)
(1.05952 -0.016311 0)
(1.06427 -0.0169879 0)
(1.06923 -0.0176652 0)
(1.07438 -0.0183418 0)
(1.07972 -0.0190165 0)
(1.08526 -0.019688 0)
(1.09099 -0.0203548 0)
(1.09691 -0.0210156 0)
(1.10302 -0.0216686 0)
(1.10932 -0.0223123 0)
(1.11581 -0.0229449 0)
(1.12248 -0.0235646 0)
(1.12932 -0.0241697 0)
(1.13633 -0.0247584 0)
(1.14352 -0.0253287 0)
(1.15087 -0.0258789 0)
(1.15837 -0.0264072 0)
(1.16602 -0.0269119 0)
(1.17382 -0.0273911 0)
(1.18175 -0.0278434 0)
(1.18981 -0.0282672 0)
(1.19798 -0.0286611 0)
(1.20627 -0.0290239 0)
(1.21466 -0.0293543 0)
(1.22314 -0.0296514 0)
(1.23169 -0.0299144 0)
(1.24032 -0.0301427 0)
(1.24902 -0.0303357 0)
(1.25776 -0.0304931 0)
(1.26654 -0.030615 0)
(1.27535 -0.0307012 0)
(1.28418 -0.0307521 0)
(1.29302 -0.030768 0)
(1.30185 -0.0307496 0)
(1.31068 -0.0306975 0)
(1.31949 -0.0306126 0)
(1.32826 -0.0304958 0)
(1.337 -0.0303481 0)
(1.34569 -0.0301709 0)
(1.35432 -0.0299652 0)
(1.36289 -0.0297323 0)
(1.37138 -0.0294736 0)
(1.3798 -0.0291904 0)
(1.38813 -0.028884 0)
(1.39637 -0.0285558 0)
(1.40451 -0.0282069 0)
(1.41255 -0.0278387 0)
(1.42047 -0.0274524 0)
(1.42829 -0.027049 0)
(1.43598 -0.0266295 0)
(1.44355 -0.0261949 0)
(1.45099 -0.025746 0)
(1.4583 -0.0252836 0)
(1.46548 -0.0248083 0)
(1.47252 -0.0243205 0)
(1.47942 -0.0238206 0)
(1.48617 -0.0233091 0)
(1.49277 -0.0227859 0)
(1.49922 -0.0222512 0)
(1.50552 -0.0217049 0)
(1.51166 -0.021147 0)
(1.51764 -0.0205773 0)
(1.52346 -0.0199954 0)
(1.52911 -0.0194011 0)
(1.53458 -0.0187939 0)
(1.53988 -0.0181734 0)
(1.54501 -0.0175393 0)
(1.54995 -0.016891 0)
(1.5547 -0.0162281 0)
(1.55926 -0.0155502 0)
(1.56363 -0.0148568 0)
(1.56779 -0.0141477 0)
(1.57175 -0.0134224 0)
(1.5755 -0.0126807 0)
(1.57904 -0.0119224 0)
(1.58236 -0.0111475 0)
(1.58546 -0.0103558 0)
(1.58832 -0.00954752 0)
(1.59095 -0.00872274 0)
(1.59335 -0.00788174 0)
(1.5955 -0.00702488 0)
(1.5974 -0.00615262 0)
(1.59905 -0.00526553 0)
(1.60044 -0.00436426 0)
(1.60157 -0.00344958 0)
(1.60244 -0.00252233 0)
(1.60304 -0.00158346 0)
(1.60337 -0.000633988 0)
(1.60343 0.00032499 0)
(1.6032 0.0012923 0)
(1.6027 0.00226671 0)
(1.60192 0.00324692 0)
(1.60085 0.00423159 0)
(1.59951 0.00521932 0)
(1.59787 0.0062087 0)
(1.59595 0.00719825 0)
(1.59375 0.0081865 0)
(1.59126 0.00917193 0)
(1.58849 0.010153 0)
(1.58544 0.0111283 0)
(1.58211 0.0120961 0)
(1.5785 0.013055 0)
(1.57462 0.0140035 0)
(1.57046 0.01494 0)
(1.56604 0.0158629 0)
(1.56135 0.0167709 0)
(1.55641 0.0176624 0)
(1.55121 0.0185359 0)
(1.54576 0.0193901 0)
(1.54006 0.0202234 0)
(1.53414 0.0210345 0)
(1.52798 0.0218221 0)
(1.52159 0.0225847 0)
(1.515 0.0233212 0)
(1.50819 0.0240303 0)
(1.50118 0.0247107 0)
(1.49398 0.0253613 0)
(1.4866 0.025981 0)
(1.47905 0.0265689 0)
(1.47133 0.0271238 0)
(1.46345 0.0276449 0)
(1.45543 0.0281313 0)
(1.44728 0.0285824 0)
(1.439 0.0289974 0)
(1.4306 0.0293757 0)
(1.4221 0.0297169 0)
(1.41351 0.0300206 0)
(1.40484 0.0302864 0)
(1.3961 0.0305142 0)
(1.3873 0.030704 0)
(1.37845 0.0308556 0)
(1.36956 0.0309694 0)
(1.36064 0.0310455 0)
(1.35171 0.0310842 0)
(1.34277 0.0310862 0)
(1.33384 0.0310518 0)
(1.32493 0.0309819 0)
(1.31604 0.0308773 0)
(1.30718 0.0307387 0)
(1.29838 0.0305672 0)
(1.28962 0.0303638 0)
(1.28094 0.0301298 0)
(1.27232 0.0298662 0)
(1.26378 0.0295744 0)
(1.25534 0.0292558 0)
(1.24699 0.0289117 0)
(1.23874 0.0285436 0)
(1.23061 0.0281529 0)
(1.22259 0.0277413 0)
(1.21469 0.0273101 0)
(1.20692 0.0268609 0)
(1.19929 0.0263952 0)
(1.19179 0.0259147 0)
(1.18443 0.0254208 0)
(1.17722 0.024915 0)
(1.17015 0.0243987 0)
(1.16324 0.0238735 0)
(1.15648 0.0233407 0)
(1.14987 0.0228017 0)
(1.14342 0.0222578 0)
(1.13713 0.0217103 0)
(1.13099 0.0211603 0)
(1.12502 0.020609 0)
(1.1192 0.0200576 0)
(1.11355 0.0195069 0)
(1.10805 0.0189581 0)
(1.10271 0.0184119 0)
(1.09752 0.0178692 0)
(1.09249 0.0173307 0)
(1.08762 0.0167971 0)
(1.0829 0.016269 0)
(1.07833 0.0157467 0)
(1.0739 0.0152308 0)
(1.06963 0.0147214 0)
(1.0655 0.0142187 0)
(1.06151 0.0137225 0)
(1.05767 0.0132325 0)
(1.05396 0.0127484 0)
(1.0504 0.0122693 0)
(1.04697 0.0117945 0)
(1.04367 0.0113228 0)
(1.04051 0.0108529 0)
(1.03748 0.0103836 0)
(1.03459 0.00991361 0)
(1.03183 0.00944166 0)
(1.02921 0.00896685 0)
(1.02672 0.00848858 0)
(1.02438 0.00800672 0)
(1.02216 0.00752171 0)
(1.02009 0.00703454 0)
(1.01816 0.00654687 0)
(1.01636 0.0060609 0)
(1.0147 0.00557939 0)
(1.01318 0.00510548 0)
(1.01179 0.0046426 0)
(1.01054 0.00419431 0)
(1.0094 0.00376408 0)
(1.00839 0.00335521 0)
(1.00749 0.00297062 0)
(1.0067 0.00261277 0)
(1.006 0.00228355 0)
(1.0054 0.00198421 0)
(1.00487 0.0017154 0)
(1.00442 0.00147711 0)
(1.00403 0.00126877 0)
(1.00369 0.0010893 0)
(1.0034 0.000937165 0)
(1.00316 0.000810522 0)
(1.00294 0.000707267 0)
(1.00275 0.000625153 0)
(1.00258 0.00056187 0)
(1.00243 0.000515121 0)
(1.00229 0.000482687 0)
(1.00215 0.000462473 0)
(1.00202 0.000452546 0)
(1.00189 0.00045116 0)
(1.00176 0.000456766 0)
(1.00163 0.000468016 0)
(1.00149 0.000483756 0)
(1.00135 0.000503019 0)
(1.00121 0.000525007 0)
(1.00105 0.000549077 0)
(1.00089 0.000574714 0)
(1.00072 0.000601545 0)
(1.00055 0.00062922 0)
(1.00036 0.000657719 0)
(1.00018 0.000686283 0)
(0.999953 0.000716873 0)
(0.9998 0.000742803 0)
(0.999437 0.00078561 0)
(1.00001 -0.00036457 0)
(1.00017 -0.00109403 0)
(1.00048 -0.00182447 0)
(1.00097 -0.00255661 0)
(1.00161 -0.00329119 0)
(1.00242 -0.0040289 0)
(1.00339 -0.00477041 0)
(1.00453 -0.00551634 0)
(1.00583 -0.00626732 0)
(1.0073 -0.00702389 0)
(1.00894 -0.00778658 0)
(1.01075 -0.00855587 0)
(1.01273 -0.00933214 0)
(1.01488 -0.0101158 0)
(1.0172 -0.010907 0)
(1.01971 -0.0117061 0)
(1.02239 -0.0125131 0)
(1.02525 -0.013328 0)
(1.02829 -0.0141509 0)
(1.03152 -0.0149815 0)
(1.03494 -0.0158195 0)
(1.03854 -0.0166646 0)
(1.04233 -0.0175162 0)
(1.04632 -0.0183737 0)
(1.05049 -0.0192363 0)
(1.05486 -0.0201032 0)
(1.05943 -0.0209733 0)
(1.06419 -0.0218455 0)
(1.06914 -0.0227184 0)
(1.0743 -0.0235906 0)
(1.07965 -0.0244605 0)
(1.08519 -0.0253264 0)
(1.09093 -0.0261865 0)
(1.09687 -0.0270389 0)
(1.10299 -0.0278815 0)
(1.10931 -0.0287122 0)
(1.11581 -0.0295287 0)
(1.1225 -0.0303287 0)
(1.12936 -0.03111 0)
(1.1364 -0.0318701 0)
(1.14361 -0.0326066 0)
(1.15099 -0.0333173 0)
(1.15852 -0.0339996 0)
(1.16621 -0.0346514 0)
(1.17404 -0.0352705 0)
(1.18201 -0.0358547 0)
(1.1901 -0.0364021 0)
(1.19832 -0.0369108 0)
(1.20665 -0.0373792 0)
(1.21508 -0.0378057 0)
(1.2236 -0.0381892 0)
(1.2322 -0.0385285 0)
(1.24088 -0.0388228 0)
(1.24962 -0.0390715 0)
(1.2584 -0.0392742 0)
(1.26723 -0.0394308 0)
(1.27609 -0.0395413 0)
(1.28496 -0.039606 0)
(1.29385 -0.0396256 0)
(1.30273 -0.0396007 0)
(1.3116 -0.0395322 0)
(1.32045 -0.0394214 0)
(1.32926 -0.0392693 0)
(1.33804 -0.0390775 0)
(1.34677 -0.0388475 0)
(1.35543 -0.0385808 0)
(1.36404 -0.0382791 0)
(1.37257 -0.0379442 0)
(1.38102 -0.0375777 0)
(1.38938 -0.0371814 0)
(1.39765 -0.0367571 0)
(1.40581 -0.0363064 0)
(1.41388 -0.0358309 0)
(1.42183 -0.0353322 0)
(1.42966 -0.0348116 0)
(1.43738 -0.0342706 0)
(1.44497 -0.0337103 0)
(1.45243 -0.0331318 0)
(1.45976 -0.0325361 0)
(1.46696 -0.0319239 0)
(1.47402 -0.0312959 0)
(1.48093 -0.0306526 0)
(1.4877 -0.0299944 0)
(1.49432 -0.0293214 0)
(1.50079 -0.0286338 0)
(1.5071 -0.0279315 0)
(1.51326 -0.0272144 0)
(1.51926 -0.0264821 0)
(1.52509 -0.0257343 0)
(1.53075 -0.0249706 0)
(1.53625 -0.0241905 0)
(1.54157 -0.0233933 0)
(1.54671 -0.0225785 0)
(1.55167 -0.0217455 0)
(1.55644 -0.0208938 0)
(1.56102 -0.0200226 0)
(1.56541 -0.0191315 0)
(1.56959 -0.0182201 0)
(1.57357 -0.0172877 0)
(1.57735 -0.0163342 0)
(1.5809 -0.0153592 0)
(1.58424 -0.0143626 0)
(1.58736 -0.0133444 0)
(1.59024 -0.0123046 0)
(1.59289 -0.0112435 0)
(1.59531 -0.0101613 0)
(1.59747 -0.00905857 0)
(1.59939 -0.00793586 0)
(1.60106 -0.0067939 0)
(1.60247 -0.00563355 0)
(1.60362 -0.00445579 0)
(1.6045 -0.00326172 0)
(1.60511 -0.00205256 0)
(1.60545 -0.000829633 0)
(1.60551 0.000405637 0)
(1.6053 0.00165173 0)
(1.6048 0.00290706 0)
(1.60402 0.00416993 0)
(1.60296 0.00543861 0)
(1.60161 0.00671131 0)
(1.59998 0.00798616 0)
(1.59806 0.00926129 0)
(1.59585 0.0105348 0)
(1.59335 0.0118047 0)
(1.59057 0.013069 0)
(1.58751 0.0143258 0)
(1.58417 0.0155731 0)
(1.58054 0.0168089 0)
(1.57664 0.0180313 0)
(1.57247 0.0192382 0)
(1.56802 0.0204277 0)
(1.56331 0.0215979 0)
(1.55834 0.0227469 0)
(1.55312 0.0238728 0)
(1.54764 0.0249736 0)
(1.54192 0.0260477 0)
(1.53596 0.0270931 0)
(1.52977 0.0281082 0)
(1.52335 0.0290912 0)
(1.51671 0.0300405 0)
(1.50987 0.0309544 0)
(1.50282 0.0318314 0)
(1.49558 0.03267 0)
(1.48816 0.0334688 0)
(1.48056 0.0342264 0)
(1.47279 0.0349415 0)
(1.46487 0.0356131 0)
(1.4568 0.03624 0)
(1.4486 0.0368212 0)
(1.44027 0.0373559 0)
(1.43183 0.0378432 0)
(1.42328 0.0382827 0)
(1.41464 0.0386737 0)
(1.40592 0.0390159 0)
(1.39712 0.039309 0)
(1.38827 0.0395529 0)
(1.37937 0.0397477 0)
(1.37043 0.0398936 0)
(1.36146 0.0399908 0)
(1.35248 0.0400399 0)
(1.3435 0.0400414 0)
(1.33452 0.0399961 0)
(1.32555 0.0399049 0)
(1.31662 0.0397688 0)
(1.30772 0.0395889 0)
(1.29886 0.0393666 0)
(1.29007 0.0391031 0)
(1.28134 0.0388001 0)
(1.27268 0.038459 0)
(1.26411 0.0380815 0)
(1.25562 0.0376694 0)
(1.24724 0.0372245 0)
(1.23896 0.0367487 0)
(1.23079 0.0362438 0)
(1.22274 0.0357118 0)
(1.21482 0.0351547 0)
(1.20702 0.0345745 0)
(1.19936 0.0339732 0)
(1.19184 0.0333527 0)
(1.18446 0.032715 0)
(1.17722 0.032062 0)
(1.17014 0.0313957 0)
(1.16321 0.030718 0)
(1.15643 0.0300305 0)
(1.14982 0.0293351 0)
(1.14335 0.0286335 0)
(1.13705 0.0279274 0)
(1.13091 0.0272181 0)
(1.12493 0.0265073 0)
(1.1191 0.0257964 0)
(1.11344 0.0250866 0)
(1.10794 0.0243792 0)
(1.1026 0.0236753 0)
(1.09741 0.022976 0)
(1.09238 0.0222822 0)
(1.08751 0.0215948 0)
(1.08279 0.0209145 0)
(1.07822 0.0202419 0)
(1.0738 0.0195775 0)
(1.06953 0.0189216 0)
(1.06541 0.0182743 0)
(1.06142 0.0176355 0)
(1.05759 0.0170049 0)
(1.05389 0.0163819 0)
(1.05033 0.0157655 0)
(1.0469 0.0151545 0)
(1.04361 0.0145477 0)
(1.04046 0.0139434 0)
(1.03744 0.01334 0)
(1.03455 0.0127356 0)
(1.0318 0.0121289 0)
(1.02919 0.0115187 0)
(1.02671 0.0109041 0)
(1.02436 0.0102849 0)
(1.02216 0.00966179 0)
(1.02009 0.00903596 0)
(1.01816 0.00840953 0)
(1.01637 0.00778533 0)
(1.01472 0.00716688 0)
(1.0132 0.00655822 0)
(1.01182 0.00596374 0)
(1.01056 0.00538799 0)
(1.00943 0.00483546 0)
(1.00842 0.00431035 0)
(1.00753 0.00381643 0)
(1.00673 0.00335685 0)
(1.00604 0.00293403 0)
(1.00544 0.00254961 0)
(1.00491 0.00220438 0)
(1.00446 0.00189837 0)
(1.00407 0.00163083 0)
(1.00373 0.00140037 0)
(1.00345 0.00120503 0)
(1.0032 0.00104243 0)
(1.00298 0.000909861 0)
(1.00279 0.000804448 0)
(1.00262 0.000723216 0)
(1.00247 0.000663215 0)
(1.00233 0.00062159 0)
(1.00219 0.000595649 0)
(1.00206 0.000582909 0)
(1.00193 0.000581127 0)
(1.0018 0.000588311 0)
(1.00167 0.00060273 0)
(1.00153 0.000622903 0)